Title
81343
    1CHL1    C3    1   4.480   0.478  10.079 -0.1747  0.5759 -0.0729
    1CHL1    H3    2   4.491   0.373  10.046 -0.7995  0.8333 -1.1588
    1CHL1    O3    3   4.507   0.499  10.219 -0.1323  0.9731 -0.1685
    1CHL1   H3'    4   4.505   0.595  10.224 -1.7208  0.9365  0.2569
    1CHL1    C4    5   4.576   0.569   9.991  0.6009 -0.2530  0.4302
    1CHL1   H4A    6   4.573   0.678  10.013  0.0051  0.1704 -1.5174
    1CHL1   H4B    7   4.678   0.533  10.018  1.0724  0.6661 -0.0805
    1CHL1    C5    8   4.546   0.556   9.836  0.1225  0.9787  0.0182
    1CHL1    C6    9   4.646   0.526   9.753  0.2579  0.1445 -0.3103
    1CHL1    H6   10   4.751   0.523   9.788  0.0469 -2.5282  0.2780
    1CHL1    C7   11   4.622   0.515   9.606  0.5759  0.5724 -0.1608
    1CHL1   H7A   12   4.698   0.549   9.532  1.6704 -1.5575 -0.1030
    1CHL1   H7B   13   4.613   0.407   9.584  0.6315  0.4509  0.3933
    1CHL1    C8   14   4.487   0.574   9.564  0.4969  0.4076 -0.5606
    1CHL1    H8   15   4.505   0.683   9.576  0.7596  0.4225 -1.0498
    1CHL1   C14   16   4.445   0.537   9.428  0.4653 -0.1814  0.2761
    1CHL1   H14   17   4.424   0.428   9.439  0.3495 -0.1395  0.4620
    1CHL1   C15   18   4.547   0.553   9.315 -0.0974 -0.6303 -0.0271
    1CHL1  H15A   19   4.618   0.636   9.334 -0.8471  0.1412 -0.5639
    1CHL1  H15B   20   4.603   0.456   9.315 -0.5630 -0.9307  1.5919
    1CHL1   C16   21   4.467   0.560   9.187 -0.1705 -0.2709  1.2335
    1CHL1  H16A   22   4.492   0.649   9.126 -1.5528  1.8559  3.5877
    1CHL1  H16B   23   4.496   0.478   9.118  1.4894  0.1630  1.3682
    1CHL1   C17   24   4.319   0.555   9.230 -0.3799 -0.3822 -0.5583
    1CHL1   H17   25   4.277   0.452   9.224 -1.3111 -0.0558  0.1516
    1CHL1   C13   26   4.318   0.599   9.375  0.8697 -0.4806 -0.7593
    1CHL1   C18   27   4.334   0.756   9.368 -0.3573 -0.7392 -0.6879
    1CHL1  H18A   28   4.417   0.784   9.300  0.8598  0.0817  1.0422
    1CHL1  H18B   29   4.236   0.802   9.342 -0.1649  0.3220  0.3711
    1CHL1  H18C   30   4.367   0.795   9.467 -1.1593 -1.8142  0.0326
    1CHL1   C12   31   4.198   0.551   9.460 -0.2327  0.1893 -0.6031
    1CHL1  H12A   32   4.103   0.588   9.415 -1.0386  0.6841  1.4073
    1CHL1  H12B   33   4.196   0.441   9.452 -3.0248  0.0950  0.4208
    1CHL1   C11   34   4.233   0.578   9.609  0.1992  0.8991  0.2386
    1CHL1  H11A   35   4.227   0.688   9.618 -2.4204  0.9695 -1.3163
    1CHL1  H11B   36   4.148   0.544   9.673 -1.5795  0.6256 -2.1356
    1CHL1    C9   37   4.372   0.532   9.660 -0.1265 -0.9796  0.4067
    1CHL1    H9   38   4.371   0.421   9.653 -3.0791 -1.0835  0.9449
    1CHL1   C10   39   4.399   0.576   9.806 -0.6788  0.3910  0.1173
    1CHL1   C19   40   4.381   0.730   9.827  1.0084  0.1701 -0.4457
    1CHL1  H19A   41   4.446   0.781   9.754  0.5959 -1.6670 -2.1851
    1CHL1  H19B   42   4.275   0.763   9.823  1.2900  1.4558  1.4018
    1CHL1  H19C   43   4.405   0.771   9.927  1.3957  0.0922 -0.5058
    1CHL1    C1   44   4.302   0.502   9.897 -0.5466  0.2078  1.1440
    1CHL1   H1A   45   4.196   0.529   9.876 -0.4605  0.0580  0.4934
    1CHL1   H1B   46   4.316   0.393   9.884  0.5127  0.6251 -2.4891
    1CHL1    C2   47   4.332   0.509  10.048  0.1490  0.2372 -0.0319
    1CHL1   H2A   48   4.274   0.436  10.108  0.4161 -1.9317 -2.2566
    1CHL1   H2B   49   4.311   0.613  10.081 -1.6740  0.4519 -1.6957
    1CHL1   C20   50   4.232   0.628   9.124 -1.1581  0.2857  0.0700
    1CHL1   H20   51   4.251   0.737   9.112 -3.0149  0.5488 -0.8211
    1CHL1   C21   52   4.084   0.604   9.155 -0.6307 -0.5171  0.1682
    1CHL1  H21A   53   4.052   0.666   9.241  0.0272  1.5219 -0.9776
    1CHL1  H21B   54   4.060   0.496   9.166 -0.3533 -0.6455 -0.4282
    1CHL1  H21C   55   4.006   0.640   9.084  1.0931  0.8077 -1.1443
    1CHL1   C22   56   4.259   0.583   8.978  0.1834 -0.7714 -0.1299
    1CHL1  H22A   57   4.365   0.607   8.954  0.0510 -0.2318 -0.1869
    1CHL1  H22B   58   4.248   0.473   8.970  0.9038 -0.7013 -2.8581
    1CHL1   C23   59   4.164   0.651   8.877  0.1442 -0.6115 -0.4768
    1CHL1  H23A   60   4.061   0.612   8.885  0.7566 -2.4710 -0.9895
    1CHL1  H23B   61   4.172   0.762   8.879  0.8478 -0.6684  0.3574
    1CHL1   C24   62   4.197   0.607   8.732 -0.1377 -0.3163  0.3710
    1CHL1  H24A   63   4.307   0.616   8.719 -0.0759 -0.8024  0.5380
    1CHL1  H24B   64   4.158   0.504   8.717 -2.0867  0.2080  1.5426
    1CHL1   C25   65   4.134   0.696   8.621  0.3665  0.0660  0.4304
    1CHL1   H25   66   4.023   0.696   8.628  0.3834  1.0816  0.8674
    1CHL1   C26   67   4.182   0.841   8.626  0.1245  0.2748  0.3067
    1CHL1  H26A   68   4.144   0.898   8.538 -1.5671 -0.7046  0.3613
    1CHL1  H26B   69   4.152   0.902   8.713  0.3222  1.2478 -0.2917
    1CHL1  H26C   70   4.292   0.826   8.619  0.7769  4.1701  0.2816
    1CHL1   C27   71   4.156   0.638   8.483 -0.4316  0.0309 -0.1651
    1CHL1  H27A   72   4.263   0.658   8.458 -0.6486  2.3343  0.4301
    1CHL1  H27B   73   4.131   0.530   8.479  0.1672 -0.0803 -1.5595
    1CHL1  H27C   74   4.091   0.695   8.413  2.4140 -0.6842 -3.6897
    2CHL1    C3   75   5.938   5.196  10.191 -0.1922 -0.7135  0.6094
    2CHL1    H3   76   5.985   5.096  10.188 -1.1029 -1.2409  2.3740
    2CHL1    O3   77   5.942   5.229  10.326  0.0716 -0.1426 -0.0900
    2CHL1   H3'   78   5.851   5.224  10.355 -0.1707  0.7918 -0.6482
    2CHL1    C4   79   6.009   5.299  10.105 -0.2072 -0.3401  0.1293
    2CHL1   H4A   80   5.947   5.389  10.123  0.6861  0.4651 -0.6486
    2CHL1   H4B   81   6.107   5.325  10.152 -1.5315  0.4247  2.6203
    2CHL1    C5   82   6.008   5.257   9.959  0.0140 -0.4686  0.7780
    2CHL1    C6   83   6.121   5.236   9.889 -0.1937 -0.0394 -0.8112
    2CHL1    H6   84   6.221   5.249   9.933 -0.0926 -1.9040 -0.3897
    2CHL1    C7   85   6.122   5.215   9.741  0.1378 -0.4544  0.2531
    2CHL1   H7A   86   6.198   5.283   9.697  0.3984 -1.8670 -1.6123
    2CHL1   H7B   87   6.146   5.110   9.714 -1.3425 -0.8162  0.2391
    2CHL1    C8   88   5.980   5.246   9.674  0.1339  0.0890 -0.2593
    2CHL1    H8   89   5.976   5.357   9.671 -2.2862  0.0252 -1.8675
    2CHL1   C14   90   5.967   5.200   9.536 -0.0683 -0.6289  0.4907
    2CHL1   H14   91   5.980   5.089   9.539  0.7542 -0.6323 -1.6391
    2CHL1   C15   92   6.072   5.253   9.438 -0.2259  0.8395 -0.1057
    2CHL1  H15A   93   6.078   5.363   9.429 -0.1192  0.7491 -1.3763
    2CHL1  H15B   94   6.169   5.201   9.453  0.2282  1.7838  0.3022
    2CHL1   C16   95   6.016   5.219   9.299 -0.1198 -0.3232 -1.0762
    2CHL1  H16A   96   6.016   5.306   9.230  2.0727  0.8936  0.3040
    2CHL1  H16B   97   6.056   5.129   9.248 -0.3028 -0.7189 -0.5282
    2CHL1   C17   98   5.861   5.191   9.322 -0.1438  0.2932  0.0020
    2CHL1   H17   99   5.862   5.081   9.309  0.9506  0.2748  0.2188
    2CHL1   C13  100   5.834   5.219   9.474 -0.3385 -0.0582  0.7661
    2CHL1   C18  101   5.790   5.367   9.477  0.0426  0.0265 -0.3218
    2CHL1  H18A  102   5.686   5.378   9.438 -0.3701  0.7433  0.9122
    2CHL1  H18B  103   5.771   5.392   9.584 -0.5588 -1.0839 -0.1564
    2CHL1  H18C  104   5.863   5.433   9.426 -0.7997  1.5084  0.2909
    2CHL1   C12  105   5.729   5.137   9.552  0.8014  0.4386 -0.6253
    2CHL1  H12A  106   5.631   5.161   9.506  1.0204  0.3349 -1.1503
    2CHL1  H12B  107   5.747   5.029   9.532 -1.0047  0.3910 -2.3674
    2CHL1   C11  108   5.722   5.171   9.702 -0.2371 -0.0503 -0.4037
    2CHL1  H11A  109   5.657   5.261   9.710 -0.9419 -0.3395 -2.3581
    2CHL1  H11B  110   5.671   5.087   9.755  1.9154 -1.8128 -1.0036
    2CHL1    C9  111   5.868   5.186   9.764  0.4532  0.5994 -0.0797
    2CHL1    H9  112   5.902   5.080   9.769  0.3573  0.5285 -0.7223
    2CHL1   C10  113   5.863   5.243   9.907 -0.0124  0.2141  0.1831
    2CHL1   C19  114   5.800   5.387   9.904 -0.0266 -0.0260  0.1692
    2CHL1  H19A  115   5.693   5.386   9.876  0.6301  0.5782 -2.6680
    2CHL1  H19B  116   5.793   5.414  10.012 -2.0882 -0.4998  0.2026
    2CHL1  H19C  117   5.860   5.461   9.848  2.4919  0.1355  2.8642
    2CHL1    C1  118   5.788   5.140   9.999  0.1980 -0.3677 -0.6045
    2CHL1   H1A  119   5.680   5.145   9.976  0.2522  0.7355 -0.6571
    2CHL1   H1B  120   5.821   5.035   9.986  0.3028 -0.8773  2.9590
    2CHL1    C2  121   5.789   5.179  10.150 -0.1193  0.3342 -0.6320
    2CHL1   H2A  122   5.745   5.096  10.208  2.1192 -1.9842 -2.0422
    2CHL1   H2B  123   5.742   5.279  10.159  1.4031  0.9881  0.3951
    2CHL1   C20  124   5.774   5.251   9.205 -0.1848  0.2839 -0.7875
    2CHL1   H20  125   5.766   5.360   9.220 -0.5461  0.2496 -0.7109
    2CHL1   C21  126   5.634   5.187   9.228  0.6090  0.5816 -0.1096
    2CHL1  H21A  127   5.652   5.077   9.234 -2.8919 -0.2197 -1.7053
    2CHL1  H21B  128   5.567   5.221   9.146  0.7103  1.9622  0.3539
    2CHL1  H21C  129   5.588   5.218   9.324  1.3030 -0.4120  0.5703
    2CHL1   C22  130   5.828   5.239   9.059 -0.1089  0.0059 -0.1869
    2CHL1  H22A  131   5.939   5.242   9.059 -0.0976 -0.0699 -0.8825
    2CHL1  H22B  132   5.792   5.139   9.024 -0.6499  0.0347  0.2651
    2CHL1   C23  133   5.776   5.347   8.957 -0.6504  0.6894  0.0940
    2CHL1  H23A  134   5.666   5.336   8.947 -0.4404 -0.0782 -1.8542
    2CHL1  H23B  135   5.786   5.446   9.006  1.4068  0.6462 -0.1242
    2CHL1   C24  136   5.840   5.345   8.820  0.8208 -0.4922 -0.1135
    2CHL1  H24A  137   5.828   5.246   8.772  1.9174 -0.6578 -0.0814
    2CHL1  H24B  138   5.788   5.419   8.755  1.2251  0.5497  0.7036
    2CHL1   C25  139   5.990   5.379   8.813  0.2680  0.3165  0.3000
    2CHL1   H25  140   6.034   5.316   8.894 -0.1657 -0.4124 -0.0287
    2CHL1   C26  141   6.069   5.343   8.690  0.4865 -1.0695 -0.4589
    2CHL1  H26A  142   6.176   5.366   8.713  0.0576 -0.2392  0.8537
    2CHL1  H26B  143   6.066   5.236   8.661 -0.0005 -0.7247 -1.7151
    2CHL1  H26C  144   6.045   5.405   8.601  0.8661  0.6624  0.5965
    2CHL1   C27  145   6.014   5.526   8.838 -0.4237 -0.3136  0.2059
    2CHL1  H27A  146   5.952   5.571   8.919  1.5308  1.1142  1.0083
    2CHL1  H27B  147   6.114   5.543   8.883 -0.3701 -0.7459  0.2556
    2CHL1  H27C  148   5.998   5.584   8.745 -0.7783 -0.3587  0.2384
    3CHL1    C3  149   1.344   3.423  10.124  0.9172 -0.0782 -0.1389
    3CHL1    H3  150   1.355   3.531  10.150  1.1349 -0.3268  0.8710
    3CHL1    O3  151   1.325   3.368  10.254  0.7688 -0.0706 -0.9335
    3CHL1   H3'  152   1.235   3.335  10.258  0.5570  0.4489 -1.4157
    3CHL1    C4  153   1.212   3.386  10.047  0.0874 -0.3132  0.5443
    3CHL1   H4A  154   1.208   3.276  10.034  3.4428 -0.4718  0.1871
    3CHL1   H4B  155   1.117   3.418  10.096 -1.6978 -1.9801 -1.6393
    3CHL1    C5  156   1.202   3.435   9.904 -0.3453 -0.6509  0.4797
    3CHL1    C6  157   1.105   3.522   9.861 -0.8919  0.0304  0.4942
    3CHL1    H6  158   1.021   3.549   9.926 -1.6641  1.7753 -1.1220
    3CHL1    C7  159   1.116   3.584   9.722 -0.2853  0.3005 -0.4968
    3CHL1   H7A  160   1.014   3.591   9.678 -0.9598 -1.2167  0.7019
    3CHL1   H7B  161   1.151   3.688   9.734 -1.5820  0.6830  0.2132
    3CHL1    C8  162   1.213   3.516   9.630 -1.0653 -1.0958  0.2654
    3CHL1    H8  163   1.175   3.417   9.597 -0.4149 -1.2901  0.0730
    3CHL1   C14  164   1.238   3.606   9.508  0.1132  0.7136  0.2326
    3CHL1   H14  165   1.291   3.692   9.553  1.1759 -1.0531  2.5454
    3CHL1   C15  166   1.114   3.656   9.424 -0.8727 -0.0225  1.0980
    3CHL1  H15A  167   1.035   3.582   9.398  0.1411  0.4004 -4.2139
    3CHL1  H15B  168   1.066   3.739   9.481  1.7257  1.9197  0.6055
    3CHL1   C16  169   1.170   3.717   9.293 -0.3002 -0.3616 -0.0499
    3CHL1  H16A  170   1.104   3.690   9.208 -0.4577  0.4582 -0.1984
    3CHL1  H16B  171   1.163   3.828   9.291  1.8377 -0.1812 -1.4755
    3CHL1   C17  172   1.323   3.675   9.290  0.8080  0.7992 -0.9071
    3CHL1   H17  173   1.366   3.759   9.349 -0.6650  2.1288 -1.6393
    3CHL1   C13  174   1.337   3.550   9.395  0.5596  0.0065 -0.1539
    3CHL1   C18  175   1.279   3.423   9.338 -0.4447 -0.1446 -0.0668
    3CHL1  H18A  176   1.352   3.404   9.256  2.2201 -0.7531  2.3065
    3CHL1  H18B  177   1.288   3.336   9.406  0.2668 -2.5893 -3.0219
    3CHL1  H18C  178   1.174   3.424   9.301 -0.4768  0.8722  0.0258
    3CHL1   C12  179   1.473   3.529   9.465  0.7328 -0.5775  0.4796
    3CHL1  H12A  180   1.554   3.492   9.399 -0.1775  0.5072 -1.3317
    3CHL1  H12B  181   1.512   3.631   9.487  1.7524 -0.7806 -0.2766
    3CHL1   C11  182   1.462   3.458   9.598 -0.1871 -0.1071  0.3763
    3CHL1  H11A  183   1.451   3.351   9.571  0.5536 -0.4521  1.3711
    3CHL1  H11B  184   1.562   3.461   9.648  0.1480 -1.4093 -0.1753
    3CHL1    C9  185   1.349   3.496   9.697  0.5709  0.2748  0.3853
    3CHL1    H9  186   1.375   3.599   9.730  0.4244  1.0232 -1.7370
    3CHL1   C10  187   1.338   3.413   9.832 -0.4624  0.1452 -0.6338
    3CHL1   C19  188   1.343   3.265   9.808  0.8768 -0.1410 -0.3551
    3CHL1  H19A  189   1.439   3.244   9.758  0.5014  0.2121 -1.2466
    3CHL1  H19B  190   1.341   3.201   9.899  1.4212  1.0037  0.4792
    3CHL1  H19C  191   1.254   3.239   9.746 -1.1047  1.1049  1.7614
    3CHL1    C1  192   1.475   3.444   9.916  1.1469 -0.5989  0.5763
    3CHL1   H1A  193   1.566   3.396   9.874  1.7938 -1.4585  2.8209
    3CHL1   H1B  194   1.477   3.555   9.923 -2.4830 -0.2653 -1.2062
    3CHL1    C2  195   1.470   3.385  10.053 -0.0541 -0.3591  0.3110
    3CHL1   H2A  196   1.566   3.408  10.104  1.1394 -1.4092 -1.3690
    3CHL1   H2B  197   1.464   3.274  10.047  2.3186 -0.4835 -0.9812
    3CHL1   C20  198   1.394   3.670   9.152 -0.3838  0.8087 -1.1989
    3CHL1   H20  199   1.403   3.564   9.120  1.5896  1.0080 -1.4149
    3CHL1   C21  200   1.538   3.715   9.184  0.8787  0.1167  0.0335
    3CHL1  H21A  201   1.614   3.701   9.104 -0.9827 -1.6525 -1.5338
    3CHL1  H21B  202   1.590   3.670   9.271  0.6768 -0.8913 -0.3569
    3CHL1  H21C  203   1.531   3.823   9.206 -0.7456  0.3141 -1.2578
    3CHL1   C22  204   1.334   3.759   9.043 -0.8890  0.4443 -0.9921
    3CHL1  H22A  205   1.223   3.757   9.051 -0.8628 -0.9385 -0.6252
    3CHL1  H22B  206   1.350   3.862   9.083 -1.9715  0.3629 -0.2973
    3CHL1   C23  207   1.387   3.760   8.896 -0.3813  0.6838 -0.6082
    3CHL1  H23A  208   1.497   3.763   8.901 -0.3880  0.4570 -0.2607
    3CHL1  H23B  209   1.360   3.666   8.843  0.1250  0.4094 -0.3763
    3CHL1   C24  210   1.345   3.877   8.813  0.3298 -0.7048 -0.4979
    3CHL1  H24A  211   1.234   3.878   8.809  0.3302 -0.4440 -0.4657
    3CHL1  H24B  212   1.382   3.971   8.859  0.4121 -0.0697 -1.8180
    3CHL1   C25  213   1.385   3.876   8.659 -0.2246  0.3000 -0.7909
    3CHL1   H25  214   1.495   3.858   8.658 -0.1982 -0.1225  1.8155
    3CHL1   C26  215   1.323   3.747   8.592  0.3024  0.4129 -0.0674
    3CHL1  H26A  216   1.214   3.757   8.611  0.3399  0.5785  0.0637
    3CHL1  H26B  217   1.348   3.743   8.484  0.8404 -0.7813  0.0767
    3CHL1  H26C  218   1.344   3.650   8.644 -1.6499  0.3179  0.6271
    3CHL1   C27  219   1.341   4.001   8.590  0.3747 -0.6730 -0.0181
    3CHL1  H27A  220   1.381   4.002   8.487 -0.4082 -0.3362 -0.3296
    3CHL1  H27B  221   1.232   4.017   8.573  0.2086  0.2503  1.7135
    3CHL1  H27C  222   1.374   4.087   8.651  0.1303 -1.7244  1.6801
    4CHL1    C3  223   5.761   6.302  10.630 -0.2861 -0.7514  0.1755
    4CHL1    H3  224   5.696   6.386  10.597  1.0582  0.5174  0.6661
    4CHL1    O3  225   5.745   6.306  10.773 -0.5801  0.0156  0.4801
    4CHL1   H3'  226   5.834   6.281  10.798 -0.3154  2.3021  2.1310
    4CHL1    C4  227   5.716   6.171  10.572  0.5254  0.1999 -1.1716
    4CHL1   H4A  228   5.789   6.101  10.617  1.2132  1.8986  0.4612
    4CHL1   H4B  229   5.616   6.148  10.616  1.2760  2.2974  1.9542
    4CHL1    C5  230   5.728   6.168  10.421  0.5835 -0.6138  0.8805
    4CHL1    C6  231   5.626   6.134  10.343 -0.1597  0.2324 -0.2302
    4CHL1    H6  232   5.534   6.095  10.388  1.0851 -0.4590  1.8656
    4CHL1    C7  233   5.620   6.134  10.193  0.4781 -0.1535 -0.5302
    4CHL1   H7A  234   5.577   6.042  10.149  0.5431  0.3005 -1.5803
    4CHL1   H7B  235   5.550   6.214  10.162  0.9745  1.9523  3.2164
    4CHL1    C8  236   5.763   6.161  10.136 -0.1004  0.4661 -0.1422
    4CHL1    H8  237   5.820   6.066  10.147  0.5249  0.9434  0.8757
    4CHL1   C14  238   5.763   6.199   9.988 -0.2487 -0.5082  0.0528
    4CHL1   H14  239   5.700   6.290   9.978  0.7453  0.4797  2.0883
    4CHL1   C15  240   5.713   6.087   9.900 -0.5360  0.2053  0.2210
    4CHL1  H15A  241   5.760   5.990   9.923  0.1593  0.3940 -0.3698
    4CHL1  H15B  242   5.602   6.077   9.897 -0.4908 -0.1708 -1.6540
    4CHL1   C16  243   5.755   6.134   9.757 -0.7524  0.3978  0.3699
    4CHL1  H16A  244   5.788   6.049   9.693 -1.1935  1.0652 -0.7696
    4CHL1  H16B  245   5.667   6.178   9.706 -0.5717 -0.1495 -0.4350
    4CHL1   C17  246   5.859   6.243   9.778  0.2550  0.1333  0.8166
    4CHL1   H17  247   5.800   6.337   9.768 -1.9182 -1.0563  1.7014
    4CHL1   C13  248   5.900   6.233   9.923  0.6192 -0.1526 -0.1382
    4CHL1   C18  249   5.998   6.115   9.938  0.0570 -0.0545  0.0797
    4CHL1  H18A  250   5.966   6.032   9.872 -0.1520 -0.4536  0.6722
    4CHL1  H18B  251   6.099   6.156   9.916 -1.4366  3.8299 -0.3899
    4CHL1  H18C  252   5.992   6.081  10.043 -0.3781  1.0514  0.4309
    4CHL1   C12  253   5.951   6.355   9.992 -0.1452 -0.3244 -0.5434
    4CHL1  H12A  254   6.045   6.399   9.951  0.3748 -1.2386 -0.3625
    4CHL1  H12B  255   5.870   6.429   9.978 -1.4460 -1.4666  0.5873
    4CHL1   C11  256   5.968   6.329  10.144  1.2142  0.3486  0.5516
    4CHL1  H11A  257   6.062   6.274  10.164  2.1869  2.4930  2.4264
    4CHL1  H11B  258   5.983   6.436  10.174 -2.2423  1.6207 -1.6549
    4CHL1    C9  259   5.841   6.264  10.217  0.3813 -0.2295  0.5684
    4CHL1    H9  260   5.769   6.349  10.217  0.3606 -0.2131 -0.8359
    4CHL1   C10  261   5.862   6.219  10.361  0.2108 -0.3448  0.7707
    4CHL1   C19  262   5.972   6.110  10.361  0.1585  0.1915 -0.6130
    4CHL1  H19A  263   6.074   6.137  10.325 -0.2992  0.8127 -1.4932
    4CHL1  H19B  264   6.004   6.074  10.461  1.6781 -2.5204 -1.9331
    4CHL1  H19C  265   5.938   6.021  10.302  1.3693 -1.5612  1.1940
    4CHL1    C1  266   5.915   6.335  10.442  0.0116  0.1975 -0.2883
    4CHL1   H1A  267   6.020   6.354  10.410  0.7081 -1.7112  0.7156
    4CHL1   H1B  268   5.850   6.424  10.427 -0.7122 -0.2214  0.2728
    4CHL1    C2  269   5.905   6.328  10.595 -0.3832 -0.4817  0.3381
    4CHL1   H2A  270   5.940   6.428  10.631  1.6065 -0.8375 -0.4802
    4CHL1   H2B  271   5.979   6.251  10.627  0.6733 -0.0499 -0.9468
    4CHL1   C20  272   5.967   6.232   9.669  0.5487 -0.3440  0.3193
    4CHL1   H20  273   6.011   6.130   9.671  0.0916 -0.7929 -3.9789
    4CHL1   C21  274   6.075   6.345   9.679 -0.0438  0.1106  0.0046
    4CHL1  H21A  275   6.023   6.443   9.680 -1.4671 -0.6315  0.1435
    4CHL1  H21B  276   6.143   6.339   9.591 -0.3035  0.0595 -0.1943
    4CHL1  H21C  277   6.129   6.337   9.776 -0.9749  1.9424  0.7269
    4CHL1   C22  278   5.913   6.242   9.520 -0.1776 -0.5278 -0.0888
    4CHL1  H22A  279   5.823   6.182   9.496  0.6268 -2.1726  0.8383
    4CHL1  H22B  280   5.869   6.344   9.513  0.9873  0.0836  1.1287
    4CHL1   C23  281   6.014   6.204   9.412  0.3251  0.5541  0.5992
    4CHL1  H23A  282   6.102   6.271   9.414 -0.5208  1.6921  0.6298
    4CHL1  H23B  283   6.056   6.103   9.433 -0.0200 -0.1266 -1.6842
    4CHL1   C24  284   5.957   6.214   9.271 -0.3760  0.3811 -0.1946
    4CHL1  H24A  285   5.868   6.148   9.257 -0.3118  0.3575 -0.5109
    4CHL1  H24B  286   5.931   6.320   9.251  3.9453  1.4594 -1.0398
    4CHL1   C25  287   6.048   6.180   9.153  0.8985 -0.6013 -0.1919
    4CHL1   H25  288   6.071   6.072   9.168  0.7671 -0.5550  0.3426
    4CHL1   C26  289   5.972   6.210   9.019  0.1122  0.0066 -0.3067
    4CHL1  H26A  290   6.027   6.188   8.925 -0.2242 -1.3676 -0.2100
    4CHL1  H26B  291   5.876   6.154   9.023  0.6601 -0.9028  2.0083
    4CHL1  H26C  292   5.938   6.315   9.013  1.8373  0.6558  0.6208
    4CHL1   C27  293   6.178   6.261   9.153 -0.3875  0.3219 -0.2401
    4CHL1  H27A  294   6.238   6.232   9.064  1.9042  0.2866  1.2107
    4CHL1  H27B  295   6.173   6.370   9.134  0.7886  0.0330 -2.4798
    4CHL1  H27C  296   6.251   6.247   9.237 -0.1021  1.9114 -0.1987
    5CHL1    C3  297   0.148   3.849  10.087  0.1176 -0.4426 -1.0090
    5CHL1    H3  298   0.137   3.742  10.060  1.2568 -0.4810 -1.3666
    5CHL1    O3  299   0.133   3.863  10.232  0.6910 -0.2559  0.1871
    5CHL1   H3'  300   0.105   3.954  10.241  0.6555  0.0878 -2.5388
    5CHL1    C4  301   0.283   3.905  10.039 -0.3926 -0.3929  0.1449
    5CHL1   H4A  302   0.308   4.006  10.077  1.9524 -0.6359 -0.5432
    5CHL1   H4B  303   0.361   3.838  10.082  1.1072  0.2266 -1.5029
    5CHL1    C5  304   0.297   3.899   9.885  0.3160 -0.2550 -0.8501
    5CHL1    C6  305   0.395   3.834   9.828 -0.5085  0.8267 -0.1556
    5CHL1    H6  306   0.473   3.788   9.891 -1.0040 -1.2246 -0.9430
    5CHL1    C7  307   0.412   3.817   9.686  0.4454 -0.1325  0.7193
    5CHL1   H7A  308   0.520   3.823   9.658 -0.1546 -0.5978 -2.0607
    5CHL1   H7B  309   0.384   3.709   9.678  0.3945 -0.2033  1.8070
    5CHL1    C8  310   0.319   3.913   9.598 -0.2906 -0.2051 -0.3691
    5CHL1    H8  311   0.360   4.016   9.602 -2.1055  0.5135  0.7216
    5CHL1   C14  312   0.306   3.866   9.450  0.3219 -0.7900 -0.0356
    5CHL1   H14  313   0.284   3.758   9.465 -0.4966 -0.5802  0.3053
    5CHL1   C15  314   0.434   3.891   9.364  0.2680  0.9555  0.3210
    5CHL1  H15A  315   0.468   3.994   9.388 -2.6562  2.2366 -0.5179
    5CHL1  H15B  316   0.519   3.819   9.369 -1.3364 -0.9504  3.2720
    5CHL1   C16  317   0.386   3.867   9.218 -0.5816  1.2851 -0.5094
    5CHL1  H16A  318   0.421   3.945   9.148 -1.5606  0.6731 -1.7172
    5CHL1  H16B  319   0.420   3.771   9.173 -0.7270  0.8983  0.1853
    5CHL1   C17  320   0.229   3.870   9.221 -0.1910 -0.0209  0.1413
    5CHL1   H17  321   0.199   3.763   9.220  0.4418 -0.2171 -1.6424
    5CHL1   C13  322   0.198   3.933   9.364 -0.4037  0.0830  0.0865
    5CHL1   C18  323   0.221   4.085   9.352  0.0735 -0.0053 -0.3935
    5CHL1  H18A  324   0.243   4.120   9.455  0.3699 -1.1545 -0.0525
    5CHL1  H18B  325   0.308   4.116   9.290  1.0426 -0.0527  0.9001
    5CHL1  H18C  326   0.137   4.134   9.299 -0.3980 -0.8125 -0.4032
    5CHL1   C12  327   0.067   3.913   9.428  0.0669  0.1196 -0.7890
    5CHL1  H12A  328  -0.007   3.962   9.361  0.9752  1.2546 -0.9990
    5CHL1  H12B  329   0.051   3.804   9.438  1.3399  0.0807  1.8787
    5CHL1   C11  330   0.075   3.972   9.569  0.5747  0.5194  0.0136
    5CHL1  H11A  331   0.081   4.083   9.569 -1.6106  0.6709  0.3144
    5CHL1  H11B  332  -0.028   3.952   9.605  0.5417 -0.0688 -0.3952
    5CHL1    C9  333   0.180   3.909   9.658  0.0778 -0.0328  0.8275
    5CHL1    H9  334   0.161   3.800   9.667  0.4784 -0.3012 -1.1561
    5CHL1   C10  335   0.182   3.953   9.808 -0.1626 -0.6692  0.1485
    5CHL1   C19  336   0.193   4.114   9.819  0.3876 -0.0905 -0.6677
    5CHL1  H19A  337   0.279   4.149   9.757  1.7355 -1.3102  0.4625
    5CHL1  H19B  338   0.100   4.171   9.797  0.3122  1.7415  3.4882
    5CHL1  H19C  339   0.202   4.134   9.928  1.3775  2.3085 -1.1175
    5CHL1    C1  340   0.049   3.906   9.872  0.4505 -0.5866  0.3616
    5CHL1   H1A  341  -0.040   3.941   9.815 -0.2272 -0.0621  1.6950
    5CHL1   H1B  342   0.041   3.795   9.867 -2.1250 -0.4207 -1.3360
    5CHL1    C2  343   0.034   3.928  10.019  0.0421 -0.0887  0.3147
    5CHL1   H2A  344  -0.068   3.893  10.046  1.2141 -1.4653  3.3488
    5CHL1   H2B  345   0.047   4.037  10.036  1.6754 -0.3546  0.9558
    5CHL1   C20  346   0.173   3.941   9.097 -0.1296  0.1021  0.1970
    5CHL1   H20  347   0.208   4.045   9.081 -1.7200  0.1772 -4.2720
    5CHL1   C21  348   0.023   3.953   9.100  0.4583 -0.6661 -0.6066
    5CHL1  H21A  349  -0.026   3.861   9.140 -1.6733  0.8616  0.4584
    5CHL1  H21B  350  -0.017   3.982   9.000  1.1527 -1.9978 -1.3077
    5CHL1  H21C  351  -0.001   4.022   9.183  2.6779  1.4303 -1.5635
    5CHL1   C22  352   0.214   3.866   8.966  0.2912 -0.1221 -0.4127
    5CHL1  H22A  353   0.192   3.757   8.966  1.3226 -0.3597  0.9258
    5CHL1  H22B  354   0.145   3.910   8.892 -0.5685 -1.3362 -0.3563
    5CHL1   C23  355   0.350   3.908   8.903 -0.0722  0.3352  0.4209
    5CHL1  H23A  356   0.370   4.013   8.934 -2.0754  0.3701  1.7804
    5CHL1  H23B  357   0.433   3.843   8.938 -0.7662 -0.0819  1.3293
    5CHL1   C24  358   0.354   3.897   8.744 -0.1326 -0.2062 -0.1155
    5CHL1  H24A  359   0.364   3.790   8.716  1.7099 -0.0460 -0.1629
    5CHL1  H24B  360   0.254   3.926   8.705 -0.3158 -0.9020 -0.1736
    5CHL1   C25  361   0.463   3.976   8.675 -0.6379 -0.9967  0.6354
    5CHL1   H25  362   0.445   4.083   8.698  0.2851 -0.9537  1.2075
    5CHL1   C26  363   0.601   3.944   8.723 -0.3308 -0.4384  0.3339
    5CHL1  H26A  364   0.604   3.968   8.831 -1.2783  1.7964 -0.0686
    5CHL1  H26B  365   0.633   3.839   8.704 -0.1398  0.1072 -2.8995
    5CHL1  H26C  366   0.687   4.001   8.682 -1.5956  1.9106  0.7674
    5CHL1   C27  367   0.464   3.959   8.523 -0.1427  0.3341  0.0807
    5CHL1  H27A  368   0.357   3.971   8.497 -0.2287  1.1827  0.7647
    5CHL1  H27B  369   0.529   4.037   8.478  0.2321 -0.4593 -0.7616
    5CHL1  H27C  370   0.498   3.860   8.488  0.3948  0.1459  1.0757
    6CHL1    C3  371   2.800   1.075  10.462 -1.0201 -0.5086  0.4245
    6CHL1    H3  372   2.837   0.973  10.485 -2.0705 -0.2847  3.6299
    6CHL1    O3  373   2.748   1.125  10.582 -0.7215  0.4832 -0.4210
    6CHL1   H3'  374   2.654   1.107  10.589 -1.0576  2.6006  1.8230
    6CHL1    C4  375   2.916   1.157  10.416  0.2353 -0.3588 -0.1425
    6CHL1   H4A  376   2.881   1.262  10.404  2.2578  0.1169 -2.7660
    6CHL1   H4B  377   2.996   1.162  10.494 -0.6090 -0.6225  0.7536
    6CHL1    C5  378   2.970   1.108  10.283 -0.1001 -0.2507 -0.3876
    6CHL1    C6  379   3.101   1.074  10.270 -0.5596 -0.6690  0.0499
    6CHL1    H6  380   3.156   1.086  10.364 -0.5679  2.0187 -0.2231
    6CHL1    C7  381   3.166   1.051  10.138 -0.4820  0.6458 -0.1868
    6CHL1   H7A  382   3.266   1.100  10.135  0.2142 -0.6426  1.1097
    6CHL1   H7B  383   3.172   0.940  10.128  1.0403  0.3398  2.9067
    6CHL1    C8  384   3.084   1.104  10.022 -0.4732 -0.6989 -1.5381
    6CHL1    H8  385   3.074   1.213  10.041 -0.5213 -1.4164  3.8584
    6CHL1   C14  386   3.137   1.049   9.890  0.3965  0.8172  0.7761
    6CHL1   H14  387   3.137   0.938   9.898 -0.5121  0.7795  0.3081
    6CHL1   C15  388   3.293   1.069   9.858  0.2900 -0.5810  0.2483
    6CHL1  H15A  389   3.335   1.166   9.893 -1.9626  1.3051 -1.8477
    6CHL1  H15B  390   3.343   0.983   9.907  4.0950  1.6612  0.6399
    6CHL1   C16  391   3.299   1.059   9.705 -0.8364 -0.4062 -1.0783
    6CHL1  H16A  392   3.353   1.149   9.667 -1.4844  0.0232 -1.0037
    6CHL1  H16B  393   3.360   0.968   9.684 -0.7099 -0.4224 -0.6421
    6CHL1   C17  394   3.159   1.041   9.650 -0.1430  0.7538  0.0328
    6CHL1   H17  395   3.148   0.931   9.649 -1.3876  0.8547  0.5323
    6CHL1   C13  396   3.063   1.089   9.766  0.0660  0.3741  0.8159
    6CHL1   C18  397   3.062   1.242   9.766 -0.4048  0.6314 -0.5998
    6CHL1  H18A  398   2.992   1.285   9.841 -1.0118 -0.3250 -0.6023
    6CHL1  H18B  399   3.162   1.287   9.781 -1.0782  2.0684 -0.2723
    6CHL1  H18C  400   3.031   1.291   9.671  2.7966  1.5600 -1.2890
    6CHL1   C12  401   2.924   1.022   9.785 -0.0791  0.1826  0.3411
    6CHL1  H12A  402   2.860   1.024   9.695  2.9339 -1.0094 -1.9848
    6CHL1  H12B  403   2.955   0.916   9.797  0.2319  0.0963 -1.0939
    6CHL1   C11  404   2.853   1.060   9.916  0.1479 -0.0494 -0.0906
    6CHL1  H11A  405   2.830   1.168   9.908 -3.2074 -0.6589 -0.1671
    6CHL1  H11B  406   2.756   1.005   9.918  0.7895 -1.2949 -1.5856
    6CHL1    C9  407   2.941   1.040  10.043 -0.1530  0.0991  0.0718
    6CHL1    H9  408   2.943   0.932  10.069 -0.4894  0.1950  0.5035
    6CHL1   C10  409   2.876   1.111  10.171 -0.2393  0.1951  0.0449
    6CHL1   C19  410   2.828   1.248  10.137  0.4385  0.8574  0.0188
    6CHL1  H19A  411   2.898   1.317  10.085 -1.1319  1.9701 -0.7412
    6CHL1  H19B  412   2.739   1.246  10.070  0.9186  1.3681 -0.6453
    6CHL1  H19C  413   2.804   1.312  10.224  2.5383  1.4780  0.1881
    6CHL1    C1  414   2.761   1.018  10.219  0.1874 -0.2698 -0.3974
    6CHL1   H1A  415   2.686   1.018  10.137  3.0566 -1.4387 -3.2313
    6CHL1   H1B  416   2.797   0.913  10.228  0.1062 -0.1663  2.0722
    6CHL1    C2  417   2.696   1.055  10.357  0.1739  0.6912 -0.1889
    6CHL1   H2A  418   2.623   0.980  10.393 -2.0716  2.4343 -0.8901
    6CHL1   H2B  419   2.630   1.140  10.332 -1.3130 -0.6658 -1.1079
    6CHL1   C20  420   3.137   1.088   9.504 -0.0873  0.6409  0.4925
    6CHL1   H20  421   3.137   1.199   9.500 -2.2166  0.6438 -1.1328
    6CHL1   C21  422   2.993   1.050   9.445 -0.0966  0.1825  0.2207
    6CHL1  H21A  423   2.976   1.074   9.338  2.2316 -0.3484 -0.3262
    6CHL1  H21B  424   2.917   1.118   9.489 -0.3422 -0.3517  0.6301
    6CHL1  H21C  425   2.961   0.945   9.458  0.5116 -0.4985 -2.9742
    6CHL1   C22  426   3.265   1.043   9.420 -0.2279  0.7975 -0.3368
    6CHL1  H22A  427   3.361   1.087   9.454 -0.6758  1.7248 -0.2473
    6CHL1  H22B  428   3.276   0.933   9.436 -1.4423  0.5114 -1.3391
    6CHL1   C23  429   3.250   1.080   9.275  0.5921  0.4804 -0.0962
    6CHL1  H23A  430   3.150   1.054   9.234  1.7350 -1.0691 -2.1451
    6CHL1  H23B  431   3.261   1.190   9.279  3.0848  0.2679  2.1806
    6CHL1   C24  432   3.359   1.021   9.193  0.6898 -1.0342 -0.6993
    6CHL1  H24A  433   3.451   1.069   9.232 -1.8086  3.6147  0.3008
    6CHL1  H24B  434   3.360   0.913   9.218  1.0867 -1.1062 -1.0182
    6CHL1   C25  435   3.340   1.048   9.044 -0.6218 -0.2496  0.1235
    6CHL1   H25  436   3.238   1.012   9.019 -0.1575 -0.8510 -0.9378
    6CHL1   C26  437   3.373   1.199   9.001  0.5775  0.3320  0.0875
    6CHL1  H26A  438   3.477   1.222   9.032  0.9761 -0.8366 -0.3138
    6CHL1  H26B  439   3.369   1.202   8.890  0.1611 -0.8689  0.0558
    6CHL1  H26C  440   3.302   1.272   9.046 -0.0726 -0.3282  0.1520
    6CHL1   C27  441   3.453   0.964   8.977  0.2941  0.1753  0.3147
    6CHL1  H27A  442   3.460   0.993   8.869  1.4209 -2.7932 -0.5073
    6CHL1  H27B  443   3.549   0.976   9.031 -0.0501 -2.9903  1.8152
    6CHL1  H27C  444   3.424   0.857   8.987 -0.1188 -0.0240 -2.1964
    7CHL1    C3  445   1.294   6.098  10.348  0.2038  0.0523  0.0937
    7CHL1    H3  446   1.235   6.188  10.323 -1.9664 -1.5417 -0.8804
    7CHL1    O3  447   1.306   6.076  10.490  0.4155 -0.2565 -0.3407
    7CHL1   H3'  448   1.342   5.988  10.504  0.0869 -0.7462 -2.2535
    7CHL1    C4  449   1.218   5.982  10.269 -0.0223  0.9912 -0.3970
    7CHL1   H4A  450   1.260   5.885  10.302 -0.5533  0.3882 -1.4502
    7CHL1   H4B  451   1.115   5.980  10.309  0.0808  0.3446 -0.1519
    7CHL1    C5  452   1.238   5.990  10.113  0.3005  0.4034  0.0313
    7CHL1    C6  453   1.128   6.002  10.034  0.1159 -0.4707 -0.0351
    7CHL1    H6  454   1.037   6.007  10.096  0.8546  0.0236  1.0489
    7CHL1    C7  455   1.133   6.015   9.885  0.4253 -0.1106 -0.0238
    7CHL1   H7A  456   1.069   5.933   9.845 -2.0510  1.9636 -0.5841
    7CHL1   H7B  457   1.096   6.111   9.842  0.3390 -0.1760 -0.0955
    7CHL1    C8  458   1.275   5.987   9.833 -0.8950 -0.3521  0.1195
    7CHL1    H8  459   1.298   5.879   9.844  0.6765 -0.0952 -0.3150
    7CHL1   C14  460   1.287   6.031   9.696 -0.9059  0.4571  0.1819
    7CHL1   H14  461   1.266   6.140   9.701 -1.4444  0.3394  0.5308
    7CHL1   C15  462   1.186   5.972   9.594 -0.5052 -0.0552  0.0246
    7CHL1  H15A  463   1.165   5.866   9.620 -2.3096 -0.0456 -1.1691
    7CHL1  H15B  464   1.096   6.037   9.601  0.2934  1.2321 -1.1471
    7CHL1   C16  465   1.251   5.972   9.453  0.2555  0.1668 -0.1310
    7CHL1  H16A  466   1.268   5.874   9.403 -0.9902 -0.1217 -0.0223
    7CHL1  H16B  467   1.192   6.041   9.388 -3.1130 -2.2862 -0.0061
    7CHL1   C17  468   1.392   6.044   9.481 -0.1427 -0.0715  0.1792
    7CHL1   H17  469   1.360   6.149   9.491 -1.6826 -0.6051  1.2568
    7CHL1   C13  470   1.426   6.012   9.629 -0.3395 -0.5847  0.9594
    7CHL1   C18  471   1.470   5.865   9.643  0.2069  0.2124 -0.3299
    7CHL1  H18A  472   1.494   5.832   9.746 -1.6702 -1.3421 -0.3225
    7CHL1  H18B  473   1.400   5.789   9.603  0.8678 -0.1578 -0.8145
    7CHL1  H18C  474   1.565   5.856   9.585  0.6550  0.9985  0.2666
    7CHL1   C12  475   1.519   6.111   9.703  0.1510 -0.1858 -0.0532
    7CHL1  H12A  476   1.618   6.101   9.655 -0.1736  1.6755 -1.2176
    7CHL1  H12B  477   1.486   6.216   9.689 -0.3672 -0.6029 -2.4804
    7CHL1   C11  478   1.519   6.075   9.855  0.1147  0.0205 -0.4136
    7CHL1  H11A  479   1.573   5.978   9.868 -0.1257  0.3008  4.4146
    7CHL1  H11B  480   1.579   6.145   9.918  3.0363 -0.1464 -2.7841
    7CHL1    C9  481   1.380   6.063   9.917 -0.4633  0.9000 -0.2211
    7CHL1    H9  482   1.339   6.166   9.931  0.3565  1.1897  0.1198
    7CHL1   C10  483   1.385   6.004  10.062  0.2652 -0.4324  0.1095
    7CHL1   C19  484   1.462   5.870  10.076  0.5223 -0.3564  0.3377
    7CHL1  H19A  485   1.466   5.837  10.182 -0.8743  0.9638  0.8517
    7CHL1  H19B  486   1.413   5.792  10.013 -1.0504  0.5187  0.4145
    7CHL1  H19C  487   1.568   5.871  10.044  1.0943  0.4888  2.1154
    7CHL1    C1  488   1.453   6.114  10.158 -0.1071  0.4603  0.2859
    7CHL1   H1A  489   1.563   6.111  10.143  0.0834 -1.4849  1.6350
    7CHL1   H1B  490   1.408   6.209  10.124 -0.1632  0.5887  0.7188
    7CHL1    C2  491   1.442   6.106  10.311 -0.2831 -0.0806  0.3212
    7CHL1   H2A  492   1.488   6.192  10.364  0.2603 -0.3131  0.2276
    7CHL1   H2B  493   1.496   6.021  10.355 -0.0610  0.4368  1.0581
    7CHL1   C20  494   1.490   6.017   9.367 -0.1754  0.0610  0.5607
    7CHL1   H20  495   1.502   5.906   9.369 -0.9095 -0.0271  2.9077
    7CHL1   C21  496   1.633   6.081   9.396  0.3046 -0.2118  0.4191
    7CHL1  H21A  497   1.627   6.191   9.405  0.1197 -0.1220 -0.6592
    7CHL1  H21B  498   1.707   6.056   9.317 -0.7087 -2.8114  0.1743
    7CHL1  H21C  499   1.683   6.045   9.488  0.2640 -1.4718 -0.0222
    7CHL1   C22  500   1.435   6.064   9.226 -0.0472  0.3313 -0.8398
    7CHL1  H22A  501   1.334   6.030   9.195 -0.2410  0.5027 -0.3951
    7CHL1  H22B  502   1.437   6.175   9.229  2.5102  0.3957 -1.9749
    7CHL1   C23  503   1.525   6.007   9.113  0.4973 -0.4802 -0.5273
    7CHL1  H23A  504   1.624   6.055   9.124  1.5809 -2.8410  0.8312
    7CHL1  H23B  505   1.539   5.898   9.125 -0.1787 -0.3085  2.6311
    7CHL1   C24  506   1.472   6.024   8.968  0.3441  0.1310 -0.1994
    7CHL1  H24A  507   1.369   5.990   8.947 -1.1436  4.1001 -0.2491
    7CHL1  H24B  508   1.453   6.132   8.950 -0.6532 -0.0974 -0.5909
    7CHL1   C25  509   1.579   5.976   8.868  1.1245 -0.0274  0.2797
    7CHL1   H25  510   1.664   6.046   8.887 -1.0100  3.3664 -1.6794
    7CHL1   C26  511   1.632   5.826   8.883 -0.2706 -0.8736  0.5384
    7CHL1  H26A  512   1.551   5.751   8.872  1.1408 -2.1455 -1.9656
    7CHL1  H26B  513   1.694   5.807   8.793 -0.4077 -3.9955  0.9840
    7CHL1  H26C  514   1.683   5.814   8.981 -1.7331  0.1613  1.4524
    7CHL1   C27  515   1.541   5.992   8.728  0.4236 -0.2643  0.5557
    7CHL1  H27A  516   1.620   5.950   8.662 -0.1298 -1.6652  0.7548
    7CHL1  H27B  517   1.454   5.929   8.700  1.3079 -2.1307  1.7677
    7CHL1  H27C  518   1.528   6.101   8.711 -0.7840 -0.3793  0.7133
    8CHL1    C3  519   2.041   0.455  10.558  0.0857  0.7476 -0.0041
    8CHL1    H3  520   2.008   0.350  10.572  3.3990 -0.7387 -2.0062
    8CHL1    O3  521   2.030   0.522  10.681  0.5920  0.2143 -0.3308
    8CHL1   H3'  522   2.094   0.479  10.739 -0.1497 -4.0298 -2.3080
    8CHL1    C4  523   2.188   0.456  10.493 -0.5160  0.2510 -0.7393
    8CHL1   H4A  524   2.234   0.552  10.525 -0.6351  0.3542 -0.8735
    8CHL1   H4B  525   2.245   0.381  10.551  2.0524  1.8752 -1.0165
    8CHL1    C5  526   2.202   0.416  10.347 -0.6455 -0.0541  0.4936
    8CHL1    C6  527   2.273   0.315  10.299  0.3571 -0.5128 -0.3592
    8CHL1    H6  528   2.334   0.245  10.358  0.0119 -1.7766 -1.4731
    8CHL1    C7  529   2.284   0.279  10.154 -0.4504 -0.6203  0.5196
    8CHL1   H7A  530   2.391   0.263  10.127  0.1859  4.9748 -1.4939
    8CHL1   H7B  531   2.230   0.183  10.137  1.2467 -1.2199 -1.9476
    8CHL1    C8  532   2.230   0.396  10.067  0.5832 -0.7021 -0.9888
    8CHL1    H8  533   2.308   0.476  10.063 -0.9152  0.8706 -0.3437
    8CHL1   C14  534   2.213   0.348   9.924 -0.2238 -0.4271 -0.2213
    8CHL1   H14  535   2.142   0.263   9.928  0.3991 -0.9097  0.8977
    8CHL1   C15  536   2.339   0.284   9.868 -0.3974  0.1085 -0.6892
    8CHL1  H15A  537   2.433   0.339   9.889 -1.0677  0.1032  3.0686
    8CHL1  H15B  538   2.340   0.183   9.915  0.8557  1.2559  1.9186
    8CHL1   C16  539   2.310   0.277   9.715 -0.2224 -0.7663 -0.6934
    8CHL1  H16A  540   2.381   0.352   9.672 -0.4945  0.4811  0.9297
    8CHL1  H16B  541   2.310   0.175   9.670 -0.4214 -1.5609  1.0235
    8CHL1   C17  542   2.170   0.353   9.697 -0.3261  0.8040  0.4941
    8CHL1   H17  543   2.092   0.276   9.711 -0.1356  0.2139 -1.3947
    8CHL1   C13  544   2.161   0.444   9.820  0.2301  0.2022  0.1853
    8CHL1   C18  545   2.258   0.565   9.801 -0.7728  0.2062  0.1000
    8CHL1  H18A  546   2.363   0.537   9.783 -1.7993 -3.0340 -1.5722
    8CHL1  H18B  547   2.217   0.628   9.719  0.4306  0.6193 -0.1904
    8CHL1  H18C  548   2.249   0.634   9.888 -0.8851  1.4518 -0.8720
    8CHL1   C12  549   2.027   0.490   9.871  0.3839 -0.0146  0.1938
    8CHL1  H12A  550   1.992   0.574   9.806 -2.2810 -0.7488  0.5494
    8CHL1  H12B  551   1.957   0.404   9.865  0.8402 -0.3075 -1.1914
    8CHL1   C11  552   2.036   0.544  10.015  0.3157  0.1093 -0.6016
    8CHL1  H11A  553   2.087   0.642  10.016  0.9205 -0.1762 -1.6089
    8CHL1  H11B  554   1.931   0.569  10.041  0.3918  0.5149 -0.6790
    8CHL1    C9  555   2.100   0.452  10.117 -0.0436  0.1216 -1.3390
    8CHL1    H9  556   2.036   0.362  10.124  1.8245 -1.1683  0.1915
    8CHL1   C10  557   2.111   0.507  10.264  0.2165 -0.0304  0.3296
    8CHL1   C19  558   2.164   0.655  10.262 -0.0939  0.5476 -0.7500
    8CHL1  H19A  559   2.257   0.665  10.201  1.1594 -1.5545  0.7119
    8CHL1  H19B  560   2.087   0.728  10.228 -0.9890  0.5361  1.1383
    8CHL1  H19C  561   2.193   0.687  10.364 -0.2350  1.1249 -0.8854
    8CHL1    C1  562   1.966   0.497  10.316  0.4247  0.2799 -0.5908
    8CHL1   H1A  563   1.894   0.562  10.262 -1.5323  1.4874  3.1312
    8CHL1   H1B  564   1.934   0.391  10.311  0.3840  0.2894 -0.5226
    8CHL1    C2  565   1.954   0.532  10.465  0.4962 -0.3205 -0.5371
    8CHL1   H2A  566   1.850   0.517  10.502  0.8684 -1.7586 -0.0241
    8CHL1   H2B  567   1.991   0.637  10.463  0.4726 -0.3177 -2.4310
    8CHL1   C20  568   2.164   0.417   9.550 -0.9543 -0.4242 -0.2174
    8CHL1   H20  569   2.248   0.490   9.545 -1.5356  0.3104  0.3890
    8CHL1   C21  570   2.026   0.476   9.523 -0.2260 -0.0171  0.0450
    8CHL1  H21A  571   1.957   0.396   9.558  0.9866 -0.3991  1.7155
    8CHL1  H21B  572   2.017   0.507   9.417 -1.2126  0.4500  0.2534
    8CHL1  H21C  573   1.995   0.557   9.592 -4.6178 -1.6732  0.3695
    8CHL1   C22  574   2.199   0.310   9.447 -0.7117  0.8182  0.0433
    8CHL1  H22A  575   2.303   0.280   9.472 -1.1556 -0.5017  0.3669
    8CHL1  H22B  576   2.128   0.226   9.464  0.8182 -0.6245 -0.4152
    8CHL1   C23  577   2.184   0.365   9.303 -0.6931 -0.6082  0.5024
    8CHL1  H23A  578   2.082   0.398   9.275 -0.1992 -0.4445 -1.2234
    8CHL1  H23B  579   2.245   0.457   9.291 -0.8290 -0.4004  1.3078
    8CHL1   C24  580   2.232   0.262   9.205  0.4919 -0.3962  0.1172
    8CHL1  H24A  581   2.335   0.228   9.226  0.0193 -1.7258  0.4063
    8CHL1  H24B  582   2.161   0.177   9.216 -2.7873  1.8314 -1.7376
    8CHL1   C25  583   2.220   0.305   9.053  0.1994 -0.0635  1.2152
    8CHL1   H25  584   2.270   0.403   9.039  0.3101 -0.3270 -0.5456
    8CHL1   C26  585   2.303   0.215   8.954  0.4809 -0.5560 -0.1976
    8CHL1  H26A  586   2.316   0.262   8.854 -2.5360  0.3515 -0.2498
    8CHL1  H26B  587   2.407   0.199   8.991  0.5188  2.8295  1.5072
    8CHL1  H26C  588   2.246   0.121   8.941  2.3188 -1.7522  0.0550
    8CHL1   C27  589   2.074   0.327   9.014 -0.0456  0.1667  0.6308
    8CHL1  H27A  590   2.058   0.314   8.904 -2.8350  3.6937  0.4351
    8CHL1  H27B  591   2.007   0.257   9.068  1.2239 -2.3842 -0.8842
    8CHL1  H27C  592   2.040   0.432   9.030 -4.8376 -0.3131 -3.5703
    9CHL1    C3  593   2.512   4.412  10.247  0.0939  0.0286 -0.0443
    9CHL1    H3  594   2.568   4.507  10.263  0.3489  0.0008 -0.7672
    9CHL1    O3  595   2.502   4.321  10.357  0.5773 -0.5382 -0.3521
    9CHL1   H3'  596   2.465   4.242  10.318 -1.1309 -0.6053  1.2920
    9CHL1    C4  597   2.370   4.464  10.215 -0.3551 -0.1909  0.2610
    9CHL1   H4A  598   2.304   4.374  10.216  1.4463 -1.6414 -1.6656
    9CHL1   H4B  599   2.333   4.527  10.298 -0.3103 -0.2500  0.3259
    9CHL1    C5  600   2.365   4.536  10.081  0.1522 -0.2014 -0.0086
    9CHL1    C6  601   2.346   4.669  10.067  0.1934  0.2481  0.8822
    9CHL1    H6  602   2.338   4.733  10.156  0.7865  1.7873 -0.1158
    9CHL1    C7  603   2.358   4.743   9.934  0.3007  0.1814  0.1486
    9CHL1   H7A  604   2.275   4.816   9.938  0.7860  0.6887  1.7304
    9CHL1   H7B  605   2.457   4.794   9.927 -0.2542  1.0553 -2.4306
    9CHL1    C8  606   2.338   4.642   9.812  0.5079  0.6006 -0.4237
    9CHL1    H8  607   2.232   4.611   9.808  0.2158  1.0873  1.8460
    9CHL1   C14  608   2.366   4.705   9.681 -0.2345  0.1117  0.3296
    9CHL1   H14  609   2.472   4.738   9.687 -0.6107  1.1946  1.3610
    9CHL1   C15  610   2.278   4.820   9.650 -0.2432 -0.6210  0.9246
    9CHL1  H15A  611   2.175   4.795   9.683 -0.8327  1.6308  0.9857
    9CHL1  H15B  612   2.309   4.908   9.711 -2.5748  0.9225 -0.0023
    9CHL1   C16  613   2.283   4.842   9.495 -0.0553  0.6966  0.1155
    9CHL1  H16A  614   2.185   4.851   9.443  0.5903  0.1131 -1.2778
    9CHL1  H16B  615   2.350   4.928   9.475  1.9974 -0.4525  1.5772
    9CHL1   C17  616   2.365   4.714   9.449 -0.0764  0.1255 -0.2778
    9CHL1   H17  617   2.471   4.749   9.460 -0.4849  1.2904  0.1377
    9CHL1   C13  618   2.346   4.615   9.560 -0.4523 -0.2768 -0.1332
    9CHL1   C18  619   2.199   4.561   9.550 -0.5254 -0.0004 -0.7160
    9CHL1  H18A  620   2.153   4.525   9.645  0.1523 -1.6547 -0.9845
    9CHL1  H18B  621   2.118   4.632   9.524 -1.6930 -0.2102  1.9395
    9CHL1  H18C  622   2.197   4.476   9.479  3.1507  1.3466 -2.6706
    9CHL1   C12  623   2.451   4.503   9.569  0.2015 -0.3443 -0.3726
    9CHL1  H12A  624   2.457   4.424   9.491  0.3749 -1.7155  0.9777
    9CHL1  H12B  625   2.551   4.547   9.587 -0.2978  0.3094  1.0034
    9CHL1   C11  626   2.429   4.429   9.701 -0.1521  0.3629  0.4579
    9CHL1  H11A  627   2.339   4.365   9.692 -1.9412  2.6307  1.2187
    9CHL1  H11B  628   2.517   4.362   9.703 -0.5205 -0.1226  0.6326
    9CHL1    C9  629   2.437   4.525   9.827  0.1871  0.3901 -0.1403
    9CHL1    H9  630   2.536   4.577   9.831 -1.1627  3.2832 -1.5097
    9CHL1   C10  631   2.417   4.449   9.965 -0.5129 -0.4476  0.3434
    9CHL1   C19  632   2.311   4.343   9.939  0.4991  0.4289  0.4849
    9CHL1  H19A  633   2.284   4.305  10.040  1.7860 -0.3948  0.5452
    9CHL1  H19B  634   2.218   4.373   9.886  1.6005  1.6741 -0.8357
    9CHL1  H19C  635   2.356   4.260   9.882  0.3790  1.5654 -1.3494
    9CHL1    C1  636   2.561   4.406  10.002  0.1107  0.6487 -0.2439
    9CHL1   H1A  637   2.594   4.330   9.929 -1.4140  0.3224 -0.6202
    9CHL1   H1B  638   2.647   4.477  10.011  1.9672 -1.3961 -0.8986
    9CHL1    C2  639   2.575   4.330  10.132  0.1096  0.6093 -0.5577
    9CHL1   H2A  640   2.683   4.312  10.151  0.0070  1.1613  0.6151
    9CHL1   H2B  641   2.513   4.238  10.125 -0.5027  1.0844 -1.4632
    9CHL1   C20  642   2.337   4.677   9.299  0.0682  0.4644 -0.1169
    9CHL1   H20  643   2.227   4.681   9.287 -0.1232  0.5045  1.3845
    9CHL1   C21  644   2.388   4.540   9.264  0.3511  0.3100  0.6777
    9CHL1  H21A  645   2.369   4.516   9.157 -3.5904  3.1040  0.5394
    9CHL1  H21B  646   2.342   4.451   9.313  0.1396 -0.4643 -0.8729
    9CHL1  H21C  647   2.497   4.527   9.280  0.1163 -2.6703  0.4490
    9CHL1   C22  648   2.395   4.785   9.203 -0.1787 -0.2750  0.3794
    9CHL1  H22A  649   2.352   4.885   9.225  1.4232  0.3545  0.7785
    9CHL1  H22B  650   2.503   4.795   9.224  0.3447 -1.4573 -1.4949
    9CHL1   C23  651   2.390   4.763   9.050 -0.1433  0.3837 -0.4886
    9CHL1  H23A  652   2.432   4.856   9.007  1.2067  0.4311  0.8400
    9CHL1  H23B  653   2.471   4.688   9.033 -0.2611  0.0301  0.4211
    9CHL1   C24  654   2.256   4.732   8.998  0.3727  0.5767  0.7032
    9CHL1  H24A  655   2.210   4.654   9.063 -0.9910  2.2442  1.8253
    9CHL1  H24B  656   2.177   4.810   9.002 -1.1824 -0.5232 -3.2752
    9CHL1   C25  657   2.251   4.691   8.851 -0.5944 -0.0017 -0.0193
    9CHL1   H25  658   2.330   4.615   8.831 -0.3964  0.4618 -1.0901
    9CHL1   C26  659   2.111   4.654   8.807 -0.1195  0.5426 -0.4056
    9CHL1  H26A  660   2.075   4.558   8.852  2.2668 -1.0240 -1.6508
    9CHL1  H26B  661   2.037   4.732   8.835  0.5456  0.7421  0.8850
    9CHL1  H26C  662   2.100   4.647   8.697  1.8187  0.9837 -0.6630
    9CHL1   C27  663   2.272   4.819   8.769  1.5539  0.7142  0.3105
    9CHL1  H27A  664   2.261   4.795   8.661 -1.0660 -2.9296  1.2185
    9CHL1  H27B  665   2.189   4.891   8.786 -1.9755 -2.8807 -0.1517
    9CHL1  H27C  666   2.377   4.854   8.778  1.8890 -0.0739 -0.3500
   10CHL1    C3  667   3.720   0.667  10.364  0.0961  0.8726  0.1979
   10CHL1    H3  668   3.744   0.776  10.356  2.2800  0.3055 -2.2781
   10CHL1    O3  669   3.714   0.629  10.502 -0.9525 -0.1268 -0.2491
   10CHL1   H3'  670   3.673   0.542  10.508  0.0594 -0.7089 -1.3248
   10CHL1    C4  671   3.588   0.626  10.292 -0.0819  0.5896  0.4161
   10CHL1   H4A  672   3.549   0.525  10.318  0.6713 -0.3028 -1.7337
   10CHL1   H4B  673   3.515   0.699  10.333 -1.2793 -0.3438  0.0349
   10CHL1    C5  674   3.598   0.633  10.139  0.4312  0.3271  0.5986
   10CHL1    C6  675   3.515   0.707  10.069  0.0931  0.4447 -0.2095
   10CHL1    H6  676   3.449   0.772  10.129  1.5812  0.7775  1.1474
   10CHL1    C7  677   3.504   0.728   9.919 -0.3664  0.1175  0.2610
   10CHL1   H7A  678   3.401   0.742   9.880 -0.4221  1.3117  0.8014
   10CHL1   H7B  679   3.555   0.821   9.884  0.6169 -0.9434 -1.2883
   10CHL1    C8  680   3.567   0.603   9.854  0.0661  0.7048  0.5883
   10CHL1    H8  681   3.506   0.511   9.866  2.3461 -1.0427 -0.3835
   10CHL1   C14  682   3.583   0.634   9.709  0.0663 -0.4341  0.7417
   10CHL1   H14  683   3.642   0.728   9.698 -0.4465 -0.0227  1.4134
   10CHL1   C15  684   3.464   0.667   9.626 -0.5509 -0.2612 -0.3932
   10CHL1  H15A  685   3.377   0.598   9.635  0.1439 -1.3585 -1.7079
   10CHL1  H15B  686   3.425   0.769   9.641  1.0471  0.1977  0.9135
   10CHL1   C16  687   3.519   0.651   9.480  0.1293  0.2390  0.4398
   10CHL1  H16A  688   3.448   0.589   9.422  0.9572 -1.6152  1.3344
   10CHL1  H16B  689   3.515   0.752   9.433 -2.0703 -0.1124 -0.2352
   10CHL1   C17  690   3.652   0.578   9.484 -0.8015  0.7216  0.0490
   10CHL1   H17  691   3.738   0.648   9.478  1.1429 -1.3993  1.2249
   10CHL1   C13  692   3.667   0.532   9.624 -0.9835  0.0067 -1.0444
   10CHL1   C18  693   3.607   0.389   9.630  0.3750  0.1105  0.4113
   10CHL1  H18A  694   3.500   0.391   9.600  0.7359  2.2560 -0.9470
   10CHL1  H18B  695   3.663   0.310   9.575 -1.5488 -2.1609  1.5310
   10CHL1  H18C  696   3.598   0.359   9.737 -2.8554  0.1691  0.2684
   10CHL1   C12  697   3.812   0.529   9.684 -0.2651  0.5465  0.1966
   10CHL1  H12A  698   3.874   0.455   9.630 -2.1576 -0.7925 -0.2642
   10CHL1  H12B  699   3.856   0.630   9.673  1.7730 -0.2253  0.8899
   10CHL1   C11  700   3.807   0.487   9.834 -0.6519 -0.6831  0.3672
   10CHL1  H11A  701   3.780   0.379   9.844 -1.3311 -0.3855  2.0380
   10CHL1  H11B  702   3.912   0.502   9.866  0.1834  0.2722 -2.4653
   10CHL1    C9  703   3.705   0.577   9.920 -0.1625  0.4237  0.1224
   10CHL1    H9  704   3.760   0.673   9.912  2.5616 -0.8712  1.6930
   10CHL1   C10  705   3.707   0.546  10.073  1.0110 -0.2836  0.4451
   10CHL1   C19  706   3.677   0.397  10.085 -0.3494  0.3009  0.2292
   10CHL1  H19A  707   3.669   0.374  10.194  0.1813 -0.7095  0.0654
   10CHL1  H19B  708   3.579   0.373  10.038  0.0174  1.1282 -1.0012
   10CHL1  H19C  709   3.763   0.336  10.051 -1.1150 -0.4036 -0.5177
   10CHL1    C1  710   3.835   0.602  10.142 -0.1387  0.8816  0.1085
   10CHL1   H1A  711   3.925   0.544  10.111 -0.9011  0.2449 -0.9987
   10CHL1   H1B  712   3.853   0.709  10.118  2.8737 -0.1354 -3.0069
   10CHL1    C2  713   3.832   0.587  10.295 -0.1064  1.0148 -0.1498
   10CHL1   H2A  714   3.926   0.620  10.343  0.4763 -1.0830  0.2403
   10CHL1   H2B  715   3.824   0.478  10.316 -0.3386  1.3439  1.6207
   10CHL1   C20  716   3.672   0.478   9.365  0.0459 -0.1803 -0.1123
   10CHL1   H20  717   3.589   0.405   9.352 -0.2632  0.4053 -1.7291
   10CHL1   C21  718   3.806   0.409   9.360 -0.3948 -0.5433  0.7692
   10CHL1  H21A  719   3.886   0.486   9.369  0.3077 -1.1975  0.3012
   10CHL1  H21B  720   3.824   0.348   9.269  0.2064 -0.5780  0.9051
   10CHL1  H21C  721   3.832   0.349   9.450 -1.3228 -0.7852  0.8798
   10CHL1   C22  722   3.664   0.562   9.237  0.3776 -0.5358 -0.1363
   10CHL1  H22A  723   3.575   0.628   9.227  1.9593  2.1222  2.0301
   10CHL1  H22B  724   3.750   0.631   9.234 -0.4686  0.5679  0.4010
   10CHL1   C23  725   3.644   0.479   9.106  0.0637 -0.0457  0.1670
   10CHL1  H23A  726   3.723   0.402   9.103  1.7448  1.6311 -1.0345
   10CHL1  H23B  727   3.539   0.444   9.112  0.1849 -0.2977  0.9673
   10CHL1   C24  728   3.680   0.570   8.990  0.0064  0.1725  0.7375
   10CHL1  H24A  729   3.641   0.674   8.997  0.8380  0.7175 -1.7118
   10CHL1  H24B  730   3.790   0.562   8.984 -0.0962 -0.1600 -3.1593
   10CHL1   C25  731   3.630   0.511   8.857 -0.4064  0.4201  0.3434
   10CHL1   H25  732   3.521   0.499   8.870  0.0129 -2.2955  2.3246
   10CHL1   C26  733   3.651   0.608   8.744  0.0576  0.4254 -0.3422
   10CHL1  H26A  734   3.754   0.648   8.741 -0.2107  1.2679  0.9855
   10CHL1  H26B  735   3.629   0.561   8.646  1.4406 -0.3530 -0.3057
   10CHL1  H26C  736   3.585   0.697   8.753 -0.9850 -0.4797  1.7201
   10CHL1   C27  737   3.679   0.367   8.835  0.6535  0.4149 -0.1585
   10CHL1  H27A  738   3.627   0.331   8.744 -2.2374 -0.8564  1.8345
   10CHL1  H27B  739   3.790   0.363   8.829  0.5549  0.3369 -2.7123
   10CHL1  H27C  740   3.649   0.302   8.920  1.9880  1.5706  1.2588
   11CHL1    C3  741   6.486   3.665  10.107  0.1621  0.7925  0.0509
   11CHL1    H3  742   6.596   3.669  10.101  0.1862  0.4961  0.2536
   11CHL1    O3  743   6.438   3.663  10.240 -0.5172 -0.1062 -0.3069
   11CHL1   H3'  744   6.396   3.579  10.258 -0.2496 -0.0696  0.5344
   11CHL1    C4  745   6.416   3.775  10.025  0.3851 -0.9681  0.2762
   11CHL1   H4A  746   6.312   3.787  10.062  0.3381  0.9428 -0.3466
   11CHL1   H4B  747   6.470   3.869  10.049  1.8722 -0.2183 -4.8153
   11CHL1    C5  748   6.411   3.759   9.872 -0.5065  0.1446 -0.0590
   11CHL1    C6  749   6.451   3.859   9.795 -0.0756 -0.0712  0.3755
   11CHL1    H6  750   6.475   3.952   9.849  2.4594 -0.7134  0.4808
   11CHL1    C7  751   6.457   3.851   9.646  0.0893 -0.2404 -0.2617
   11CHL1   H7A  752   6.408   3.937   9.596  0.2018  0.0710  0.1566
   11CHL1   H7B  753   6.564   3.856   9.618  0.2322  2.3023  0.5051
   11CHL1    C8  754   6.386   3.732   9.591 -0.1362  0.5642 -0.0733
   11CHL1    H8  755   6.276   3.746   9.602 -0.3180 -0.1944 -0.8564
   11CHL1   C14  756   6.427   3.714   9.447 -0.2804  0.2357 -0.1626
   11CHL1   H14  757   6.536   3.694   9.449 -0.2090  0.2749 -1.8924
   11CHL1   C15  758   6.414   3.833   9.356  0.4361 -0.2410 -0.9751
   11CHL1  H15A  759   6.312   3.869   9.384 -0.1467 -2.5309  0.0811
   11CHL1  H15B  760   6.493   3.910   9.356  0.4868 -0.2292  1.0886
   11CHL1   C16  761   6.408   3.773   9.215 -0.3760 -0.1518 -0.1433
   11CHL1  H16A  762   6.313   3.814   9.175 -1.1662 -0.2019  1.5737
   11CHL1  H16B  763   6.495   3.802   9.152  0.7269  0.2722  1.5188
   11CHL1   C17  764   6.411   3.617   9.228  0.4609 -0.1565 -0.3633
   11CHL1   H17  765   6.518   3.589   9.218  0.0307 -1.5152 -1.6519
   11CHL1   C13  766   6.359   3.594   9.375 -0.3347  0.2693 -0.3054
   11CHL1   C18  767   6.204   3.626   9.385 -0.1577  0.3408  0.1699
   11CHL1  H18A  768   6.149   3.638   9.480 -0.5877 -0.6150  0.0513
   11CHL1  H18B  769   6.178   3.718   9.328  1.4422  1.0296  0.4719
   11CHL1  H18C  770   6.161   3.543   9.325  0.3109  0.4444 -0.3318
   11CHL1   C12  771   6.402   3.468   9.455 -0.4561 -1.1696  0.9114
   11CHL1  H12A  772   6.367   3.369   9.417  1.4460 -1.8694  0.8505
   11CHL1  H12B  773   6.512   3.467   9.438  0.3606  1.8845  4.7594
   11CHL1   C11  774   6.387   3.473   9.603 -0.1295  0.0413 -0.3126
   11CHL1  H11A  775   6.282   3.450   9.628  0.2184 -0.7018  0.4944
   11CHL1  H11B  776   6.442   3.389   9.651 -3.0983 -0.8278  1.8361
   11CHL1    C9  777   6.427   3.608   9.672 -0.2607 -0.4325  0.3877
   11CHL1    H9  778   6.538   3.614   9.671 -0.3115  0.8698 -0.2919
   11CHL1   C10  779   6.384   3.620   9.823  1.4240  0.1129  0.1653
   11CHL1   C19  780   6.230   3.592   9.823 -0.1482 -0.3689 -0.8213
   11CHL1  H19A  781   6.188   3.629   9.919  1.0891  0.7059 -0.6654
   11CHL1  H19B  782   6.173   3.659   9.754 -3.0947 -0.8257  0.9790
   11CHL1  H19C  783   6.206   3.486   9.802  0.7885 -0.5474 -1.0292
   11CHL1    C1  784   6.461   3.517   9.903 -0.0445 -0.2081 -0.0220
   11CHL1   H1A  785   6.428   3.417   9.869 -0.8450  0.5572 -1.6118
   11CHL1   H1B  786   6.568   3.537   9.882 -0.4136  1.4566 -0.4800
   11CHL1    C2  787   6.436   3.531  10.059 -0.5251 -0.3861 -0.2569
   11CHL1   H2A  788   6.490   3.452  10.115 -0.0459  0.0662 -0.0652
   11CHL1   H2B  789   6.329   3.526  10.087 -0.0996  1.3475  2.0803
   11CHL1   C20  790   6.344   3.534   9.118 -0.3215 -0.0386 -0.3678
   11CHL1   H20  791   6.233   3.538   9.120 -0.2928  1.6800 -0.8245
   11CHL1   C21  792   6.386   3.391   9.131  0.1348  0.2450 -0.4263
   11CHL1  H21A  793   6.374   3.338   9.034  0.0917 -2.1454  0.8213
   11CHL1  H21B  794   6.318   3.342   9.203  2.9378 -4.2712 -0.4829
   11CHL1  H21C  795   6.494   3.387   9.158 -0.5885 -1.5794  2.6201
   11CHL1   C22  796   6.374   3.583   8.970  0.1727 -0.3972 -1.0956
   11CHL1  H22A  797   6.308   3.524   8.904 -0.5168 -0.5692 -0.2687
   11CHL1  H22B  798   6.356   3.692   8.982 -1.4270 -0.8510  1.4997
   11CHL1   C23  799   6.517   3.565   8.919  1.2039 -0.4951 -0.1993
   11CHL1  H23A  800   6.586   3.552   9.005 -0.3050  0.1395  1.1446
   11CHL1  H23B  801   6.527   3.466   8.869  2.5376 -1.9545  2.7297
   11CHL1   C24  802   6.562   3.670   8.822  0.1383  0.4753  0.2804
   11CHL1  H24A  803   6.527   3.769   8.857 -0.8806  0.9624 -1.9617
   11CHL1  H24B  804   6.673   3.667   8.820  0.1298 -2.1381 -0.5692
   11CHL1   C25  805   6.505   3.648   8.679 -0.2722  1.2243 -0.3772
   11CHL1   H25  806   6.499   3.541   8.649  3.2722  1.2956 -1.8810
   11CHL1   C26  807   6.380   3.726   8.651  0.1706 -0.4094  0.5618
   11CHL1  H26A  808   6.357   3.693   8.548  1.1948  0.2685  0.0929
   11CHL1  H26B  809   6.302   3.698   8.725  1.2536 -0.3139  1.8030
   11CHL1  H26C  810   6.376   3.837   8.658 -3.6159 -0.4331  0.4615
   11CHL1   C27  811   6.603   3.703   8.571  0.7480  0.6107 -0.5726
   11CHL1  H27A  812   6.602   3.814   8.576  2.0366  0.6228 -0.4875
   11CHL1  H27B  813   6.702   3.663   8.600  0.6096  1.5704  1.4539
   11CHL1  H27C  814   6.580   3.679   8.465 -0.4889 -1.3425  0.0870
   12CHL1    C3  815   0.881   6.442  10.403  0.7909  0.2373  0.3614
   12CHL1    H3  816   0.783   6.494  10.403 -0.1114 -1.3796  0.2850
   12CHL1    O3  817   0.910   6.418  10.537 -0.1422  0.2193  0.2404
   12CHL1   H3'  818   0.999   6.387  10.550  0.1133  0.8826  0.0967
   12CHL1    C4  819   0.865   6.316  10.323 -0.5652  0.2616  1.0723
   12CHL1   H4A  820   0.953   6.252  10.344 -0.6400  0.1860  1.1611
   12CHL1   H4B  821   0.775   6.261  10.358 -1.2197 -0.0063 -0.9220
   12CHL1    C5  822   0.850   6.340  10.174 -0.5270 -0.1175 -0.1918
   12CHL1    C6  823   0.753   6.292  10.099  0.2873  0.2760  0.2308
   12CHL1    H6  824   0.681   6.223  10.145  0.6519 -0.6069 -0.4811
   12CHL1    C7  825   0.744   6.308   9.947 -0.4251 -0.5710  0.3637
   12CHL1   H7A  826   0.720   6.210   9.900  3.2725 -0.9473 -1.0018
   12CHL1   H7B  827   0.656   6.371   9.923  1.3838  2.3279  0.9104
   12CHL1    C8  828   0.869   6.363   9.879 -0.2198 -0.0770 -0.0801
   12CHL1    H8  829   0.941   6.279   9.870 -3.5226 -2.8482 -3.5142
   12CHL1   C14  830   0.830   6.413   9.741  0.1614  0.3087 -0.5650
   12CHL1   H14  831   0.751   6.490   9.753  0.7812  0.6279  1.9152
   12CHL1   C15  832   0.774   6.309   9.644 -0.9758  0.0059  0.0992
   12CHL1  H15A  833   0.834   6.216   9.653 -1.9206 -0.4874  1.8259
   12CHL1  H15B  834   0.671   6.277   9.671 -1.5578  0.0430 -1.9129
   12CHL1   C16  835   0.773   6.380   9.510  0.2089  0.1605 -0.2136
   12CHL1  H16A  836   0.802   6.320   9.421 -3.5674 -0.6761 -1.0382
   12CHL1  H16B  837   0.665   6.398   9.490  0.2257 -0.0669 -0.5064
   12CHL1   C17  838   0.865   6.502   9.532 -0.3811 -0.6187  0.0794
   12CHL1   H17  839   0.802   6.591   9.552  3.3069  1.9440  1.3263
   12CHL1   C13  840   0.945   6.487   9.667  0.0847 -0.1845  0.2162
   12CHL1   C18  841   1.064   6.394   9.640 -0.3339  1.1521 -0.2820
   12CHL1  H18A  842   1.098   6.345   9.735 -2.0575 -0.0584 -0.2425
   12CHL1  H18B  843   1.027   6.319   9.567 -1.4750  0.8291  0.5876
   12CHL1  H18C  844   1.148   6.453   9.599 -0.7159  3.7030  2.2859
   12CHL1   C12  845   0.978   6.612   9.748  0.0592 -0.4857  0.8254
   12CHL1  H12A  846   1.055   6.660   9.685 -1.5542  2.0204  0.5982
   12CHL1  H12B  847   0.888   6.676   9.760 -0.5853 -0.8179 -1.7003
   12CHL1   C11  848   1.028   6.567   9.883  0.1566 -0.4981  0.0567
   12CHL1  H11A  849   1.116   6.500   9.871 -0.9468 -2.1566  0.8198
   12CHL1  H11B  850   1.050   6.655   9.947  2.1768  0.2858 -1.6158
   12CHL1    C9  851   0.920   6.484   9.965 -0.3245  0.0282  0.6752
   12CHL1    H9  852   0.833   6.553   9.973 -0.2721  0.0621  0.9500
   12CHL1   C10  853   0.953   6.440  10.112  0.6668  0.5068  0.6160
   12CHL1   C19  854   1.093   6.379  10.107 -0.3392 -0.3529  0.2279
   12CHL1  H19A  855   1.111   6.307  10.024  1.3500  0.2854 -0.0124
   12CHL1  H19B  856   1.168   6.460  10.094  0.9790 -1.4767  0.6348
   12CHL1  H19C  857   1.122   6.334  10.204  0.8340 -1.0915 -0.4410
   12CHL1    C1  858   0.957   6.562  10.202  0.9643 -0.4989  0.1400
   12CHL1   H1A  859   1.030   6.636  10.164  0.0109  0.4338  0.0838
   12CHL1   H1B  860   0.864   6.623  10.199  2.1218  1.3715  0.7948
   12CHL1    C2  861   0.979   6.542  10.350  0.1065 -0.0416  0.1052
   12CHL1   H2A  862   0.963   6.628  10.418  0.2904 -0.5848  0.8412
   12CHL1   H2B  863   1.080   6.500  10.364  0.4423  0.7533  0.0960
   12CHL1   C20  864   0.943   6.542   9.408 -0.0512 -0.4308  0.0433
   12CHL1   H20  865   1.001   6.451   9.382  2.4538  0.8054  0.9646
   12CHL1   C21  866   1.034   6.670   9.421 -0.2124 -0.2581 -0.0465
   12CHL1  H21A  867   0.978   6.763   9.445  0.1797  0.5424 -2.0130
   12CHL1  H21B  868   1.085   6.683   9.323  1.2093  0.1560  0.7214
   12CHL1  H21C  869   1.119   6.653   9.490  1.0126 -0.4920 -1.5550
   12CHL1   C22  870   0.844   6.570   9.290  0.8929  0.0033  0.2112
   12CHL1  H22A  871   0.761   6.497   9.277 -1.7415  3.1671 -2.4684
   12CHL1  H22B  872   0.794   6.668   9.307  0.6735 -0.2188  0.8477
   12CHL1   C23  873   0.912   6.559   9.156 -0.3529 -0.4740  0.1544
   12CHL1  H23A  874   0.949   6.660   9.129  2.6979 -1.3679  0.6318
   12CHL1  H23B  875   1.008   6.503   9.163 -0.4699 -0.5994  0.8539
   12CHL1   C24  876   0.819   6.507   9.045  0.0229 -0.0360  0.0072
   12CHL1  H24A  877   0.762   6.415   9.072 -1.7521  0.6899 -1.0444
   12CHL1  H24B  878   0.736   6.579   9.028 -1.6046 -2.1867 -1.9635
   12CHL1   C25  879   0.872   6.464   8.909 -0.8260  0.1416  0.0654
   12CHL1   H25  880   0.935   6.374   8.924 -0.2207  0.6162  0.3925
   12CHL1   C26  881   0.763   6.439   8.803 -0.2452  0.1846 -0.4323
   12CHL1  H26A  882   0.798   6.377   8.718  2.8501  2.6064 -1.1354
   12CHL1  H26B  883   0.683   6.390   8.863  0.4464  0.2564  0.5800
   12CHL1  H26C  884   0.721   6.537   8.771  0.5979  1.6056  2.4290
   12CHL1   C27  885   0.967   6.565   8.844 -0.3443 -0.9406  0.7357
   12CHL1  H27A  886   1.040   6.583   8.927 -0.8208 -0.0277  0.9743
   12CHL1  H27B  887   1.033   6.533   8.761 -2.0807  1.2077 -1.6082
   12CHL1  H27C  888   0.913   6.657   8.813  3.2744  0.7024 -1.3945
   13CHL1    C3  889   0.787   1.533   9.956  0.3925  0.1292  0.0898
   13CHL1    H3  890   0.796   1.444   9.891  1.9877  1.4588 -1.6447
   13CHL1    O3  891   0.775   1.495  10.090 -0.8835 -0.3755  0.0203
   13CHL1   H3'  892   0.775   1.583  10.127 -2.2868 -0.8634  1.2646
   13CHL1    C4  893   0.914   1.614   9.936 -1.1055 -0.5402  0.3513
   13CHL1   H4A  894   0.904   1.707   9.996 -1.1740 -0.2925 -0.0391
   13CHL1   H4B  895   1.007   1.569   9.976 -0.4222  0.1412 -0.4198
   13CHL1    C5  896   0.920   1.653   9.789 -0.1108 -0.1326  0.1020
   13CHL1    C6  897   1.026   1.611   9.716 -0.3212  0.4787 -0.4642
   13CHL1    H6  898   1.107   1.553   9.763 -1.4518 -0.6368  0.1513
   13CHL1    C7  899   1.033   1.646   9.572  0.2941  0.4615  0.2393
   13CHL1   H7A  900   1.134   1.672   9.536  0.9533 -0.5705  1.2790
   13CHL1   H7B  901   1.011   1.556   9.510  2.8446 -0.4989  0.6205
   13CHL1    C8  902   0.926   1.745   9.516  0.4128  0.0079  0.3026
   13CHL1    H8  903   0.950   1.852   9.538 -1.8649  0.4337  1.0268
   13CHL1   C14  904   0.921   1.757   9.359  0.2620 -0.2644 -0.2391
   13CHL1   H14  905   0.893   1.654   9.329  1.1076 -0.7645  0.6071
   13CHL1   C15  906   1.047   1.797   9.280 -0.0198 -0.0894  0.0847
   13CHL1  H15A  907   1.080   1.898   9.311 -1.3346 -0.0449  1.4810
   13CHL1  H15B  908   1.135   1.730   9.291 -0.8808 -1.6021 -1.7662
   13CHL1   C16  909   0.998   1.809   9.135 -0.0332  0.5111 -0.0058
   13CHL1  H16A  910   1.043   1.906   9.105  1.7824 -0.7024 -1.4003
   13CHL1  H16B  911   1.022   1.723   9.069 -0.8447 -0.5443  1.0433
   13CHL1   C17  912   0.840   1.818   9.151  0.4214 -0.7305  0.8575
   13CHL1   H17  913   0.801   1.719   9.121 -0.9440  0.5301 -1.8841
   13CHL1   C13  914   0.811   1.844   9.300  1.0958 -0.0593  0.1173
   13CHL1   C18  915   0.841   2.000   9.331 -0.0262  0.4422  0.9732
   13CHL1  H18A  916   0.832   2.026   9.439  1.7601 -0.8007  1.4646
   13CHL1  H18B  917   0.942   2.027   9.293 -0.8707 -1.6179 -3.2962
   13CHL1  H18C  918   0.756   2.057   9.287 -1.0302 -1.3085  0.5498
   13CHL1   C12  919   0.675   1.798   9.354 -0.4973  0.5488 -0.9594
   13CHL1  H12A  920   0.589   1.852   9.309 -1.0402  0.7745  0.2951
   13CHL1  H12B  921   0.658   1.688   9.343  3.2105 -0.1008 -1.5187
   13CHL1   C11  922   0.679   1.821   9.509 -0.2765  0.3251  0.4330
   13CHL1  H11A  923   0.693   1.927   9.541  1.0620  0.3918 -0.2755
   13CHL1  H11B  924   0.581   1.800   9.556 -0.1993 -0.8658  0.1065
   13CHL1    C9  925   0.787   1.725   9.574  0.0056 -0.0222  0.2625
   13CHL1    H9  926   0.761   1.621   9.545  0.6432 -0.7084  2.0310
   13CHL1   C10  927   0.793   1.719   9.726 -0.0182  0.3007  0.0327
   13CHL1   C19  928   0.795   1.863   9.784  0.2159  0.2718  0.1492
   13CHL1  H19A  929   0.700   1.914   9.758  0.0797 -0.2104 -0.3155
   13CHL1  H19B  930   0.794   1.869   9.895 -1.2830 -2.8019  0.4116
   13CHL1  H19C  931   0.875   1.926   9.740  0.2253  0.1565 -0.0023
   13CHL1    C1  932   0.664   1.643   9.773  0.3285  0.4583 -0.3459
   13CHL1   H1A  933   0.575   1.709   9.762 -0.0311 -0.1282 -1.0268
   13CHL1   H1B  934   0.641   1.557   9.707  2.9742 -0.3242 -0.3573
   13CHL1    C2  935   0.660   1.604   9.919  0.1734 -0.3754 -0.5673
   13CHL1   H2A  936   0.578   1.530   9.913 -0.4236  0.2670 -0.4309
   13CHL1   H2B  937   0.627   1.693   9.976  0.2680 -0.0959 -0.9411
   13CHL1   C20  938   0.775   1.909   9.045  0.3026 -0.0466  0.6445
   13CHL1   H20  939   0.810   2.013   9.068  3.3254 -0.7800 -0.1577
   13CHL1   C21  940   0.622   1.907   9.041  0.4177 -0.1763 -0.1911
   13CHL1  H21A  941   0.585   1.966   9.127 -0.3490 -0.3837 -0.3663
   13CHL1  H21B  942   0.580   1.806   9.057 -1.0234  0.3319 -0.6319
   13CHL1  H21C  943   0.579   1.953   8.949 -1.1627 -0.3875  0.4221
   13CHL1   C22  944   0.836   1.882   8.896 -0.5037  0.6459  0.9332
   13CHL1  H22A  945   0.803   1.969   8.835 -1.2346 -0.6178 -0.5202
   13CHL1  H22B  946   0.947   1.884   8.891 -0.3693 -0.7460  2.4053
   13CHL1   C23  947   0.786   1.755   8.830  0.6357 -0.2385 -0.1982
   13CHL1  H23A  948   0.810   1.661   8.884 -0.7138 -0.6146 -0.2041
   13CHL1  H23B  949   0.675   1.749   8.824  0.5798  1.6279 -2.3247
   13CHL1   C24  950   0.824   1.733   8.680 -0.2772  0.7605  0.5447
   13CHL1  H24A  951   0.934   1.741   8.673 -0.4527  1.8953 -1.7975
   13CHL1  H24B  952   0.797   1.629   8.652 -0.5149  1.1438 -0.6854
   13CHL1   C25  953   0.758   1.830   8.590 -0.8917  0.2136  0.5144
   13CHL1   H25  954   0.768   1.931   8.635  0.9729 -0.4049  1.6281
   13CHL1   C26  955   0.824   1.811   8.450  0.1831 -0.4018 -0.2097
   13CHL1  H26A  956   0.931   1.843   8.451 -0.2341  1.0155  0.6140
   13CHL1  H26B  957   0.813   1.706   8.413 -2.5790 -0.2728  0.1068
   13CHL1  H26C  958   0.777   1.879   8.376 -0.2052 -1.0172 -0.5376
   13CHL1   C27  959   0.608   1.793   8.578  0.8684  0.2819  0.0394
   13CHL1  H27A  960   0.538   1.821   8.660 -0.3865 -0.6514 -0.6764
   13CHL1  H27B  961   0.565   1.832   8.484 -0.2090 -0.7055  0.1064
   13CHL1  H27C  962   0.597   1.682   8.578  0.6270  0.3043 -0.4103
   14CHL1    C3  963   6.498   4.678  10.280 -0.0489  0.4818 -0.0358
   14CHL1    H3  964   6.552   4.586  10.249 -0.2888  0.0381  0.8170
   14CHL1    O3  965   6.474   4.664  10.422  0.0131  0.2145 -0.5470
   14CHL1   H3'  966   6.544   4.720  10.458 -1.0452  2.6705 -2.0551
   14CHL1    C4  967   6.567   4.816  10.252  0.3078  0.4097  0.0546
   14CHL1   H4A  968   6.507   4.893  10.305 -1.9166 -1.7853  0.8863
   14CHL1   H4B  969   6.671   4.802  10.289  0.6549  0.1030 -0.9819
   14CHL1    C5  970   6.588   4.849  10.106 -0.6984  0.3884  0.3115
   14CHL1    C6  971   6.711   4.870  10.054 -0.3331  0.4594  0.7049
   14CHL1    H6  972   6.800   4.879  10.117  1.8545 -0.3833 -2.0233
   14CHL1    C7  973   6.732   4.913   9.912  0.1363  0.0351  0.0346
   14CHL1   H7A  974   6.802   4.999   9.906 -0.5539  0.6131  0.0053
   14CHL1   H7B  975   6.781   4.828   9.862  0.6317  1.3150 -1.7560
   14CHL1    C8  976   6.606   4.936   9.831 -0.9219 -0.8336  0.6192
   14CHL1    H8  977   6.576   5.039   9.860 -0.1872 -0.1948 -0.7893
   14CHL1   C14  978   6.634   4.938   9.678 -1.0248  1.5150  0.1300
   14CHL1   H14  979   6.652   4.832   9.651 -1.4295  1.7486 -1.1121
   14CHL1   C15  980   6.743   5.022   9.622 -0.6591 -0.2809 -0.3762
   14CHL1  H15A  981   6.721   5.119   9.672 -1.0522 -1.2779  1.4953
   14CHL1  H15B  982   6.847   4.996   9.652 -0.7264  0.4366  0.5479
   14CHL1   C16  983   6.715   5.024   9.477 -0.2268  0.0199 -0.0312
   14CHL1  H16A  984   6.722   5.127   9.436  0.3392 -0.1739 -0.4329
   14CHL1  H16B  985   6.791   4.956   9.433  0.4745  1.0257 -0.4107
   14CHL1   C17  986   6.577   4.962   9.453  0.2108 -0.1384 -0.5704
   14CHL1   H17  987   6.595   4.854   9.433 -1.3064 -0.4765 -0.2848
   14CHL1   C13  988   6.511   4.962   9.587 -0.1149 -0.2846 -0.9833
   14CHL1   C18  989   6.444   5.109   9.600  0.4329  0.5960  0.4908
   14CHL1  H18A  990   6.343   5.126   9.555 -0.8228 -2.3694  1.9124
   14CHL1  H18B  991   6.413   5.115   9.706 -0.5278 -2.1786  0.4437
   14CHL1  H18C  992   6.512   5.190   9.565  0.0250 -0.3186 -2.8102
   14CHL1   C12  993   6.411   4.853   9.609 -0.2510  0.3007 -0.0218
   14CHL1  H12A  994   6.309   4.860   9.566 -0.5341  1.0136  0.7268
   14CHL1  H12B  995   6.456   4.752   9.596 -0.1690  0.5822 -2.3751
   14CHL1   C11  996   6.372   4.849   9.756 -0.5216 -0.1367 -0.1273
   14CHL1  H11A  997   6.325   4.948   9.774 -0.3764  0.1311 -1.1257
   14CHL1  H11B  998   6.304   4.765   9.781  0.8547 -1.4384 -0.6025
   14CHL1    C9  999   6.493   4.840   9.863 -0.1919  0.0388 -0.5647
   14CHL1    H9 1000   6.535   4.739   9.845 -1.9230 -0.6007 -1.1986
   14CHL1   C10 1001   6.458   4.832  10.016  0.4546 -0.2932 -0.2859
   14CHL1   C19 1002   6.364   4.952  10.043  0.0371  1.4703 -0.1204
   14CHL1  H19A 1003   6.259   4.927  10.018  0.4408 -0.0219 -0.4257
   14CHL1  H19B 1004   6.352   4.972  10.152  1.5339 -2.6662  0.9801
   14CHL1  H19C 1005   6.389   5.049   9.995  1.6326  3.3230  3.9990
   14CHL1    C1 1006   6.393   4.701  10.055  1.2242  0.0621 -0.1811
   14CHL1   H1A 1007   6.296   4.693  10.001  0.4366  0.8801  1.0594
   14CHL1   H1B 1008   6.455   4.616  10.021  1.6873 -0.3955  1.6826
   14CHL1    C2 1009   6.362   4.681  10.204 -0.1932  0.4480  0.3401
   14CHL1   H2A 1010   6.317   4.581  10.223 -0.5132  0.6553  0.6979
   14CHL1   H2B 1011   6.297   4.761  10.245 -0.9918  0.6701 -1.2487
   14CHL1   C20 1012   6.497   4.997   9.326 -0.8830  0.2587 -0.0140
   14CHL1   H20 1013   6.461   5.098   9.351 -1.3503 -0.0930  0.7633
   14CHL1   C21 1014   6.377   4.910   9.296  0.2786 -0.4492 -0.6997
   14CHL1  H21A 1015   6.346   4.924   9.190  1.7017  0.8463 -0.9652
   14CHL1  H21B 1016   6.290   4.930   9.363  1.2321  2.0592 -0.1113
   14CHL1  H21C 1017   6.389   4.801   9.314 -1.7188 -0.4499  0.9553
   14CHL1   C22 1018   6.588   5.007   9.205  0.4855  0.1675 -0.1636
   14CHL1  H22A 1019   6.539   5.040   9.112 -0.4325  1.9013  0.8953
   14CHL1  H22B 1020   6.658   5.091   9.226  1.0345 -0.4661  0.6379
   14CHL1   C23 1021   6.649   4.870   9.159 -0.1884  0.4931  0.0696
   14CHL1  H23A 1022   6.716   4.850   9.246 -0.1133  1.7800  0.3222
   14CHL1  H23B 1023   6.579   4.785   9.144  0.3737  0.2803 -1.5833
   14CHL1   C24 1024   6.725   4.880   9.027 -0.7734 -0.3219 -0.1734
   14CHL1  H24A 1025   6.786   4.789   9.013  0.2436  0.1426  1.0324
   14CHL1  H24B 1026   6.655   4.897   8.943 -2.5422 -1.1092  1.0775
   14CHL1   C25 1027   6.823   5.001   9.028  1.4667 -1.1539  0.2425
   14CHL1   H25 1028   6.770   5.090   9.067  2.2833 -0.1379 -0.8667
   14CHL1   C26 1029   6.948   4.984   9.114  0.7390 -0.0481  0.5591
   14CHL1  H26A 1030   7.018   5.067   9.094  0.6432  0.1305  0.9678
   14CHL1  H26B 1031   6.916   4.983   9.220  1.2285  1.0874  0.7241
   14CHL1  H26C 1032   7.010   4.894   9.092 -0.0414 -0.0975 -1.7505
   14CHL1   C27 1033   6.864   5.046   8.885 -0.0607  1.4210 -0.0035
   14CHL1  H27A 1034   6.925   4.966   8.837 -0.2166  2.3876 -1.9014
   14CHL1  H27B 1035   6.769   5.056   8.829 -2.9396 -3.7528  3.1784
   14CHL1  H27C 1036   6.923   5.140   8.883  0.4687  1.1013  0.2651
   15CHL1    C3 1037   6.298   4.194  10.160 -0.7718  0.2294 -0.6952
   15CHL1    H3 1038   6.338   4.090  10.163 -0.2630  0.4370  0.9084
   15CHL1    O3 1039   6.281   4.231  10.295 -0.2021  0.1205 -0.1301
   15CHL1   H3' 1040   6.200   4.281  10.284  0.5303  0.9232 -2.5664
   15CHL1    C4 1041   6.408   4.283  10.093 -0.1265  0.0113  0.3049
   15CHL1   H4A 1042   6.390   4.391  10.109  2.7858  0.5731  0.2550
   15CHL1   H4B 1043   6.499   4.273  10.157 -1.3422 -0.5313  2.0357
   15CHL1    C5 1044   6.431   4.259   9.948  0.1477 -0.7479 -0.6696
   15CHL1    C6 1045   6.548   4.236   9.890 -0.3832 -0.0380  0.7682
   15CHL1    H6 1046   6.639   4.217   9.948 -0.4362 -2.4265  0.1715
   15CHL1    C7 1047   6.566   4.215   9.746  0.2725  0.5241  0.8979
   15CHL1   H7A 1048   6.661   4.262   9.711  0.0751  0.6560  0.5318
   15CHL1   H7B 1049   6.578   4.106   9.727 -0.6388  0.5818 -0.0787
   15CHL1    C8 1050   6.454   4.274   9.662  0.1650  0.4823 -0.2669
   15CHL1    H8 1051   6.469   4.383   9.677  1.1355  0.3039  0.0861
   15CHL1   C14 1052   6.451   4.229   9.513 -0.6037 -0.2394 -0.5819
   15CHL1   H14 1053   6.413   4.125   9.506 -0.5954 -0.2269 -0.8267
   15CHL1   C15 1054   6.580   4.245   9.442  0.2075 -0.4236 -0.1666
   15CHL1  H15A 1055   6.629   4.345   9.451  1.1352 -0.9662  1.2097
   15CHL1  H15B 1056   6.664   4.176   9.469  2.1580  1.7055 -0.4785
   15CHL1   C16 1057   6.539   4.234   9.291  0.6433 -0.1978 -0.7853
   15CHL1  H16A 1058   6.588   4.320   9.240 -1.5118  1.7684  0.2533
   15CHL1  H16B 1059   6.577   4.136   9.257  0.9803 -0.5754  0.6295
   15CHL1   C17 1060   6.386   4.253   9.287  0.0058  0.1524  0.6468
   15CHL1   H17 1061   6.337   4.154   9.271 -2.9916  1.4974  0.8979
   15CHL1   C13 1062   6.344   4.305   9.425  0.1391 -0.0809  0.0629
   15CHL1   C18 1063   6.353   4.455   9.443 -0.2745 -0.1483 -0.2853
   15CHL1  H18A 1064   6.366   4.491   9.547 -0.9767  2.3574 -0.9886
   15CHL1  H18B 1065   6.419   4.500   9.365  1.2356 -0.8066  0.5548
   15CHL1  H18C 1066   6.250   4.487   9.417 -0.4257 -0.8807 -0.6173
   15CHL1   C12 1067   6.208   4.244   9.486  0.1468  0.4749 -0.2914
   15CHL1  H12A 1068   6.127   4.297   9.431 -0.2513  0.7162  0.5127
   15CHL1  H12B 1069   6.204   4.133   9.478  1.4826  0.5147 -2.4206
   15CHL1   C11 1070   6.200   4.274   9.632 -0.0008 -0.2250  0.5762
   15CHL1  H11A 1071   6.195   4.385   9.638  1.5238 -0.1478  0.6535
   15CHL1  H11B 1072   6.105   4.231   9.671 -0.4384 -0.4264 -0.6619
   15CHL1    C9 1073   6.318   4.231   9.720  0.5281 -0.2478  0.2897
   15CHL1    H9 1074   6.308   4.120   9.711 -1.0257 -0.1524  0.4623
   15CHL1   C10 1075   6.300   4.268   9.871  0.7504  0.5691  0.6888
   15CHL1   C19 1076   6.250   4.411   9.872  0.2726 -1.2676  0.2253
   15CHL1  H19A 1077   6.318   4.478   9.814 -1.1550  0.7377  0.7636
   15CHL1  H19B 1078   6.141   4.409   9.850  0.1318  0.1833  0.6864
   15CHL1  H19C 1079   6.246   4.454   9.975 -1.6369 -1.5847  0.3222
   15CHL1    C1 1080   6.188   4.176   9.938 -0.2236 -0.0799  0.0693
   15CHL1   H1A 1081   6.093   4.169   9.882 -1.1771  0.3463  1.5650
   15CHL1   H1B 1082   6.218   4.070   9.923  0.1286 -0.1189  0.9703
   15CHL1    C2 1083   6.170   4.208  10.084 -0.5368  0.3996  0.3724
   15CHL1   H2A 1084   6.082   4.157  10.129 -1.4868  0.2242 -1.5854
   15CHL1   H2B 1085   6.141   4.315  10.094 -1.3190  0.1550  0.8816
   15CHL1   C20 1086   6.335   4.340   9.162  0.9324  0.3032 -1.0355
   15CHL1   H20 1087   6.365   4.445   9.181  0.1059  0.2821  0.5621
   15CHL1   C21 1088   6.180   4.346   9.160  0.7422  0.0627  0.0205
   15CHL1  H21A 1089   6.139   4.395   9.251  2.5517 -1.1896  1.5803
   15CHL1  H21B 1090   6.138   4.249   9.128  1.5377 -0.9723  1.9352
   15CHL1  H21C 1091   6.146   4.406   9.073  0.4189 -0.9065 -0.5300
   15CHL1   C22 1092   6.385   4.293   9.029 -0.1009  0.0107  0.4951
   15CHL1  H22A 1093   6.354   4.372   8.957  0.8271 -1.2030 -1.3091
   15CHL1  H22B 1094   6.496   4.291   9.030 -0.1061 -1.1526  2.0339
   15CHL1   C23 1095   6.329   4.164   8.986  0.6059  0.9591 -0.1327
   15CHL1  H23A 1096   6.330   4.084   9.063  1.4996  0.0070 -1.0992
   15CHL1  H23B 1097   6.222   4.175   8.959  0.7327  0.9696 -0.6377
   15CHL1   C24 1098   6.411   4.102   8.871 -0.1717  0.5328  0.2160
   15CHL1  H24A 1099   6.503   4.077   8.928  0.5093  3.0350  0.3415
   15CHL1  H24B 1100   6.361   4.008   8.840 -0.0286  0.5732 -0.1359
   15CHL1   C25 1101   6.432   4.200   8.753  0.0493 -0.2467  0.0921
   15CHL1   H25 1102   6.477   4.296   8.786 -0.1608 -0.7724  1.9838
   15CHL1   C26 1103   6.536   4.141   8.664 -0.3249  0.4585 -0.3415
   15CHL1  H26A 1104   6.628   4.122   8.723  0.1725 -0.4648 -1.3871
   15CHL1  H26B 1105   6.504   4.044   8.622 -0.5829  0.1772  0.4897
   15CHL1  H26C 1106   6.554   4.218   8.586  0.1283 -0.2211 -0.9199
   15CHL1   C27 1107   6.310   4.231   8.669  0.6900 -0.0093  0.6211
   15CHL1  H27A 1108   6.268   4.145   8.613 -3.7932  2.5631 -0.4661
   15CHL1  H27B 1109   6.235   4.273   8.741  1.0869  0.4807  0.7531
   15CHL1  H27C 1110   6.344   4.302   8.592  2.5197  1.7534  2.9073
   16CHL1    C3 1111   0.611   3.293  10.146 -0.2633 -0.5239 -0.8514
   16CHL1    H3 1112   0.715   3.256  10.141  0.5641  1.2728  1.2442
   16CHL1    O3 1113   0.562   3.308  10.279  0.0975  0.4682 -0.0530
   16CHL1   H3' 1114   0.482   3.360  10.270  0.9409  1.5777 -1.5912
   16CHL1    C4 1115   0.610   3.439  10.089  0.0550 -0.6591 -0.0168
   16CHL1   H4A 1116   0.512   3.490  10.103  0.2902  0.2727 -1.5131
   16CHL1   H4B 1117   0.683   3.499  10.147 -0.0464 -1.5197  1.0334
   16CHL1    C5 1118   0.633   3.433   9.937  0.5177 -1.2656 -1.0631
   16CHL1    C6 1119   0.729   3.504   9.884  0.1114  0.3421  0.1266
   16CHL1    H6 1120   0.779   3.574   9.952 -1.6106  2.2126 -0.4154
   16CHL1    C7 1121   0.763   3.513   9.743  0.0667 -0.3609 -0.0144
   16CHL1   H7A 1122   0.784   3.620   9.720  0.1927 -0.0071  1.6161
   16CHL1   H7B 1123   0.854   3.458   9.714 -0.7545 -1.0464 -1.4028
   16CHL1    C8 1124   0.641   3.467   9.655 -0.5510 -0.0222  0.1727
   16CHL1    H8 1125   0.553   3.534   9.664 -0.2177  0.2800  1.4828
   16CHL1   C14 1126   0.674   3.472   9.509 -0.3465 -0.3347  0.1990
   16CHL1   H14 1127   0.770   3.415   9.513 -0.0929  0.0412 -0.4536
   16CHL1   C15 1128   0.702   3.617   9.460  0.0540 -0.1723 -0.4335
   16CHL1  H15A 1129   0.633   3.693   9.501  0.9262 -0.4367  1.6074
   16CHL1  H15B 1130   0.805   3.649   9.487 -0.7551  0.7330  1.7895
   16CHL1   C16 1131   0.696   3.593   9.302  0.5626  0.6277  0.0402
   16CHL1  H16A 1132   0.628   3.672   9.267 -2.8880 -2.1175 -0.0075
   16CHL1  H16B 1133   0.800   3.600   9.264  0.4630 -0.2405 -0.4169
   16CHL1   C17 1134   0.632   3.456   9.270  0.0876 -0.4737  0.2883
   16CHL1   H17 1135   0.713   3.387   9.237  0.3304  0.2522 -0.6935
   16CHL1   C13 1136   0.571   3.416   9.407  0.0897  0.3946  0.7891
   16CHL1   C18 1137   0.441   3.500   9.419  0.1608 -0.6346  0.2184
   16CHL1  H18A 1138   0.420   3.521   9.526  0.5387  0.7837  0.0377
   16CHL1  H18B 1139   0.452   3.604   9.383  0.0595 -0.6384  0.1774
   16CHL1  H18C 1140   0.355   3.449   9.371 -0.1622 -2.5561  2.6061
   16CHL1   C12 1141   0.558   3.267   9.452  0.5434 -0.0199 -0.0752
   16CHL1  H12A 1142   0.501   3.193   9.393 -0.9628  0.8156  0.2837
   16CHL1  H12B 1143   0.660   3.223   9.449  0.7468  0.4489 -0.2862
   16CHL1   C11 1144   0.498   3.259   9.603 -0.2666 -0.1220  0.6120
   16CHL1  H11A 1145   0.396   3.303   9.593 -0.0121  0.1657 -0.9997
   16CHL1  H11B 1146   0.480   3.153   9.630  1.1715 -0.0480  2.0278
   16CHL1    C9 1147   0.589   3.326   9.705  0.3181  1.1404 -0.1551
   16CHL1    H9 1148   0.678   3.261   9.705 -0.8298 -0.5157 -1.9992
   16CHL1   C10 1149   0.542   3.340   9.860  0.4502  0.5164  0.2803
   16CHL1   C19 1150   0.397   3.392   9.858 -0.5087  0.4454  0.6229
   16CHL1  H19A 1151   0.328   3.312   9.826  0.4529  0.6551 -2.1791
   16CHL1  H19B 1152   0.370   3.427   9.961  2.9009 -0.9370  2.1310
   16CHL1  H19C 1153   0.390   3.481   9.792 -2.6381 -1.2653 -1.6341
   16CHL1    C1 1154   0.543   3.200   9.922  0.6626 -0.0816 -0.1233
   16CHL1   H1A 1155   0.480   3.128   9.865  0.6547 -0.4449  0.3435
   16CHL1   H1B 1156   0.649   3.170   9.907  0.8669  0.4245  0.3083
   16CHL1    C2 1157   0.518   3.201  10.071 -0.2338  0.3850  0.1071
   16CHL1   H2A 1158   0.510   3.096  10.109 -0.0170 -0.7156 -2.6586
   16CHL1   H2B 1159   0.415   3.240  10.089 -0.8857 -1.6028  1.0358
   16CHL1   C20 1160   0.540   3.446   9.143  0.0627 -1.0167  0.2790
   16CHL1   H20 1161   0.442   3.495   9.159  0.1431  0.4033 -2.7538
   16CHL1   C21 1162   0.521   3.298   9.123 -0.1962 -0.0055 -0.2567
   16CHL1  H21A 1163   0.483   3.283   9.020  0.9965 -1.8492 -0.4706
   16CHL1  H21B 1164   0.443   3.260   9.192  0.2417 -1.0304 -0.3045
   16CHL1  H21C 1165   0.613   3.237   9.138 -1.8270 -1.9134  3.1056
   16CHL1   C22 1166   0.597   3.518   9.014  0.2347 -0.6851 -0.5597
   16CHL1  H22A 1167   0.521   3.512   8.933 -1.1773 -1.3699  0.7551
   16CHL1  H22B 1168   0.620   3.622   9.046 -3.1498 -0.1071  0.4986
   16CHL1   C23 1169   0.723   3.462   8.962 -0.4396  0.2424 -0.0568
   16CHL1  H23A 1170   0.797   3.456   9.045 -0.9575  1.5045  0.5201
   16CHL1  H23B 1171   0.704   3.356   8.932 -2.8751  0.2615  1.1850
   16CHL1   C24 1172   0.797   3.530   8.843  0.0418  0.2848 -0.2912
   16CHL1  H24A 1173   0.893   3.476   8.833 -0.0648  0.0148  0.1267
   16CHL1  H24B 1174   0.737   3.525   8.749 -0.0390  0.8826 -0.2746
   16CHL1   C25 1175   0.823   3.681   8.867 -0.3232  0.8984  0.7778
   16CHL1   H25 1176   0.723   3.729   8.879 -1.6779  0.0639 -4.4413
   16CHL1   C26 1177   0.914   3.714   8.996  0.0204  0.5747 -0.2872
   16CHL1  H26A 1178   1.009   3.657   8.994  0.3395  0.7514  3.0613
   16CHL1  H26B 1179   0.931   3.824   8.991  2.1731  0.5527  3.0336
   16CHL1  H26C 1180   0.861   3.705   9.094  0.3562  0.5008 -0.1093
   16CHL1   C27 1181   0.889   3.744   8.745  0.1061  0.5841  0.0570
   16CHL1  H27A 1182   0.988   3.707   8.712  0.0194 -0.1947  0.6414
   16CHL1  H27B 1183   0.816   3.739   8.661 -1.8142  1.8947  1.5649
   16CHL1  H27C 1184   0.903   3.853   8.761  2.9583  0.2710  0.1589
   17CHL1    C3 1185   4.102   1.822  10.321  0.3680  0.3750  0.0006
   17CHL1    H3 1186   4.126   1.931  10.316 -1.0252  0.7473  0.9994
   17CHL1    O3 1187   4.093   1.782  10.458 -0.5512  0.7187 -0.2734
   17CHL1   H3' 1188   4.000   1.765  10.468 -0.3627  0.6655  1.7836
   17CHL1    C4 1189   3.961   1.803  10.251  0.1473 -0.1756 -0.3514
   17CHL1   H4A 1190   3.935   1.696  10.261  1.4185 -0.5116 -0.4138
   17CHL1   H4B 1191   3.892   1.851  10.324  1.3926  0.2515  0.5811
   17CHL1    C5 1192   3.966   1.849  10.110  0.5788  0.1429 -0.6658
   17CHL1    C6 1193   3.891   1.946  10.061  0.4189 -0.0504  0.4004
   17CHL1    H6 1194   3.830   2.009  10.128  2.9149  3.4014 -0.2619
   17CHL1    C7 1195   3.872   1.976   9.918  0.1389 -0.2588  0.2289
   17CHL1   H7A 1196   3.764   1.978   9.896  0.0255 -1.7077  0.5302
   17CHL1   H7B 1197   3.913   2.075   9.889 -2.2577  1.0384  1.0833
   17CHL1    C8 1198   3.948   1.876   9.823  0.3233  0.0710  1.3098
   17CHL1    H8 1199   3.877   1.791   9.818 -1.8684  1.7994  1.2431
   17CHL1   C14 1200   3.974   1.936   9.685  0.6751 -0.0952 -0.0828
   17CHL1   H14 1201   4.046   2.019   9.700 -0.1532  0.5968  0.1893
   17CHL1   C15 1202   3.854   2.002   9.609  1.0018  0.4661  0.2182
   17CHL1  H15A 1203   3.761   1.946   9.628  1.5573 -0.4530  0.3058
   17CHL1  H15B 1204   3.824   2.102   9.646 -2.3068  0.1092 -1.2185
   17CHL1   C16 1205   3.896   2.002   9.460 -0.1029 -0.2338 -0.6587
   17CHL1  H16A 1206   3.813   1.959   9.400 -0.5374  0.8511 -0.8565
   17CHL1  H16B 1207   3.900   2.110   9.435 -0.9129  0.2080  0.9551
   17CHL1   C17 1208   4.027   1.928   9.458 -0.5037  0.2378 -0.5890
   17CHL1   H17 1209   4.103   2.008   9.474  1.8051 -2.0552  0.6017
   17CHL1   C13 1210   4.037   1.839   9.580  0.7175 -0.2070 -0.1397
   17CHL1   C18 1211   3.947   1.712   9.557 -0.6657 -0.7681 -0.0712
   17CHL1  H18A 1212   3.855   1.742   9.502 -0.8745 -1.4149 -0.0904
   17CHL1  H18B 1213   4.002   1.631   9.504 -1.6178 -1.0763 -0.6187
   17CHL1  H18C 1214   3.916   1.670   9.655 -0.2332 -0.0255  0.3932
   17CHL1   C12 1215   4.176   1.808   9.640  0.2559 -0.0209  0.4832
   17CHL1  H12A 1216   4.223   1.726   9.582 -0.5787 -0.1679 -0.0074
   17CHL1  H12B 1217   4.244   1.895   9.639 -0.5040  0.5857 -0.4793
   17CHL1   C11 1218   4.169   1.749   9.785  0.8128 -0.7383 -0.1119
   17CHL1  H11A 1219   4.123   1.648   9.770  1.1394 -0.7637 -0.9936
   17CHL1  H11B 1220   4.271   1.740   9.827  1.2977 -1.2005 -1.3229
   17CHL1    C9 1221   4.084   1.833   9.880 -0.0208 -0.5445 -0.0843
   17CHL1    H9 1222   4.144   1.926   9.888 -1.6583  0.7931 -2.1651
   17CHL1   C10 1223   4.069   1.771  10.023 -0.3661 -0.5361  0.1156
   17CHL1   C19 1224   4.009   1.630  10.004 -0.5603  0.4458  0.6992
   17CHL1  H19A 1225   3.955   1.627   9.908  1.7630  2.6152 -0.7958
   17CHL1  H19B 1226   4.094   1.558   9.998  1.5051  2.4054  3.6083
   17CHL1  H19C 1227   3.945   1.596  10.088 -0.3041 -0.4885  0.5295
   17CHL1    C1 1228   4.208   1.760  10.100  0.4385 -0.6725 -0.7740
   17CHL1   H1A 1229   4.274   1.692  10.042  0.5125 -0.8985 -0.4279
   17CHL1   H1B 1230   4.256   1.860  10.099 -0.9856  0.0524  0.0123
   17CHL1    C2 1231   4.200   1.735  10.250 -0.3464  0.4573 -0.3462
   17CHL1   H2A 1232   4.305   1.751  10.281 -0.2376 -0.2178 -0.3635
   17CHL1   H2B 1233   4.163   1.631  10.260 -1.8897  0.7914 -1.9708
   17CHL1   C20 1234   4.064   1.878   9.310 -0.3634 -0.1717  0.1846
   17CHL1   H20 1235   3.990   1.800   9.283 -0.8230  0.3692 -0.1438
   17CHL1   C21 1236   4.205   1.812   9.301  0.3219 -0.5290 -0.7308
   17CHL1  H21A 1237   4.285   1.878   9.342  0.3980 -1.5763  0.8646
   17CHL1  H21B 1238   4.217   1.775   9.197  0.4585  1.2029 -1.3706
   17CHL1  H21C 1239   4.209   1.721   9.364 -0.1882  1.2281  2.0072
   17CHL1   C22 1240   4.051   2.000   9.208 -0.2777  0.0505  0.2505
   17CHL1  H22A 1241   3.948   2.043   9.214 -0.4837 -0.3982 -0.0305
   17CHL1  H22B 1242   4.103   2.092   9.243 -0.3430  1.8261 -3.7554
   17CHL1   C23 1243   4.107   1.977   9.067  0.3321  0.0876 -0.2411
   17CHL1  H23A 1244   4.210   1.938   9.080 -0.4340 -1.4237  1.8271
   17CHL1  H23B 1245   4.048   1.892   9.027  1.3110 -0.6135 -0.2126
   17CHL1   C24 1246   4.106   2.093   8.967  0.1338  0.1596 -0.1440
   17CHL1  H24A 1247   4.007   2.116   8.922 -0.2682 -1.6555 -0.2954
   17CHL1  H24B 1248   4.128   2.181   9.031  0.9870 -1.1564  1.4590
   17CHL1   C25 1249   4.191   2.088   8.839 -0.5745 -0.0534 -0.3154
   17CHL1   H25 1250   4.296   2.071   8.870  0.4700 -0.1577 -3.5632
   17CHL1   C26 1251   4.153   1.970   8.747 -0.4308 -0.0354 -0.3989
   17CHL1  H26A 1252   4.053   1.988   8.701  0.1925  1.1959 -1.3555
   17CHL1  H26B 1253   4.239   1.965   8.676  0.1506  0.4983  0.2552
   17CHL1  H26C 1254   4.156   1.872   8.799 -0.0429 -0.0798 -0.4984
   17CHL1   C27 1255   4.174   2.222   8.762  0.6366 -0.4655 -0.0519
   17CHL1  H27A 1256   4.204   2.309   8.825  1.3858 -0.3534 -0.5431
   17CHL1  H27B 1257   4.242   2.222   8.674 -0.3517 -1.9128 -0.8571
   17CHL1  H27C 1258   4.072   2.229   8.720 -0.1470 -3.2547  1.1217
   18CHL1    C3 1259   4.740   5.204  10.281  0.5874  0.5483 -0.1217
   18CHL1    H3 1260   4.660   5.127  10.282  0.6522  0.4813  0.6784
   18CHL1    O3 1261   4.788   5.239  10.406 -0.1819  0.1030 -0.0425
   18CHL1   H3' 1262   4.743   5.182  10.468 -1.0907 -0.3082 -1.0360
   18CHL1    C4 1263   4.857   5.144  10.192  0.1011  0.4952  0.4215
   18CHL1   H4A 1264   4.938   5.220  10.193  0.3661  0.2180  0.2576
   18CHL1   H4B 1265   4.900   5.055  10.243 -1.0322  0.6152  1.6252
   18CHL1    C5 1266   4.817   5.133  10.050 -0.0368 -0.1263 -0.7387
   18CHL1    C6 1267   4.839   5.022   9.983  0.1160  0.2077  0.1231
   18CHL1    H6 1268   4.886   4.938  10.036 -2.1949 -2.0361 -1.1481
   18CHL1    C7 1269   4.809   5.002   9.837 -0.1329  0.5589  0.1199
   18CHL1   H7A 1270   4.894   4.953   9.785  0.9576  0.8321  1.5738
   18CHL1   H7B 1271   4.718   4.939   9.839 -0.4484  0.6240 -3.7947
   18CHL1    C8 1272   4.779   5.129   9.759 -0.2804  0.6070 -0.1254
   18CHL1    H8 1273   4.876   5.180   9.739  0.4032 -0.3236  0.6899
   18CHL1   C14 1274   4.697   5.092   9.640  0.3944  0.6755 -0.2942
   18CHL1   H14 1275   4.608   5.038   9.680  1.5513  0.3619  2.0034
   18CHL1   C15 1276   4.764   4.984   9.541 -0.7617  0.5694  0.3504
   18CHL1  H15A 1277   4.872   5.009   9.534 -0.3508 -0.8844  1.1831
   18CHL1  H15B 1278   4.743   4.879   9.572  0.3581  0.1665 -0.1946
   18CHL1   C16 1279   4.693   5.007   9.408 -0.7936 -0.1380  0.0758
   18CHL1  H16A 1280   4.767   5.030   9.329  1.3657  0.5680  2.1991
   18CHL1  H16B 1281   4.632   4.917   9.384 -0.7354 -0.2399  0.3097
   18CHL1   C17 1282   4.584   5.124   9.434  0.6949 -0.0608 -0.6739
   18CHL1   H17 1283   4.504   5.063   9.481 -0.1849  1.0777 -0.6663
   18CHL1   C13 1284   4.647   5.207   9.547 -0.4020 -0.0987 -0.1783
   18CHL1   C18 1285   4.769   5.282   9.481  0.1449  0.0779 -0.3986
   18CHL1  H18A 1286   4.739   5.347   9.396 -1.1589 -0.4692 -0.3759
   18CHL1  H18B 1287   4.820   5.341   9.560 -0.9389 -0.1434  0.4880
   18CHL1  H18C 1288   4.846   5.212   9.442 -0.1598  0.2467 -1.3172
   18CHL1   C12 1289   4.551   5.296   9.628  0.3118 -0.4333 -0.0494
   18CHL1  H12A 1290   4.532   5.388   9.568  1.5447  0.0365  0.2410
   18CHL1  H12B 1291   4.466   5.234   9.664 -0.5439  1.4170  1.2787
   18CHL1   C11 1292   4.624   5.335   9.762 -0.3703 -0.5807  0.0881
   18CHL1  H11A 1293   4.700   5.411   9.735 -0.7389 -0.7457 -1.5380
   18CHL1  H11B 1294   4.548   5.397   9.815 -2.1684  2.1089 -4.8673
   18CHL1    C9 1295   4.691   5.220   9.841 -0.3980 -0.2760 -0.8162
   18CHL1    H9 1296   4.601   5.158   9.862 -0.3321 -0.5369 -1.3108
   18CHL1   C10 1297   4.748   5.255   9.983  0.1851 -0.6934  0.3245
   18CHL1   C19 1298   4.850   5.367   9.969  0.2750  0.6275 -0.8905
   18CHL1  H19A 1299   4.894   5.373   9.867 -1.9402  2.4194 -1.8160
   18CHL1  H19B 1300   4.799   5.465   9.980  1.3231  1.1058 -0.1097
   18CHL1  H19C 1301   4.934   5.369  10.042 -1.4909 -1.2773  1.3568
   18CHL1    C1 1302   4.637   5.302  10.069  0.2039 -0.8019 -0.2263
   18CHL1   H1A 1303   4.585   5.387  10.021  0.9664 -0.7639 -1.0060
   18CHL1   H1B 1304   4.561   5.222  10.084 -0.9405  0.3867  0.5688
   18CHL1    C2 1305   4.673   5.329  10.216 -0.1835  0.4378 -0.5122
   18CHL1   H2A 1306   4.580   5.338  10.276  0.9090 -1.7393  1.7114
   18CHL1   H2B 1307   4.734   5.422  10.230  1.8215 -0.7038 -1.2334
   18CHL1   C20 1308   4.530   5.177   9.303  0.1941  0.0887 -0.1023
   18CHL1   H20 1309   4.616   5.218   9.246  0.3077 -0.2724 -0.1946
   18CHL1   C21 1310   4.439   5.303   9.320 -0.2370 -1.0906  0.9665
   18CHL1  H21A 1311   4.416   5.335   9.216  1.0905 -2.2110  0.2923
   18CHL1  H21B 1312   4.501   5.383   9.368  1.0507 -0.7386 -1.1466
   18CHL1  H21C 1313   4.346   5.284   9.378 -1.3329  1.5715  0.2451
   18CHL1   C22 1314   4.463   5.073   9.210  0.2415 -0.8986  0.1562
   18CHL1  H22A 1315   4.447   5.116   9.109  2.4165 -1.8718 -0.6554
   18CHL1  H22B 1316   4.531   4.986   9.199  0.5674 -0.4179 -2.2583
   18CHL1   C23 1317   4.320   5.035   9.255 -0.5826 -0.2167 -0.4994
   18CHL1  H23A 1318   4.325   5.025   9.365 -2.1552 -4.5234 -0.6245
   18CHL1  H23B 1319   4.246   5.118   9.246  0.3551  0.6330 -0.5795
   18CHL1   C24 1320   4.279   4.898   9.207  0.3691 -0.1133 -0.0332
   18CHL1  H24A 1321   4.325   4.885   9.107 -0.3609 -0.8839 -0.2802
   18CHL1  H24B 1322   4.310   4.810   9.268  1.6110  0.8647  0.8103
   18CHL1   C25 1323   4.127   4.878   9.200 -0.1671  0.5336  0.5763
   18CHL1   H25 1324   4.096   4.775   9.169  0.2833  0.9154 -1.2396
   18CHL1   C26 1325   4.053   4.908   9.333  0.1689 -0.2301 -0.2971
   18CHL1  H26A 1326   4.096   4.835   9.405  1.1521 -0.5320 -1.1798
   18CHL1  H26B 1327   4.089   5.008   9.366  0.2601 -0.4381  0.2570
   18CHL1  H26C 1328   3.945   4.897   9.309  0.5605  0.2177 -2.4727
   18CHL1   C27 1329   4.073   4.959   9.079  0.3321  0.8168 -1.0256
   18CHL1  H27A 1330   4.123   4.932   8.983  1.2215 -0.0686 -0.3341
   18CHL1  H27B 1331   3.969   4.927   9.059 -0.6750  2.7628  0.7441
   18CHL1  H27C 1332   4.076   5.068   9.101 -0.2068  0.3724  1.4744
   19CHL1    C3 1333   5.386   1.204  10.210 -0.5838  0.5689  0.5681
   19CHL1    H3 1334   5.452   1.115  10.199  0.4374  1.2934  0.7036
   19CHL1    O3 1335   5.397   1.247  10.346  0.2637 -0.1163  0.1035
   19CHL1   H3' 1336   5.371   1.175  10.404  0.2619 -0.0733  0.1565
   19CHL1    C4 1337   5.455   1.313  10.120  0.3318  0.4074 -0.7694
   19CHL1   H4A 1338   5.414   1.416  10.128 -0.4671  0.0419  0.1318
   19CHL1   H4B 1339   5.561   1.327  10.148  0.2538  1.9566 -1.1300
   19CHL1    C5 1340   5.437   1.262   9.977  0.2294 -0.2496 -0.0206
   19CHL1    C6 1341   5.538   1.231   9.896 -0.8826 -0.2092  0.9071
   19CHL1    H6 1342   5.642   1.249   9.927 -0.6839  1.1014 -0.4045
   19CHL1    C7 1343   5.533   1.189   9.752 -0.0659 -0.0595  0.7458
   19CHL1   H7A 1344   5.616   1.241   9.700 -1.7710  0.5505 -1.4885
   19CHL1   H7B 1345   5.552   1.079   9.758 -1.7124 -0.3558  1.2235
   19CHL1    C8 1346   5.397   1.223   9.692 -0.0118  0.4008  0.6533
   19CHL1    H8 1347   5.411   1.332   9.675  1.1620  0.6024  2.5830
   19CHL1   C14 1348   5.379   1.144   9.559 -0.2039  0.0363 -0.8512
   19CHL1   H14 1349   5.378   1.038   9.593  0.2941  0.2016 -0.2987
   19CHL1   C15 1350   5.484   1.162   9.453  0.3275  0.3579 -0.4383
   19CHL1  H15A 1351   5.529   1.264   9.447 -0.0442  0.6764  1.5405
   19CHL1  H15B 1352   5.567   1.094   9.479 -0.2545 -0.0736  0.3329
   19CHL1   C16 1353   5.408   1.128   9.324  0.0713  0.1154  0.6552
   19CHL1  H16A 1354   5.412   1.219   9.261  2.5104  0.4894  1.2595
   19CHL1  H16B 1355   5.461   1.048   9.267 -0.2321  0.5447 -0.2417
   19CHL1   C17 1356   5.263   1.092   9.361 -0.0414 -0.4746 -0.7656
   19CHL1   H17 1357   5.257   0.989   9.404  1.4095  0.1933  1.2163
   19CHL1   C13 1358   5.249   1.179   9.488  0.1469 -0.7008 -0.0590
   19CHL1   C18 1359   5.244   1.336   9.450  0.4884  0.6176 -0.3897
   19CHL1  H18A 1360   5.328   1.371   9.386 -1.0173  0.8402 -2.3714
   19CHL1  H18B 1361   5.150   1.352   9.392  0.2686  0.4544 -0.0789
   19CHL1  H18C 1362   5.235   1.411   9.532  1.4267  1.3174 -0.9104
   19CHL1   C12 1363   5.126   1.142   9.566  0.3971 -0.0916 -0.1414
   19CHL1  H12A 1364   5.033   1.173   9.514 -1.1106 -1.6097  1.5037
   19CHL1  H12B 1365   5.121   1.033   9.590 -1.1971 -0.3530 -1.5084
   19CHL1   C11 1366   5.137   1.218   9.704  0.1437  0.0326 -0.3172
   19CHL1  H11A 1367   5.125   1.328   9.695 -0.7565 -0.0501 -0.2948
   19CHL1  H11B 1368   5.058   1.183   9.773 -0.4001  2.7440  0.5487
   19CHL1    C9 1369   5.272   1.189   9.777 -0.5958  0.2187  0.2603
   19CHL1    H9 1370   5.270   1.079   9.791 -1.4536  0.4343  2.2459
   19CHL1   C10 1371   5.292   1.243   9.922  0.4966 -0.3246 -0.3440
   19CHL1   C19 1372   5.220   1.380   9.927 -0.2076 -0.8262 -0.0962
   19CHL1  H19A 1373   5.109   1.370   9.920 -0.4630  1.2477  0.4331
   19CHL1  H19B 1374   5.228   1.435  10.023 -1.4968 -0.8144  0.0247
   19CHL1  H19C 1375   5.252   1.437   9.837 -1.3007 -1.5994 -1.0123
   19CHL1    C1 1376   5.222   1.145  10.020  0.5154  0.3021 -0.6241
   19CHL1   H1A 1377   5.113   1.152  10.000  0.2393 -1.1714  0.2532
   19CHL1   H1B 1378   5.247   1.039   9.998 -4.0886 -0.8777 -1.1122
   19CHL1    C2 1379   5.244   1.177  10.172 -0.0325  1.0049  0.2939
   19CHL1   H2A 1380   5.199   1.101  10.239 -1.0276 -0.2016 -1.6616
   19CHL1   H2B 1381   5.189   1.273  10.187  0.3658  1.4153 -0.7402
   19CHL1   C20 1382   5.158   1.110   9.242  0.3215 -0.0199 -1.0007
   19CHL1   H20 1383   5.069   1.160   9.285  1.0198  0.7022 -0.3541
   19CHL1   C21 1384   5.125   0.963   9.193  0.4479 -0.5459 -0.1783
   19CHL1  H21A 1385   5.217   0.917   9.151  0.0734  1.1951 -3.1214
   19CHL1  H21B 1386   5.054   0.964   9.108 -0.5668  2.3078  0.6008
   19CHL1  H21C 1387   5.071   0.918   9.279  1.1266  0.9562  1.0810
   19CHL1   C22 1388   5.198   1.185   9.118 -0.1564  0.3230  0.0483
   19CHL1  H22A 1389   5.224   1.290   9.144  0.8216  0.7333 -2.3368
   19CHL1  H22B 1390   5.289   1.147   9.067  0.5943  1.6226  0.3648
   19CHL1   C23 1391   5.080   1.219   9.020  0.1618 -0.2938  0.0005
   19CHL1  H23A 1392   5.034   1.125   8.983  1.3429 -1.7032  1.8992
   19CHL1  H23B 1393   5.004   1.270   9.083  0.0406 -0.4399 -0.0255
   19CHL1   C24 1394   5.126   1.300   8.898  0.6499 -0.5969  0.3095
   19CHL1  H24A 1395   5.026   1.325   8.858 -0.3332 -1.4469  2.1421
   19CHL1  H24B 1396   5.177   1.396   8.921 -0.4337 -0.4043  2.0455
   19CHL1   C25 1397   5.213   1.223   8.795  0.0842  0.1732 -0.4608
   19CHL1   H25 1398   5.317   1.223   8.833 -0.0123  1.0709 -0.1784
   19CHL1   C26 1399   5.176   1.073   8.762 -0.4414 -0.0167 -0.0240
   19CHL1  H26A 1400   5.067   1.064   8.741 -0.6541 -1.0251  1.3346
   19CHL1  H26B 1401   5.234   1.030   8.678 -0.5989  1.0063 -0.6660
   19CHL1  H26C 1402   5.194   1.010   8.852 -0.7219  1.6258  1.2298
   19CHL1   C27 1403   5.194   1.306   8.667 -0.2982 -0.0052  0.2398
   19CHL1  H27A 1404   5.224   1.255   8.573  1.7177  0.3801  0.6381
   19CHL1  H27B 1405   5.085   1.328   8.660 -0.2900 -0.3910 -1.6746
   19CHL1  H27C 1406   5.243   1.406   8.675 -1.3232  0.3803  2.4743
   20CHL1    C3 1407   1.727   5.776  10.345 -0.6817  0.2419 -0.1252
   20CHL1    H3 1408   1.649   5.834  10.292 -0.3010  0.4880 -0.4191
   20CHL1    O3 1409   1.707   5.770  10.486 -0.0756 -0.0043  0.3798
   20CHL1   H3' 1410   1.706   5.863  10.511 -0.1699 -0.2022  1.1240
   20CHL1    C4 1411   1.723   5.638  10.279 -0.0677  0.5871 -0.4013
   20CHL1   H4A 1412   1.787   5.557  10.320 -1.0618 -0.4557 -0.8361
   20CHL1   H4B 1413   1.621   5.597  10.298  0.0011 -0.6044 -2.3818
   20CHL1    C5 1414   1.754   5.642  10.126 -0.6671 -0.2903  0.1099
   20CHL1    C6 1415   1.673   5.586  10.036 -0.4298 -0.3513 -0.4490
   20CHL1    H6 1416   1.593   5.521  10.076  0.5763 -0.9090  0.7313
   20CHL1    C7 1417   1.698   5.586   9.889 -0.2559 -0.1942 -0.9901
   20CHL1   H7A 1418   1.673   5.492   9.835  2.3410  0.2032 -3.0786
   20CHL1   H7B 1419   1.614   5.648   9.851 -0.0120  0.4473 -0.5004
   20CHL1    C8 1420   1.832   5.646   9.844  0.4573  0.5538 -0.1633
   20CHL1    H8 1421   1.906   5.564   9.833  0.6246  0.9870 -2.8280
   20CHL1   C14 1422   1.819   5.709   9.707 -0.2641  0.2679 -0.5609
   20CHL1   H14 1423   1.759   5.801   9.726  2.2736  1.9172 -0.0835
   20CHL1   C15 1424   1.758   5.619   9.604  0.9430  0.1295  0.4692
   20CHL1  H15A 1425   1.800   5.516   9.607 -0.8863 -0.6550  1.5018
   20CHL1  H15B 1426   1.648   5.605   9.615  1.1409 -1.2984  0.8555
   20CHL1   C16 1427   1.805   5.685   9.470 -0.1524 -0.3258  0.7001
   20CHL1  H16A 1428   1.856   5.608   9.407 -0.8494 -0.8617  0.7694
   20CHL1  H16B 1429   1.716   5.722   9.414  0.2716  0.1611  0.3466
   20CHL1   C17 1430   1.902   5.803   9.505 -0.6221 -0.1551 -0.1832
   20CHL1   H17 1431   1.843   5.897   9.510  0.8668  0.7891  0.5763
   20CHL1   C13 1432   1.949   5.765   9.653 -0.0726  0.9259  0.6137
   20CHL1   C18 1433   2.063   5.661   9.638  0.1532  0.3394  0.0151
   20CHL1  H18A 1434   2.155   5.704   9.594  1.0644 -1.0282  0.5142
   20CHL1  H18B 1435   2.112   5.630   9.733  0.6148  1.2245  0.0762
   20CHL1  H18C 1436   2.031   5.568   9.587 -3.1239  1.4069 -0.0821
   20CHL1   C12 1437   1.992   5.877   9.751  0.2598  0.1110 -0.0950
   20CHL1  H12A 1438   2.078   5.942   9.724 -0.1800  1.3525  1.3606
   20CHL1  H12B 1439   1.910   5.951   9.760 -0.4848 -0.1357 -3.4174
   20CHL1   C11 1440   2.012   5.824   9.897  0.5899  0.1711  0.2316
   20CHL1  H11A 1441   2.097   5.753   9.898 -0.0955 -0.6707  0.3463
   20CHL1  H11B 1442   2.038   5.915   9.955  1.6447 -0.9742  1.6229
   20CHL1    C9 1443   1.879   5.754   9.941 -0.0015  0.4038  0.5125
   20CHL1    H9 1444   1.799   5.830   9.925  0.7736  0.8030 -1.9043
   20CHL1   C10 1445   1.879   5.718  10.090  0.3591  1.3114 -0.7024
   20CHL1   C19 1446   2.004   5.629  10.113 -0.6153  0.6664 -0.1197
   20CHL1  H19A 1447   2.000   5.543  10.043 -2.1956 -0.4773  1.2876
   20CHL1  H19B 1448   2.098   5.687  10.098  0.1580 -1.1628 -3.3980
   20CHL1  H19C 1449   2.004   5.581  10.213 -0.4670 -2.2622 -1.4249
   20CHL1    C1 1450   1.889   5.848  10.169 -0.1396 -0.1748 -0.8534
   20CHL1   H1A 1451   1.992   5.888  10.152 -0.1744  0.1713 -0.2678
   20CHL1   H1B 1452   1.815   5.918  10.126 -2.0960 -2.8010 -2.1017
   20CHL1    C2 1453   1.868   5.833  10.321  1.0203  0.4164 -0.2631
   20CHL1   H2A 1454   1.881   5.929  10.375  0.1402  0.2715  0.2286
   20CHL1   H2B 1455   1.938   5.763  10.371 -1.1279 -1.4525  0.2770
   20CHL1   C20 1456   2.011   5.839   9.392  0.1145 -0.5298 -0.7778
   20CHL1   H20 1457   2.065   5.743   9.380  1.3238 -0.1959  1.4667
   20CHL1   C21 1458   2.113   5.944   9.447  0.1965 -0.5046  0.6295
   20CHL1  H21A 1459   2.166   5.983   9.357  0.4245 -3.9676 -0.8747
   20CHL1  H21B 1460   2.180   5.895   9.520 -0.2823 -1.2586  0.5696
   20CHL1  H21C 1461   2.058   6.021   9.505  2.0753  0.5013  1.1437
   20CHL1   C22 1462   1.945   5.888   9.266  0.2793  0.3349  0.5128
   20CHL1  H22A 1463   1.858   5.822   9.242  0.9828 -1.2673  2.1488
   20CHL1  H22B 1464   1.904   5.983   9.305  2.4411  1.1165  0.9707
   20CHL1   C23 1465   2.040   5.896   9.147  0.2874 -0.2299  0.0974
   20CHL1  H23A 1466   2.129   5.955   9.178 -0.0160  1.0749 -1.3727
   20CHL1  H23B 1467   2.072   5.791   9.127 -0.4722 -0.2764 -0.9279
   20CHL1   C24 1468   1.975   5.965   9.021 -0.2237 -0.2020 -0.3390
   20CHL1  H24A 1469   1.878   5.914   9.001 -0.2179 -0.4147  0.1551
   20CHL1  H24B 1470   1.944   6.069   9.047 -1.8150 -1.2191  2.3319
   20CHL1   C25 1471   2.060   5.971   8.897  0.5465 -0.6958  0.4641
   20CHL1   H25 1472   2.112   5.874   8.880 -0.6578 -0.8355 -3.3489
   20CHL1   C26 1473   1.975   5.995   8.775  0.7450 -0.1930  0.3963
   20CHL1  H26A 1474   1.908   6.080   8.801  2.0574  1.1066 -0.3367
   20CHL1  H26B 1475   2.041   6.024   8.691  0.4628 -2.0772 -0.5172
   20CHL1  H26C 1476   1.915   5.907   8.743  0.5879  0.2842 -0.6416
   20CHL1   C27 1477   2.163   6.084   8.911  0.1127 -1.0152  0.5214
   20CHL1  H27A 1478   2.102   6.173   8.935 -1.0383 -1.7086  0.2376
   20CHL1  H27B 1479   2.226   6.071   9.002  0.6138  1.8363  0.6801
   20CHL1  H27C 1480   2.232   6.103   8.826  1.5250 -0.0260  1.8121
   21CHL1    C3 1481   4.494   6.111  10.199  0.3304 -0.2317 -0.8137
   21CHL1    H3 1482   4.477   6.003  10.177 -2.1868 -0.2872  0.9571
   21CHL1    O3 1483   4.455   6.127  10.338  0.1473 -0.2364 -0.4491
   21CHL1   H3' 1484   4.474   6.217  10.368  0.3883 -0.4511  0.0493
   21CHL1    C4 1485   4.638   6.157  10.189 -1.0259  0.4274 -0.2464
   21CHL1   H4A 1486   4.628   6.259  10.233 -0.7532  1.0787 -1.6507
   21CHL1   H4B 1487   4.705   6.102  10.259  0.5697 -0.4830 -2.3714
   21CHL1    C5 1488   4.698   6.171  10.055  0.3877  0.3336 -0.3543
   21CHL1    C6 1489   4.813   6.112  10.032 -0.8780 -0.6986  0.3886
   21CHL1    H6 1490   4.865   6.067  10.118  1.3869  2.6395  0.9685
   21CHL1    C7 1491   4.873   6.117   9.889  0.4509  0.0022 -0.5158
   21CHL1   H7A 1492   4.983   6.133   9.891  0.4731  0.1979  3.2763
   21CHL1   H7B 1493   4.859   6.015   9.846  2.0957 -0.1057 -0.8486
   21CHL1    C8 1494   4.803   6.227   9.800 -0.2647 -0.0245 -0.2981
   21CHL1    H8 1495   4.844   6.319   9.846  1.3714  0.6350 -2.8589
   21CHL1   C14 1496   4.847   6.214   9.653 -0.0282 -0.0832 -0.5461
   21CHL1   H14 1497   4.821   6.110   9.624  0.0138  0.3957 -2.3739
   21CHL1   C15 1498   5.003   6.214   9.635 -0.7766  0.3078  0.5303
   21CHL1  H15A 1499   5.052   6.286   9.704 -2.6392  3.2822 -1.0174
   21CHL1  H15B 1500   5.043   6.111   9.641 -1.4847 -0.1584 -1.6957
   21CHL1   C16 1501   5.020   6.261   9.488 -0.1682  0.7522 -0.1585
   21CHL1  H16A 1502   5.073   6.359   9.485 -0.2991  0.8083 -0.6472
   21CHL1  H16B 1503   5.072   6.192   9.419  2.9365  1.8239  0.9367
   21CHL1   C17 1504   4.870   6.291   9.429 -0.4799 -0.7159  0.0826
   21CHL1   H17 1505   4.838   6.193   9.388 -0.6812 -0.2770 -0.8574
   21CHL1   C13 1506   4.787   6.311   9.557  0.6489 -0.1139  0.1213
   21CHL1   C18 1507   4.811   6.456   9.594 -0.1605 -0.5827 -0.1141
   21CHL1  H18A 1508   4.915   6.489   9.575 -0.2142  0.8166  1.7150
   21CHL1  H18B 1509   4.750   6.527   9.534  1.6499  0.8267 -0.3629
   21CHL1  H18C 1510   4.792   6.484   9.700 -1.0557 -0.1095 -0.3872
   21CHL1   C12 1511   4.634   6.279   9.552  0.0637  0.4206 -0.1917
   21CHL1  H12A 1512   4.595   6.358   9.485 -1.2258 -1.4417 -1.7679
   21CHL1  H12B 1513   4.612   6.175   9.518 -2.1110  0.7021  0.2423
   21CHL1   C11 1514   4.575   6.295   9.692 -0.7623 -0.1992 -0.2368
   21CHL1  H11A 1515   4.566   6.406   9.700  0.5771  0.0258 -1.4016
   21CHL1  H11B 1516   4.466   6.273   9.699 -0.9846  1.0901  0.8583
   21CHL1    C9 1517   4.650   6.224   9.807 -0.9845 -0.3203 -0.1251
   21CHL1    H9 1518   4.626   6.120   9.773  2.5782 -1.0038 -0.9517
   21CHL1   C10 1519   4.606   6.245   9.947 -0.1513  1.2021 -0.0914
   21CHL1   C19 1520   4.612   6.390   9.996 -0.5860 -0.4164 -0.0980
   21CHL1  H19A 1521   4.718   6.423   9.993 -0.0804 -1.7277  1.6945
   21CHL1  H19B 1522   4.544   6.456   9.938 -1.1049 -0.6230  0.2697
   21CHL1  H19C 1523   4.588   6.403  10.104  1.0921  1.6150  0.1080
   21CHL1    C1 1524   4.458   6.194   9.965 -0.6601 -0.0284 -0.1979
   21CHL1   H1A 1525   4.397   6.267   9.907  0.9694  0.7546 -0.9761
   21CHL1   H1B 1526   4.446   6.090   9.927 -0.6309 -0.5032  1.0235
   21CHL1    C2 1527   4.400   6.189  10.105  1.6295 -0.4780 -0.9804
   21CHL1   H2A 1528   4.294   6.159  10.119  1.6228  0.0821  0.2764
   21CHL1   H2B 1529   4.384   6.294  10.137 -0.4486 -1.0105 -0.1159
   21CHL1   C20 1530   4.859   6.388   9.310 -0.0519  0.3592  0.1500
   21CHL1   H20 1531   4.854   6.493   9.345  1.8242  0.3070  0.6767
   21CHL1   C21 1532   4.728   6.349   9.243 -0.0590  0.5426  1.1894
   21CHL1  H21A 1533   4.729   6.240   9.223  0.2251  0.5844  0.9764
   21CHL1  H21B 1534   4.702   6.414   9.157  0.5343  0.0609  0.6371
   21CHL1  H21C 1535   4.634   6.358   9.302 -1.5356 -1.4940 -0.6947
   21CHL1   C22 1536   4.978   6.380   9.209 -0.0760  0.2298 -0.7272
   21CHL1  H22A 1537   5.079   6.377   9.257  0.0980 -2.1540 -1.1463
   21CHL1  H22B 1538   4.969   6.279   9.164 -0.4648  0.0751 -0.3190
   21CHL1   C23 1539   4.972   6.483   9.103 -0.1096  0.1798 -0.4107
   21CHL1  H23A 1540   4.868   6.504   9.070 -0.3886  1.5642  1.1969
   21CHL1  H23B 1541   5.020   6.571   9.151  0.3552  0.0247 -0.5959
   21CHL1   C24 1542   5.048   6.453   8.974 -0.1520 -0.0312  0.0706
   21CHL1  H24A 1543   5.154   6.438   9.006 -0.6550 -1.5163  1.1594
   21CHL1  H24B 1544   4.995   6.361   8.942 -3.4126  1.6882  0.1108
   21CHL1   C25 1545   5.042   6.562   8.874 -0.4140 -0.1290 -0.4850
   21CHL1   H25 1546   5.066   6.660   8.920 -0.8677  0.6230 -1.8110
   21CHL1   C26 1547   5.145   6.531   8.757  0.5930  0.1771  0.3385
   21CHL1  H26A 1548   5.237   6.586   8.785  0.4870  1.2834 -1.3327
   21CHL1  H26B 1549   5.151   6.421   8.740 -0.0401  0.1503  0.2517
   21CHL1  H26C 1550   5.114   6.569   8.657  0.3846 -2.3430 -0.6401
   21CHL1   C27 1551   4.908   6.588   8.804 -0.4754  0.1273 -0.6550
   21CHL1  H27A 1552   4.817   6.596   8.867  0.0508  1.0145  0.0157
   21CHL1  H27B 1553   4.917   6.670   8.730  1.5670  0.6348  0.0880
   21CHL1  H27C 1554   4.897   6.503   8.734 -1.8717  0.0294 -0.3463
   22CHL1    C3 1555   1.903   2.070  10.093 -0.0040 -0.0979 -0.5275
   22CHL1    H3 1556   1.870   2.171  10.124  0.7268  0.1349 -0.5051
   22CHL1    O3 1557   1.879   1.991  10.207 -0.1963  0.5390  0.5541
   22CHL1   H3' 1558   1.956   1.935  10.212  0.1051  0.8984  0.0676
   22CHL1    C4 1559   1.825   2.022   9.971  0.5648 -0.6961  0.3951
   22CHL1   H4A 1560   1.853   1.916   9.959  1.3793 -0.4618  0.1645
   22CHL1   H4B 1561   1.716   2.029   9.993  0.8167  2.3336  1.1497
   22CHL1    C5 1562   1.852   2.099   9.836  0.3757  0.0637 -0.8005
   22CHL1    C6 1563   1.751   2.155   9.768  0.4752  0.0880 -0.1324
   22CHL1    H6 1564   1.650   2.118   9.790 -0.0027 -0.1183 -2.3754
   22CHL1    C7 1565   1.767   2.241   9.650  0.5489  1.0270  0.5849
   22CHL1   H7A 1566   1.709   2.215   9.559 -1.1572  0.6730  1.7343
   22CHL1   H7B 1567   1.760   2.349   9.675 -3.5883  0.6082  1.8800
   22CHL1    C8 1568   1.917   2.230   9.595 -0.6018 -0.7287 -0.2360
   22CHL1    H8 1569   1.924   2.131   9.545  0.5674 -2.3061  2.7769
   22CHL1   C14 1570   1.940   2.329   9.486 -0.0590  0.5369  0.3504
   22CHL1   H14 1571   1.927   2.435   9.518  2.1353  1.0229 -0.2390
   22CHL1   C15 1572   1.845   2.322   9.360 -0.4685  0.6989 -0.4640
   22CHL1  H15A 1573   1.821   2.214   9.345 -0.9217  0.3470  2.3155
   22CHL1  H15B 1574   1.749   2.375   9.374  0.6321  3.0031 -1.1522
   22CHL1   C16 1575   1.923   2.388   9.251  0.9742 -0.1664  0.1227
   22CHL1  H16A 1576   1.931   2.310   9.173 -0.6161 -1.2626  1.0177
   22CHL1  H16B 1577   1.873   2.475   9.203  1.7806  1.2369  1.7075
   22CHL1   C17 1578   2.055   2.427   9.312  0.1200 -0.4813 -0.4397
   22CHL1   H17 1579   2.042   2.525   9.364  2.5539 -1.0216  1.3554
   22CHL1   C13 1580   2.080   2.326   9.428 -0.1196 -0.0759  0.7049
   22CHL1   C18 1581   2.120   2.183   9.368  0.3807  0.1218 -0.2743
   22CHL1  H18A 1582   2.048   2.166   9.284  1.5138 -1.6565 -0.9542
   22CHL1  H18B 1583   2.223   2.191   9.326  0.2154  2.5726 -0.3288
   22CHL1  H18C 1584   2.112   2.111   9.452 -0.1916  0.5788  0.0627
   22CHL1   C12 1585   2.172   2.379   9.538 -0.5460  0.3449  0.2173
   22CHL1  H12A 1586   2.279   2.385   9.508 -0.1971 -2.3535  0.6878
   22CHL1  H12B 1587   2.144   2.478   9.580  1.2702  0.5271  1.0703
   22CHL1   C11 1588   2.156   2.285   9.662  0.0788 -0.1044  0.3699
   22CHL1  H11A 1589   2.205   2.187   9.644 -0.5469 -0.5454  0.9873
   22CHL1  H11B 1590   2.205   2.335   9.748  1.4551 -0.1922 -0.3310
   22CHL1    C9 1591   2.012   2.254   9.714  0.6286 -0.1870 -0.0237
   22CHL1    H9 1592   1.984   2.351   9.760  0.6064 -0.5962  0.8421
   22CHL1   C10 1593   2.001   2.143   9.815  0.6885  0.1772 -0.0855
   22CHL1   C19 1594   2.061   2.013   9.758  0.2213  0.0181 -0.4046
   22CHL1  H19A 1595   2.015   1.984   9.661  0.7324  2.4193 -1.4384
   22CHL1  H19B 1596   2.169   2.021   9.735  0.2174 -0.0038 -0.4315
   22CHL1  H19C 1597   2.059   1.929   9.830 -0.3385 -0.7301 -1.2661
   22CHL1    C1 1598   2.074   2.183   9.950 -0.0039 -0.1255  0.4626
   22CHL1   H1A 1599   2.182   2.177   9.924 -0.1294 -0.5278  0.0117
   22CHL1   H1B 1600   2.042   2.287   9.974  1.3778  0.9318 -1.9305
   22CHL1    C2 1601   2.050   2.081  10.061 -0.0077  0.3515 -0.1540
   22CHL1   H2A 1602   2.101   2.127  10.148  2.1132 -0.8981 -0.6757
   22CHL1   H2B 1603   2.092   1.978  10.063 -0.7132  0.0531 -0.2266
   22CHL1   C20 1604   2.183   2.443   9.214  0.6947 -0.2370 -1.3478
   22CHL1   H20 1605   2.264   2.411   9.283 -2.0542 -0.2822  2.1433
   22CHL1   C21 1606   2.200   2.589   9.176 -0.1940  0.3785 -0.1099
   22CHL1  H21A 1607   2.137   2.626   9.093 -0.9120  2.2269  1.1988
   22CHL1  H21B 1608   2.305   2.603   9.141 -0.5474 -0.1349 -1.4108
   22CHL1  H21C 1609   2.174   2.653   9.263 -1.2278 -0.9620  0.6135
   22CHL1   C22 1610   2.187   2.344   9.093  0.2250 -0.2648 -0.2951
   22CHL1  H22A 1611   2.170   2.240   9.125 -0.2590 -0.0668  0.0915
   22CHL1  H22B 1612   2.099   2.370   9.030 -0.8361  1.1374  1.6749
   22CHL1   C23 1613   2.319   2.332   9.015  0.5007 -0.2066 -0.5783
   22CHL1  H23A 1614   2.360   2.423   8.968  0.4891 -0.6245 -1.4188
   22CHL1  H23B 1615   2.398   2.325   9.093 -0.8383 -0.8819  0.7855
   22CHL1   C24 1616   2.331   2.215   8.918 -0.2950 -0.1126 -0.8533
   22CHL1  H24A 1617   2.438   2.209   8.889  0.7944 -2.5289  2.9043
   22CHL1  H24B 1618   2.307   2.121   8.971  1.6998 -0.9075 -1.2918
   22CHL1   C25 1619   2.251   2.226   8.788 -0.6964 -0.3227  0.6532
   22CHL1   H25 1620   2.149   2.262   8.810  0.1932  1.3815  2.2539
   22CHL1   C26 1621   2.315   2.329   8.687  0.3397 -0.8701  0.1590
   22CHL1  H26A 1622   2.421   2.307   8.662  0.7545  1.5213 -0.4831
   22CHL1  H26B 1623   2.268   2.318   8.586  2.2088  0.6212 -0.9487
   22CHL1  H26C 1624   2.312   2.436   8.716 -1.2490 -1.2784  1.6789
   22CHL1   C27 1625   2.253   2.088   8.715 -0.2731 -0.3371  0.2977
   22CHL1  H27A 1626   2.187   2.116   8.630  0.5581  1.4180  0.1935
   22CHL1  H27B 1627   2.349   2.044   8.679 -2.1612 -5.3396  0.6253
   22CHL1  H27C 1628   2.200   2.019   8.784 -3.1573  2.5068  1.1833
   23CHL1    C3 1629   1.177   4.407  10.166 -1.0071  0.6184 -0.0674
   23CHL1    H3 1630   1.280   4.370  10.183 -1.1694  0.5415  0.7997
   23CHL1    O3 1631   1.104   4.409  10.283  0.3689  0.2016 -0.7328
   23CHL1   H3' 1632   1.140   4.485  10.330  1.8798 -2.0232  2.0450
   23CHL1    C4 1633   1.190   4.554  10.116 -0.4776  0.1422 -0.3619
   23CHL1   H4A 1634   1.092   4.605  10.129 -0.4557  0.1137 -0.0847
   23CHL1   H4B 1635   1.262   4.586  10.194 -0.8293 -1.2324  0.5655
   23CHL1    C5 1636   1.231   4.575   9.969  0.2056  0.6043 -0.1557
   23CHL1    C6 1637   1.327   4.665   9.940  0.4650 -0.2393 -0.6547
   23CHL1    H6 1638   1.370   4.717  10.027  2.4103 -0.5330 -1.3826
   23CHL1    C7 1639   1.379   4.688   9.799 -1.0570  0.0530  0.5788
   23CHL1   H7A 1640   1.402   4.789   9.761 -1.6506 -0.9369 -2.7225
   23CHL1   H7B 1641   1.475   4.633   9.782 -0.7387  1.2634 -1.9347
   23CHL1    C8 1642   1.277   4.636   9.691  0.2229  0.0328  0.1375
   23CHL1    H8 1643   1.193   4.709   9.693 -0.4271 -0.7120  1.8951
   23CHL1   C14 1644   1.330   4.631   9.539  0.0195 -0.1652 -0.2769
   23CHL1   H14 1645   1.420   4.566   9.536  0.8638  0.8585  1.1956
   23CHL1   C15 1646   1.381   4.761   9.480 -0.1433  0.1941 -0.8738
   23CHL1  H15A 1647   1.321   4.854   9.494  0.3750  0.7881 -2.3489
   23CHL1  H15B 1648   1.480   4.769   9.530 -1.3094  0.3842  1.5343
   23CHL1   C16 1649   1.392   4.727   9.332  0.3070 -0.5196  0.5145
   23CHL1  H16A 1650   1.354   4.814   9.274  3.1921 -0.0603 -0.8455
   23CHL1  H16B 1651   1.499   4.720   9.302  0.6159  2.1172  0.7223
   23CHL1   C17 1652   1.309   4.597   9.309 -0.7004 -0.1912  0.3897
   23CHL1   H17 1653   1.383   4.515   9.304 -0.3365 -0.5461  6.0734
   23CHL1   C13 1654   1.233   4.570   9.434  0.8809 -0.0675  0.3094
   23CHL1   C18 1655   1.100   4.660   9.429 -0.3490 -0.0933  0.1951
   23CHL1  H18A 1656   1.022   4.637   9.353 -1.6268  2.4539  0.6481
   23CHL1  H18B 1657   1.047   4.664   9.527  2.3471 -1.6371  1.8434
   23CHL1  H18C 1658   1.132   4.764   9.409 -1.3533 -0.1479 -2.0282
   23CHL1   C12 1659   1.214   4.432   9.479  0.1582  0.4444  0.2178
   23CHL1  H12A 1660   1.154   4.381   9.401  0.7223 -1.0282  0.7257
   23CHL1  H12B 1661   1.318   4.394   9.482  1.2231  3.1367  0.2946
   23CHL1   C11 1662   1.143   4.420   9.612 -0.5920  0.4614  0.3120
   23CHL1  H11A 1663   1.044   4.465   9.589 -0.2011  0.2439 -1.9968
   23CHL1  H11B 1664   1.133   4.312   9.635  0.0273  0.3217 -0.0532
   23CHL1    C9 1665   1.226   4.488   9.725 -0.2294  0.1593  0.5139
   23CHL1    H9 1666   1.320   4.429   9.734  1.4113  2.4353 -0.7653
   23CHL1   C10 1667   1.168   4.480   9.868 -0.0469 -0.1320  0.5810
   23CHL1   C19 1668   1.028   4.552   9.856 -0.1416 -0.0058 -0.2893
   23CHL1  H19A 1669   1.027   4.653   9.808  0.8421 -0.0228 -0.3483
   23CHL1  H19B 1670   0.959   4.484   9.801 -1.5875  0.4309  0.8992
   23CHL1  H19C 1671   0.977   4.569   9.953  3.3706  2.8832  1.2705
   23CHL1    C1 1672   1.161   4.335   9.924 -1.0682  0.6257  0.1814
   23CHL1   H1A 1673   1.114   4.266   9.852 -0.4793  0.1300  0.2609
   23CHL1   H1B 1674   1.268   4.307   9.931 -0.5798  2.1542 -0.5513
   23CHL1    C2 1675   1.099   4.318  10.068 -0.6582  0.1136 -0.3567
   23CHL1   H2A 1676   1.093   4.214  10.109  0.4240  0.3018  0.3038
   23CHL1   H2B 1677   0.993   4.350  10.055 -1.6996 -2.0111  1.9661
   23CHL1   C20 1678   1.236   4.600   9.167  0.1818  0.5693 -0.5996
   23CHL1   H20 1679   1.170   4.690   9.173 -1.1318 -0.4749  2.7565
   23CHL1   C21 1680   1.165   4.462   9.159 -0.5326 -0.4155 -0.1388
   23CHL1  H21A 1681   1.241   4.383   9.179 -0.2434 -0.8249 -2.5892
   23CHL1  H21B 1682   1.149   4.439   9.052  1.8410 -0.5445 -0.5040
   23CHL1  H21C 1683   1.072   4.457   9.221 -2.1215  0.2112 -2.3524
   23CHL1   C22 1684   1.341   4.607   9.061 -0.2536 -0.3053 -0.6770
   23CHL1  H22A 1685   1.421   4.680   9.088  1.8353 -3.6351  3.2328
   23CHL1  H22B 1686   1.405   4.517   9.070  3.2653  1.9434 -1.0401
   23CHL1   C23 1687   1.284   4.633   8.918 -0.5611 -0.8100 -0.8300
   23CHL1  H23A 1688   1.249   4.536   8.876 -0.2870 -0.5562 -1.6697
   23CHL1  H23B 1689   1.200   4.704   8.935  0.5118  0.5223 -0.8684
   23CHL1   C24 1690   1.373   4.712   8.819 -0.5486  0.3758 -0.1419
   23CHL1  H24A 1691   1.386   4.816   8.855  0.2495  0.4882 -0.7207
   23CHL1  H24B 1692   1.471   4.660   8.815 -0.7445 -0.0158  0.1083
   23CHL1   C25 1693   1.321   4.710   8.679  0.7283 -0.4335  0.2077
   23CHL1   H25 1694   1.216   4.675   8.695  0.6542  0.1863  1.1649
   23CHL1   C26 1695   1.327   4.839   8.605 -0.4131  0.1615  0.6751
   23CHL1  H26A 1696   1.436   4.855   8.591  0.0058 -3.5490 -1.3419
   23CHL1  H26B 1697   1.270   4.833   8.510  0.9587  2.6444 -0.3935
   23CHL1  H26C 1698   1.287   4.930   8.655 -1.4118 -0.6733  1.4408
   23CHL1   C27 1699   1.384   4.607   8.593  0.5144  0.4766  0.8539
   23CHL1  H27A 1700   1.322   4.567   8.510  0.0840 -0.5126  1.6158
   23CHL1  H27B 1701   1.483   4.638   8.553  1.7886 -0.8170  2.7832
   23CHL1  H27C 1702   1.392   4.509   8.646  0.2704  1.4115  2.6906
   24CHL1    C3 1703   6.030   2.096  10.074  0.5850 -0.1764  0.2155
   24CHL1    H3 1704   5.948   2.023  10.055  0.0719  0.3927  0.2073
   24CHL1    O3 1705   6.037   2.120  10.215 -0.7799  0.5032  0.1180
   24CHL1   H3' 1706   6.124   2.155  10.231 -0.9167  0.7681  0.2934
   24CHL1    C4 1707   6.160   2.044  10.018  0.0357 -0.4033 -1.1986
   24CHL1   H4A 1708   6.244   2.115  10.032  0.8183 -1.1213 -2.1523
   24CHL1   H4B 1709   6.190   1.961  10.086  0.0280  0.3660 -0.2248
   24CHL1    C5 1710   6.143   2.025   9.869  0.5179 -0.5468 -0.2034
   24CHL1    C6 1711   6.181   1.904   9.819  0.1348 -0.2563 -0.0831
   24CHL1    H6 1712   6.216   1.821   9.883  0.4207 -2.5975 -3.0514
   24CHL1    C7 1713   6.170   1.873   9.673 -0.6795  0.1542 -0.2089
   24CHL1   H7A 1714   6.267   1.829   9.641 -0.2627  1.6675 -1.1549
   24CHL1   H7B 1715   6.088   1.800   9.664  1.3337 -2.7731  2.8699
   24CHL1    C8 1716   6.144   1.990   9.576  0.5388  0.3494  0.7109
   24CHL1    H8 1717   6.236   2.050   9.564 -0.3495  1.5950 -0.0618
   24CHL1   C14 1718   6.095   1.940   9.439 -0.2534  0.5293 -0.3774
   24CHL1   H14 1719   6.003   1.884   9.465  1.0134 -0.4649  2.2995
   24CHL1   C15 1720   6.178   1.840   9.354 -0.1921 -0.6917  1.2054
   24CHL1  H15A 1721   6.284   1.871   9.359 -0.7552  1.3726  1.3090
   24CHL1  H15B 1722   6.166   1.739   9.398  0.3559  0.1656  3.4864
   24CHL1   C16 1723   6.120   1.860   9.218 -0.0890  0.0436  0.8503
   24CHL1  H16A 1724   6.203   1.888   9.150 -0.5751 -1.2941 -0.3626
   24CHL1  H16B 1725   6.065   1.772   9.177  1.4185 -1.0026  1.0091
   24CHL1   C17 1726   6.008   1.974   9.224  0.5569  0.2890 -0.0431
   24CHL1   H17 1727   5.914   1.921   9.251  0.6578 -1.0425 -2.1057
   24CHL1   C13 1728   6.046   2.052   9.350  0.5272 -0.3984 -0.2117
   24CHL1   C18 1729   6.170   2.150   9.311  0.6996  0.2259 -0.3981
   24CHL1  H18A 1730   6.210   2.202   9.400  0.3735  1.2009 -0.8054
   24CHL1  H18B 1731   6.244   2.091   9.253  0.4440 -1.9952  1.3790
   24CHL1  H18C 1732   6.145   2.231   9.239 -0.3347 -0.8841 -1.3304
   24CHL1   C12 1733   5.929   2.132   9.424 -0.2618 -0.8261  0.3736
   24CHL1  H12A 1734   5.898   2.213   9.354  0.0208 -1.1695 -0.1553
   24CHL1  H12B 1735   5.850   2.058   9.446 -2.5662  1.2266 -0.5126
   24CHL1   C11 1736   5.988   2.188   9.555  0.1027  0.2808 -0.2818
   24CHL1  H11A 1737   6.068   2.260   9.526  0.2989  0.7139  1.2394
   24CHL1  H11B 1738   5.908   2.247   9.603 -1.0889  1.0473 -3.0131
   24CHL1    C9 1739   6.043   2.076   9.650  0.1618  0.1633  0.4736
   24CHL1    H9 1740   5.964   2.001   9.673  2.3303 -2.1372  0.9094
   24CHL1   C10 1741   6.088   2.138   9.788  0.3690 -0.3165  0.1962
   24CHL1   C19 1742   6.202   2.235   9.765 -0.7697 -0.3692  0.1500
   24CHL1  H19A 1743   6.185   2.322   9.698  0.4861  0.0950  0.4104
   24CHL1  H19B 1744   6.213   2.282   9.865  0.5272 -0.5999  0.1248
   24CHL1  H19C 1745   6.298   2.185   9.743  0.0641  1.9467 -1.9973
   24CHL1    C1 1746   5.966   2.206   9.852 -0.5010 -0.0089  0.0807
   24CHL1   H1A 1747   5.936   2.302   9.805  2.2863  1.3386  0.8486
   24CHL1   H1B 1748   5.879   2.138   9.841  0.3912 -1.2857  0.7533
   24CHL1    C2 1749   5.976   2.226  10.003  0.0665  0.2936 -0.2260
   24CHL1   H2A 1750   5.878   2.230  10.055  0.9785  0.4517  1.5720
   24CHL1   H2B 1751   6.030   2.317  10.035 -1.9988  0.6384  2.7547
   24CHL1   C20 1752   5.994   2.034   9.082  1.1623 -0.5275 -0.0398
   24CHL1   H20 1753   6.089   2.083   9.049 -0.4200  1.9107 -1.2358
   24CHL1   C21 1754   5.885   2.138   9.085  0.3076 -0.4480 -0.2099
   24CHL1  H21A 1755   5.783   2.096   9.099  0.5692 -1.2268 -0.5971
   24CHL1  H21B 1756   5.881   2.186   8.985 -0.7433 -0.6347 -0.2690
   24CHL1  H21C 1757   5.904   2.227   9.149 -1.9275  0.8110 -1.1786
   24CHL1   C22 1758   5.970   1.934   8.968 -0.3092  0.6041 -0.0630
   24CHL1  H22A 1759   5.977   1.978   8.866 -0.8446 -0.5812 -0.6354
   24CHL1  H22B 1760   6.051   1.860   8.981 -1.1024 -0.3296 -0.2797
   24CHL1   C23 1761   5.832   1.858   8.969 -0.5954 -0.4796  0.3325
   24CHL1  H23A 1762   5.781   1.845   9.067 -1.2414 -1.4821 -0.1221
   24CHL1  H23B 1763   5.763   1.909   8.898 -0.0628 -0.2197 -0.0040
   24CHL1   C24 1764   5.848   1.716   8.927  0.5879  0.1393 -0.5773
   24CHL1  H24A 1765   5.921   1.657   8.987  1.2539 -0.8085 -2.2504
   24CHL1  H24B 1766   5.760   1.651   8.947  0.4241  0.6911  0.6051
   24CHL1   C25 1767   5.876   1.691   8.775 -0.0131  0.8406  0.0640
   24CHL1   H25 1768   5.983   1.710   8.750 -0.6237  3.4173 -0.9460
   24CHL1   C26 1769   5.839   1.540   8.737  0.7014  0.2792  0.5271
   24CHL1  H26A 1770   5.904   1.459   8.777  2.0670  0.1337 -1.7692
   24CHL1  H26B 1771   5.739   1.517   8.778  0.1389  1.4918 -0.1111
   24CHL1  H26C 1772   5.835   1.528   8.627  2.2234 -0.6490  0.5418
   24CHL1   C27 1773   5.791   1.780   8.680  0.0464  0.0827 -0.1193
   24CHL1  H27A 1774   5.819   1.887   8.691  1.7285 -0.2535 -0.7881
   24CHL1  H27B 1775   5.818   1.749   8.577  0.5127 -0.5959  0.1976
   24CHL1  H27C 1776   5.686   1.770   8.714  0.8124 -0.7606  2.1898
   25CHL1    C3 1777   0.036   3.124  10.117  0.6799  0.3283 -0.5760
   25CHL1    H3 1778   0.145   3.147  10.118  0.6442  0.6572 -1.8604
   25CHL1    O3 1779  -0.021   3.089  10.237 -0.2769 -0.3756 -0.6103
   25CHL1   H3' 1780  -0.111   3.056  10.228 -0.3549 -1.0912  1.8953
   25CHL1    C4 1781  -0.037   3.245  10.060  0.0463 -0.4827  0.3634
   25CHL1   H4A 1782  -0.147   3.228  10.068 -0.3009  1.8967  2.0684
   25CHL1   H4B 1783  -0.012   3.327  10.131 -1.4164 -0.8356  1.3289
   25CHL1    C5 1784   0.003   3.276   9.916 -0.4698 -0.2925  0.0179
   25CHL1    C6 1785   0.043   3.401   9.881 -0.3203  0.2297  0.4927
   25CHL1    H6 1786   0.047   3.482   9.955 -3.2145  1.1870 -0.2671
   25CHL1    C7 1787   0.082   3.440   9.733 -0.7013  0.2107  0.0810
   25CHL1   H7A 1788   0.042   3.543   9.725 -0.2888  0.5020  1.4468
   25CHL1   H7B 1789   0.192   3.458   9.728 -1.0939  2.5620 -2.9617
   25CHL1    C8 1790   0.037   3.342   9.625 -0.2772  0.0701 -0.1923
   25CHL1    H8 1791  -0.072   3.359   9.614 -0.5122  0.1345  1.8124
   25CHL1   C14 1792   0.098   3.366   9.492  0.6948 -0.6102 -0.0350
   25CHL1   H14 1793   0.207   3.359   9.512  0.5860  0.8063  1.2044
   25CHL1   C15 1794   0.070   3.503   9.430  0.1686 -0.4042 -0.1463
   25CHL1  H15A 1795  -0.038   3.523   9.441  0.5144  0.1803  5.0884
   25CHL1  H15B 1796   0.118   3.586   9.487 -2.0027  0.7547  0.0964
   25CHL1   C16 1797   0.104   3.490   9.287 -0.0846 -0.3610  0.7032
   25CHL1  H16A 1798   0.002   3.509   9.247 -1.6170 -2.2622  3.3941
   25CHL1  H16B 1799   0.176   3.558   9.236 -1.4206  0.0703 -0.6573
   25CHL1   C17 1800   0.133   3.335   9.266  0.2182  0.2359  0.2514
   25CHL1   H17 1801   0.243   3.328   9.275  0.3030  0.0069 -0.8777
   25CHL1   C13 1802   0.064   3.260   9.382 -0.0259  0.5101  0.8002
   25CHL1   C18 1803  -0.082   3.251   9.337  0.1888  0.4157 -0.3032
   25CHL1  H18A 1804  -0.121   3.341   9.285  0.6390 -0.2947 -1.9338
   25CHL1  H18B 1805  -0.086   3.173   9.258 -0.5195 -2.4354  2.3365
   25CHL1  H18C 1806  -0.152   3.226   9.420 -1.4533  2.3831 -1.0235
   25CHL1   C12 1807   0.113   3.126   9.433  0.1281  0.3668 -0.3725
   25CHL1  H12A 1808   0.106   3.039   9.364  4.2592  1.2183 -2.1772
   25CHL1  H12B 1809   0.223   3.125   9.449 -0.1950 -1.7206  2.5629
   25CHL1   C11 1810   0.045   3.085   9.564 -0.3891  0.1664  0.3218
   25CHL1  H11A 1811  -0.064   3.063   9.555  0.2071 -3.1629 -0.0180
   25CHL1  H11B 1812   0.093   2.992   9.600  1.3272  1.3070  1.0980
   25CHL1    C9 1813   0.064   3.197   9.674 -0.6248 -0.4119 -0.0400
   25CHL1    H9 1814   0.173   3.204   9.692 -0.1589  0.9436 -2.8461
   25CHL1   C10 1815  -0.007   3.162   9.814 -0.4804  0.3969  0.2742
   25CHL1   C19 1816  -0.156   3.125   9.780  0.6800 -0.2267 -0.0651
   25CHL1  H19A 1817  -0.175   3.036   9.715 -1.1886  1.4632 -2.0201
   25CHL1  H19B 1818  -0.204   3.102   9.877 -0.6276 -0.1030 -0.6590
   25CHL1  H19C 1819  -0.207   3.202   9.718  3.3778  0.2342 -1.9061
   25CHL1    C1 1820   0.058   3.040   9.877 -0.1856 -0.8554  0.0862
   25CHL1   H1A 1821   0.035   2.949   9.818  0.6442  0.4676 -2.4103
   25CHL1   H1B 1822   0.168   3.049   9.866  0.1724 -2.6830  1.5938
   25CHL1    C2 1823   0.025   2.998  10.024 -0.2072 -0.5795 -1.0448
   25CHL1   H2A 1824   0.099   2.923  10.060  0.4253  1.6956  2.9035
   25CHL1   H2B 1825  -0.078   2.959  10.038 -0.1356 -0.6367 -0.6681
   25CHL1   C20 1826   0.103   3.287   9.129 -0.3797  0.7225 -0.6725
   25CHL1   H20 1827  -0.005   3.288   9.104 -1.1554  0.0992  2.3123
   25CHL1   C21 1828   0.155   3.145   9.103  0.0052  0.0677 -0.2732
   25CHL1  H21A 1829   0.152   3.117   8.996 -1.1818 -0.0995 -0.2042
   25CHL1  H21B 1830   0.085   3.071   9.146  1.1365 -1.3520 -0.7661
   25CHL1  H21C 1831   0.259   3.138   9.144 -0.2375  1.4757  0.6653
   25CHL1   C22 1832   0.175   3.379   9.027 -0.2204  0.3582 -0.3144
   25CHL1  H22A 1833   0.159   3.487   9.045  3.0051  1.1783 -1.4636
   25CHL1  H22B 1834   0.285   3.365   9.038 -0.2340  0.3854 -0.1540
   25CHL1   C23 1835   0.132   3.354   8.877  0.9050 -0.0130  0.9241
   25CHL1  H23A 1836   0.167   3.256   8.838 -1.2600  0.0965 -1.5364
   25CHL1  H23B 1837   0.022   3.347   8.884  0.9908 -0.3691  2.2310
   25CHL1   C24 1838   0.177   3.464   8.778  0.6794  0.2979  1.2829
   25CHL1  H24A 1839   0.136   3.560   8.815 -0.3241  0.1907  0.4899
   25CHL1  H24B 1840   0.288   3.475   8.781  0.7508  1.7877 -1.9504
   25CHL1   C25 1841   0.133   3.461   8.629 -0.2060  0.1436 -0.2818
   25CHL1   H25 1842   0.022   3.471   8.629 -0.2614 -0.1506  1.5626
   25CHL1   C26 1843   0.195   3.579   8.549 -0.2994 -0.1928 -0.0210
   25CHL1  H26A 1844   0.294   3.544   8.511 -1.3657 -0.1342 -3.1491
   25CHL1  H26B 1845   0.131   3.607   8.462 -1.5044  0.9226  1.1891
   25CHL1  H26C 1846   0.199   3.668   8.616 -0.8228 -1.4254  1.7106
   25CHL1   C27 1847   0.160   3.325   8.566  0.9575 -0.2269  0.3537
   25CHL1  H27A 1848   0.129   3.329   8.459  0.2718 -1.0118  0.5133
   25CHL1  H27B 1849   0.269   3.308   8.567  0.6740 -3.2447 -2.2512
   25CHL1  H27C 1850   0.097   3.249   8.617  0.9361 -0.6047 -0.2242
   26CHL1    C3 1851   4.120   1.006  10.304  0.4153 -0.3105  0.0144
   26CHL1    H3 1852   4.223   1.024  10.268  0.9609  0.1532  1.7340
   26CHL1    O3 1853   4.119   0.990  10.446 -0.0241  0.3275  0.4221
   26CHL1   H3' 1854   4.061   1.052  10.489 -0.9496  1.8192 -2.6455
   26CHL1    C4 1855   4.035   1.129  10.257  0.3436 -0.0242  0.3780
   26CHL1   H4A 1856   3.935   1.123  10.306 -0.8591 -0.7165 -2.0391
   26CHL1   H4B 1857   4.085   1.219  10.300  0.1496  0.2821 -0.0337
   26CHL1    C5 1858   4.018   1.148  10.107 -0.5665  0.0442  0.0144
   26CHL1    C6 1859   4.042   1.259  10.038  0.3533 -0.4122  0.5813
   26CHL1    H6 1860   4.065   1.355  10.088 -3.3263  1.1084 -0.3309
   26CHL1    C7 1861   4.024   1.280   9.888  0.5654  0.2786  0.3032
   26CHL1   H7A 1862   3.947   1.356   9.863  0.0494 -0.4413 -0.3170
   26CHL1   H7B 1863   4.120   1.317   9.845 -0.5194  0.3055 -2.2283
   26CHL1    C8 1864   3.974   1.159   9.812  0.1868 -0.3799 -0.1512
   26CHL1    H8 1865   3.863   1.164   9.816  0.1387  0.4568 -1.8017
   26CHL1   C14 1866   4.010   1.164   9.666  0.3255 -0.4826  0.4503
   26CHL1   H14 1867   4.119   1.154   9.651 -0.1353  0.0198 -5.0217
   26CHL1   C15 1868   3.965   1.295   9.594 -0.9072  0.6413  0.6240
   26CHL1  H15A 1869   3.863   1.332   9.614 -2.0627 -0.9631 -1.8220
   26CHL1  H15B 1870   4.040   1.376   9.611  1.4341 -1.7225  2.4669
   26CHL1   C16 1871   3.964   1.249   9.453  0.7893 -0.1916  0.8604
   26CHL1  H16A 1872   3.875   1.279   9.393  0.6782 -0.8198  0.7009
   26CHL1  H16B 1873   4.050   1.295   9.399 -1.3337  1.5565 -1.2446
   26CHL1   C17 1874   3.987   1.094   9.446 -0.2693 -0.1879 -0.3668
   26CHL1   H17 1875   4.095   1.087   9.423 -0.1136 -0.0194  0.2968
   26CHL1   C13 1876   3.951   1.047   9.584 -0.4923 -0.2862 -0.4171
   26CHL1   C18 1877   3.798   1.036   9.602  0.2232  0.6953  0.1707
   26CHL1  H18A 1878   3.739   1.123   9.567 -0.2745  0.3411  0.1274
   26CHL1  H18B 1879   3.773   0.946   9.543 -0.8605  0.1889  1.3579
   26CHL1  H18C 1880   3.765   1.009   9.705 -1.3844  1.2594 -0.1829
   26CHL1   C12 1881   4.019   0.921   9.633  0.0092  0.5404 -1.0702
   26CHL1  H12A 1882   4.004   0.830   9.571  0.0167  1.0683 -1.8639
   26CHL1  H12B 1883   4.128   0.939   9.633  0.1881 -0.4480 -2.0447
   26CHL1   C11 1884   3.993   0.896   9.786 -0.7235 -0.1518  0.6131
   26CHL1  H11A 1885   3.889   0.858   9.784 -0.5880 -0.6630  1.9529
   26CHL1  H11B 1886   4.050   0.810   9.827  0.8533  1.2939  1.5763
   26CHL1    C9 1887   4.025   1.027   9.872  0.2547  0.1531  0.0272
   26CHL1    H9 1888   4.136   1.031   9.869  0.2315  0.8446 -0.2495
   26CHL1   C10 1889   3.987   1.013  10.028 -0.5953  0.3325  0.1244
   26CHL1   C19 1890   3.842   0.986  10.037  0.4132  0.3501 -0.6981
   26CHL1  H19A 1891   3.777   1.054   9.978 -1.0757 -0.3842  0.0381
   26CHL1  H19B 1892   3.822   0.887   9.991  1.2637  0.8842 -2.2826
   26CHL1  H19C 1893   3.804   0.968  10.140  2.4181 -0.6644 -0.0676
   26CHL1    C1 1894   4.078   0.889  10.083  1.0606 -0.1101 -0.3641
   26CHL1   H1A 1895   4.034   0.794  10.046 -2.7444  1.5323 -0.5070
   26CHL1   H1B 1896   4.179   0.905  10.040  0.9369  1.1535 -0.2203
   26CHL1    C2 1897   4.072   0.877  10.236 -0.0510  0.3854  0.0375
   26CHL1   H2A 1898   4.135   0.791  10.267 -1.7246 -0.6963  0.5255
   26CHL1   H2B 1899   3.967   0.858  10.265 -0.4236  1.8895 -0.2254
   26CHL1   C20 1900   3.908   1.032   9.322 -0.5422 -0.1896  0.0641
   26CHL1   H20 1901   3.807   1.071   9.347  0.5143  2.6328  0.2863
   26CHL1   C21 1902   3.921   0.885   9.319 -0.0352 -0.3400 -0.3207
   26CHL1  H21A 1903   3.865   0.832   9.399 -0.1842  0.5650  0.1944
   26CHL1  H21B 1904   4.029   0.861   9.328 -0.4015 -2.2547 -0.6044
   26CHL1  H21C 1905   3.891   0.851   9.218  2.3827  1.8168 -1.9065
   26CHL1   C22 1906   3.958   1.085   9.186  0.2179  0.3458 -0.9744
   26CHL1  H22A 1907   3.983   1.193   9.198  1.3093 -0.0763  0.9506
   26CHL1  H22B 1908   4.047   1.021   9.172  0.7907  1.0430 -0.5852
   26CHL1   C23 1909   3.847   1.073   9.079  0.3566 -0.5822  0.3623
   26CHL1  H23A 1910   3.787   0.983   9.103 -0.8865 -0.4510 -1.9458
   26CHL1  H23B 1911   3.785   1.165   9.088 -0.7295 -1.1618 -0.7820
   26CHL1   C24 1912   3.898   1.064   8.933  0.3772 -0.6440 -0.3722
   26CHL1  H24A 1913   3.987   1.125   8.908 -0.0283 -1.0114 -3.1360
   26CHL1  H24B 1914   3.953   0.967   8.929  0.5269 -0.5516 -0.5769
   26CHL1   C25 1915   3.781   1.052   8.830 -0.1929  0.1814  0.3204
   26CHL1   H25 1916   3.707   0.981   8.872 -0.5995  1.3558  1.7062
   26CHL1   C26 1917   3.716   1.196   8.816  0.7225  0.0998 -0.0455
   26CHL1  H26A 1918   3.788   1.265   8.767  0.7808  0.6725  0.8085
   26CHL1  H26B 1919   3.628   1.195   8.749  1.5317 -1.0980 -1.1134
   26CHL1  H26C 1920   3.692   1.238   8.917 -1.0170 -2.1813  0.5658
   26CHL1   C27 1921   3.817   0.985   8.699  0.3917  0.1733  0.1377
   26CHL1  H27A 1922   3.916   1.019   8.663 -0.9215  2.5499 -1.5060
   26CHL1  H27B 1923   3.814   0.874   8.701 -2.7526  0.0351 -2.7512
   26CHL1  H27C 1924   3.751   1.030   8.621  1.3173  0.9758 -0.2007
   27CHL1    C3 1925   0.549   4.849  10.273 -0.3394  0.2944 -0.7360
   27CHL1    H3 1926   0.491   4.943  10.284  1.4167  1.1858  2.2620
   27CHL1    O3 1927   0.569   4.810  10.409 -0.2126 -0.2039 -0.2563
   27CHL1   H3' 1928   0.627   4.734  10.408 -1.9402 -1.7466  2.6577
   27CHL1    C4 1929   0.489   4.748  10.188  0.2463  0.1914  0.2227
   27CHL1   H4A 1930   0.550   4.656  10.187  0.2609  0.2067 -0.5653
   27CHL1   H4B 1931   0.389   4.721  10.226  0.3645  0.6912  0.9240
   27CHL1    C5 1932   0.484   4.787  10.039  0.4694 -0.3095 -1.2224
   27CHL1    C6 1933   0.370   4.776   9.962 -0.3779  0.6562 -0.4029
   27CHL1    H6 1934   0.276   4.768  10.018 -0.9682  1.9068 -1.1412
   27CHL1    C7 1935   0.358   4.812   9.821  0.7337 -0.4339  0.7543
   27CHL1   H7A 1936   0.309   4.733   9.760  0.9288 -0.1080  0.1656
   27CHL1   H7B 1937   0.305   4.909   9.806  2.1196  0.2792  0.2379
   27CHL1    C8 1938   0.498   4.839   9.751 -0.0262 -0.3555  0.4415
   27CHL1    H8 1939   0.544   4.740   9.731 -0.1109 -0.3395  0.1634
   27CHL1   C14 1940   0.466   4.924   9.624  0.1176  0.1874 -0.9002
   27CHL1   H14 1941   0.424   5.015   9.674  0.4594  0.2211 -0.6714
   27CHL1   C15 1942   0.356   4.889   9.523  0.0130 -0.4534  0.4282
   27CHL1  H15A 1943   0.371   4.789   9.476  1.0237 -0.4154  0.6415
   27CHL1  H15B 1944   0.249   4.898   9.551 -0.7748 -0.5019 -2.2781
   27CHL1   C16 1945   0.385   4.986   9.401 -0.9843 -0.0048 -0.4613
   27CHL1  H16A 1946   0.393   4.923   9.310 -1.3050 -1.3855  0.4380
   27CHL1  H16B 1947   0.318   5.074   9.404  0.2956  1.0072  3.2369
   27CHL1   C17 1948   0.530   5.043   9.426 -1.1062 -0.3374 -0.0268
   27CHL1   H17 1949   0.519   5.147   9.464 -0.8827 -1.1304  2.3894
   27CHL1   C13 1950   0.589   4.963   9.549 -0.4910  0.4443  0.7767
   27CHL1   C18 1951   0.656   4.831   9.488 -0.1892  0.1128 -0.0791
   27CHL1  H18A 1952   0.585   4.778   9.420 -0.8300  1.4489 -0.4946
   27CHL1  H18B 1953   0.752   4.837   9.433  0.1844 -3.1194  0.0589
   27CHL1  H18C 1954   0.676   4.767   9.576 -0.3668  0.1012 -0.0459
   27CHL1   C12 1955   0.682   5.041   9.637 -0.4572  0.6503 -0.6083
   27CHL1  H12A 1956   0.778   5.049   9.582 -0.2046 -0.3582 -0.3270
   27CHL1  H12B 1957   0.642   5.144   9.651  0.4894  0.7333  2.0638
   27CHL1   C11 1958   0.711   4.972   9.772  0.0852  0.1567 -0.3809
   27CHL1  H11A 1959   0.781   4.894   9.736 -0.1837  0.2264 -1.0809
   27CHL1  H11B 1960   0.754   5.044   9.845 -1.1126 -2.5767  3.2773
   27CHL1    C9 1961   0.591   4.916   9.845  0.4985  0.1376 -0.4872
   27CHL1    H9 1962   0.529   5.003   9.873  1.6601  0.2689  1.8887
   27CHL1   C10 1963   0.616   4.844   9.982  0.6108 -0.2099  0.6177
   27CHL1   C19 1964   0.707   4.729   9.951 -1.1697  0.1428 -0.7931
   27CHL1  H19A 1965   0.735   4.682  10.048 -1.1756  2.6774  0.5136
   27CHL1  H19B 1966   0.666   4.648   9.887  0.0911 -1.4244  0.2790
   27CHL1  H19C 1967   0.802   4.756   9.900  0.0725 -1.6630  0.4352
   27CHL1    C1 1968   0.679   4.943  10.074  0.1133  0.2008  0.0375
   27CHL1   H1A 1969   0.782   4.964  10.038 -0.2417  0.0364 -1.1329
   27CHL1   H1B 1970   0.620   5.037  10.076 -1.9762 -1.0185  3.1206
   27CHL1    C2 1971   0.688   4.893  10.216  0.7261  0.3421 -0.5705
   27CHL1   H2A 1972   0.722   4.979  10.276 -0.2082  0.4512 -0.1784
   27CHL1   H2B 1973   0.764   4.811  10.218  0.2140 -0.1228  0.6275
   27CHL1   C20 1974   0.618   5.050   9.297 -0.5782  0.0630  0.6829
   27CHL1   H20 1975   0.644   4.951   9.254 -1.0123 -0.0900  0.7717
   27CHL1   C21 1976   0.753   5.117   9.313  0.1443  0.2694  0.4030
   27CHL1  H21A 1977   0.822   5.043   9.360  1.7052 -0.5491 -2.9218
   27CHL1  H21B 1978   0.750   5.208   9.376 -0.0473  0.2139  0.4759
   27CHL1  H21C 1979   0.801   5.137   9.216  2.6987  1.5890  1.8421
   27CHL1   C22 1980   0.540   5.128   9.185  0.2928 -0.8008  0.1469
   27CHL1  H22A 1981   0.452   5.067   9.157  0.6728 -0.7812 -1.1779
   27CHL1  H22B 1982   0.507   5.223   9.231  0.4562 -1.1402  0.9801
   27CHL1   C23 1983   0.608   5.139   9.045 -0.2797  0.1802 -0.4973
   27CHL1  H23A 1984   0.691   5.213   9.043  0.6905 -0.8518  0.3607
   27CHL1  H23B 1985   0.653   5.044   9.008 -1.4972 -0.5321 -0.1796
   27CHL1   C24 1986   0.503   5.191   8.936  0.3162  0.3987  0.2981
   27CHL1  H24A 1987   0.419   5.126   8.903  2.1541 -2.3407  0.6195
   27CHL1  H24B 1988   0.450   5.274   8.988 -1.9835  0.7128 -2.3442
   27CHL1   C25 1989   0.583   5.252   8.816 -0.6315 -0.9057  0.2457
   27CHL1   H25 1990   0.653   5.330   8.852  2.0366 -1.1749 -3.7167
   27CHL1   C26 1991   0.663   5.152   8.732 -0.2093 -0.0279 -0.2365
   27CHL1  H26A 1992   0.596   5.085   8.675 -1.4407  0.7490  0.2496
   27CHL1  H26B 1993   0.724   5.208   8.658  2.7276 -0.5119  1.6287
   27CHL1  H26C 1994   0.739   5.107   8.800  1.2564  0.4702 -1.4858
   27CHL1   C27 1995   0.497   5.329   8.719 -0.4030 -0.2186 -0.1887
   27CHL1  H27A 1996   0.433   5.252   8.670 -2.2343  0.6179  0.8129
   27CHL1  H27B 1997   0.421   5.395   8.766  0.2348 -0.6829  1.5901
   27CHL1  H27C 1998   0.559   5.390   8.650  0.8622  1.0439  1.9174
   28CHL1    C3 1999   5.655   1.667  10.143  0.2654  0.0331 -0.1992
   28CHL1    H3 2000   5.670   1.557  10.134 -1.5276 -0.2020 -0.7456
   28CHL1    O3 2001   5.651   1.697  10.278 -0.2993  0.4469 -0.7091
   28CHL1   H3' 2002   5.741   1.708  10.307 -0.8401 -0.1131  1.3363
   28CHL1    C4 2003   5.767   1.737  10.083 -0.1718 -0.4041  0.9466
   28CHL1   H4A 2004   5.751   1.847  10.082 -1.0129 -0.5246  0.4024
   28CHL1   H4B 2005   5.860   1.727  10.144  2.5443  0.1416 -2.7738
   28CHL1    C5 2006   5.799   1.691   9.945  0.4847 -0.0745 -0.1519
   28CHL1    C6 2007   5.900   1.618   9.910  0.9241  0.0552  0.0040
   28CHL1    H6 2008   5.974   1.592   9.988  2.6593 -0.3500 -1.7076
   28CHL1    C7 2009   5.929   1.564   9.770  0.1541 -0.3221  0.7183
   28CHL1   H7A 2010   6.034   1.588   9.742  0.1243  1.1238  1.7237
   28CHL1   H7B 2011   5.918   1.454   9.757 -1.9820  0.0741 -1.4899
   28CHL1    C8 2012   5.823   1.624   9.661 -0.1272  0.3442  0.1791
   28CHL1    H8 2013   5.860   1.720   9.619  0.7377 -0.3268 -0.6446
   28CHL1   C14 2014   5.832   1.528   9.543 -0.0473  0.0191 -0.6953
   28CHL1   H14 2015   5.795   1.434   9.590 -1.7493  1.1028  0.2582
   28CHL1   C15 2016   5.965   1.484   9.481 -0.4537 -0.0657 -0.6865
   28CHL1  H15A 2017   6.020   1.578   9.455  1.1493 -0.0710  2.2425
   28CHL1  H15B 2018   6.027   1.408   9.533  1.2405  0.7489 -1.3993
   28CHL1   C16 2019   5.916   1.406   9.358 -0.1528 -0.9101 -0.3985
   28CHL1  H16A 2020   5.973   1.442   9.270 -0.3297  0.0110 -0.1487
   28CHL1  H16B 2021   5.940   1.299   9.375  0.6210 -0.5190  1.2205
   28CHL1   C17 2022   5.760   1.431   9.335 -0.3711 -0.2862 -0.3116
   28CHL1   H17 2023   5.713   1.355   9.401  1.1538  0.3841  1.6102
   28CHL1   C13 2024   5.738   1.557   9.424  0.8106  0.3212  0.3678
   28CHL1   C18 2025   5.783   1.681   9.349  0.7075 -0.4881 -0.3297
   28CHL1  H18A 2026   5.732   1.692   9.252  1.1986  0.8108 -0.4623
   28CHL1  H18B 2027   5.751   1.778   9.394 -2.4002 -1.1045 -1.0373
   28CHL1  H18C 2028   5.890   1.691   9.318  0.5498  0.0698 -0.7168
   28CHL1   C12 2029   5.592   1.571   9.480  0.3330 -0.6515  0.6320
   28CHL1  H12A 2030   5.530   1.605   9.394  1.2944 -1.7371 -0.5313
   28CHL1  H12B 2031   5.549   1.477   9.521 -0.7236 -0.6751 -0.4732
   28CHL1   C11 2032   5.596   1.681   9.594 -0.2402 -0.4499  0.1466
   28CHL1  H11A 2033   5.626   1.779   9.551 -0.3702 -0.1557  0.7135
   28CHL1  H11B 2034   5.489   1.684   9.626  0.0248  4.2415  1.3856
   28CHL1    C9 2035   5.679   1.632   9.712 -0.2239 -0.2594  0.1374
   28CHL1    H9 2036   5.648   1.529   9.737 -0.2935 -0.2271  0.1847
   28CHL1   C10 2037   5.677   1.715   9.844 -0.3232  0.5738 -0.5104
   28CHL1   C19 2038   5.662   1.868   9.821 -0.5594  0.2630  0.1223
   28CHL1  H19A 2039   5.637   1.912   9.920 -1.8265  0.1491 -0.1254
   28CHL1  H19B 2040   5.756   1.912   9.781 -1.6696  0.4532 -2.4345
   28CHL1  H19C 2041   5.575   1.901   9.762 -0.2798  0.3874 -0.2212
   28CHL1    C1 2042   5.548   1.676   9.918 -0.3375  0.5692 -0.1491
   28CHL1   H1A 2043   5.465   1.715   9.856  0.2268 -0.8594 -1.8923
   28CHL1   H1B 2044   5.538   1.565   9.911  1.5371  0.4514 -2.6187
   28CHL1    C2 2045   5.534   1.712  10.068 -0.0603 -0.0171 -0.7591
   28CHL1   H2A 2046   5.445   1.675  10.123 -1.3757  2.9595 -0.6644
   28CHL1   H2B 2047   5.511   1.819  10.087 -0.2106 -0.3478  1.1564
   28CHL1   C20 2048   5.710   1.427   9.189  0.2121  0.2420 -0.0236
   28CHL1   H20 2049   5.769   1.503   9.135 -0.5429  0.2694 -0.8491
   28CHL1   C21 2050   5.562   1.452   9.184 -0.4897  0.5572  1.1427
   28CHL1  H21A 2051   5.521   1.420   9.086  1.7655  1.3353 -0.1315
   28CHL1  H21B 2052   5.550   1.562   9.176 -0.4856  0.6014  1.6933
   28CHL1  H21C 2053   5.510   1.388   9.259 -1.9885 -2.4499 -2.2066
   28CHL1   C22 2054   5.737   1.284   9.132  0.2703 -0.4747 -0.3900
   28CHL1  H22A 2055   5.844   1.255   9.144  0.2999  0.0263  0.7721
   28CHL1  H22B 2056   5.685   1.208   9.194 -0.7816  0.1775 -0.4510
   28CHL1   C23 2057   5.694   1.263   8.986 -0.6489  1.1027 -0.5637
   28CHL1  H23A 2058   5.587   1.283   8.964 -0.7003 -0.3320 -1.6922
   28CHL1  H23B 2059   5.764   1.319   8.920  0.6902 -1.4923 -1.4737
   28CHL1   C24 2060   5.730   1.119   8.944  0.5894 -0.0253 -0.1757
   28CHL1  H24A 2061   5.841   1.114   8.956  0.6704  1.8399  0.1712
   28CHL1  H24B 2062   5.682   1.046   9.012 -0.4660 -1.2850 -2.1855
   28CHL1   C25 2063   5.685   1.090   8.807  0.5455 -0.0554  0.6486
   28CHL1   H25 2064   5.612   1.169   8.778  0.3758  0.5489  2.5814
   28CHL1   C26 2065   5.797   1.090   8.703  0.2863  0.1041  0.1537
   28CHL1  H26A 2066   5.879   1.016   8.711  3.9281  3.4469 -2.3707
   28CHL1  H26B 2067   5.762   1.092   8.598 -3.0652  2.1643  1.1480
   28CHL1  H26C 2068   5.850   1.188   8.711  1.6529 -0.5878 -0.1055
   28CHL1   C27 2069   5.602   0.957   8.787 -0.4592  0.4362  0.5306
   28CHL1  H27A 2070   5.541   0.965   8.695  1.0235  0.1389 -0.5223
   28CHL1  H27B 2071   5.669   0.868   8.791 -2.3872 -1.2375 -1.8246
   28CHL1  H27C 2072   5.534   0.942   8.874  2.4151  0.0166  2.8786
   29CHL1    C3 2073   0.405   1.779   6.722  0.9137  0.5147  0.3276
   29CHL1    H3 2074   0.457   1.876   6.742  1.6467  0.3628 -0.7775
   29CHL1    O3 2075   0.438   1.723   6.601 -0.3190  0.1064  0.5997
   29CHL1   H3' 2076   0.530   1.696   6.608 -0.3683  0.1830  1.9330
   29CHL1    C4 2077   0.450   1.682   6.834 -0.3472  0.6438  0.1162
   29CHL1   H4A 2078   0.423   1.581   6.796 -0.2845  0.2503  1.0673
   29CHL1   H4B 2079   0.561   1.681   6.825 -0.4443  0.6175 -1.2799
   29CHL1    C5 2080   0.401   1.697   6.975  0.2565  0.3539  0.6657
   29CHL1    C6 2081   0.487   1.699   7.078  0.7079 -0.0565  0.3485
   29CHL1    H6 2082   0.595   1.698   7.055  0.6057 -0.3296 -0.1218
   29CHL1    C7 2083   0.442   1.701   7.222 -0.3909  0.1450  0.0002
   29CHL1   H7A 2084   0.509   1.634   7.281  2.8797  0.3559 -3.0846
   29CHL1   H7B 2085   0.459   1.804   7.260 -2.0459  0.6962 -0.6919
   29CHL1    C8 2086   0.288   1.680   7.246  0.1497 -0.0855  0.9156
   29CHL1    H8 2087   0.265   1.572   7.229 -0.5646 -0.2486  2.7351
   29CHL1   C14 2088   0.248   1.744   7.381  0.0010  0.5219 -0.0470
   29CHL1   H14 2089   0.278   1.851   7.373  0.3102  0.4686  0.3676
   29CHL1   C15 2090   0.319   1.696   7.517  0.2027  0.6587  0.6351
   29CHL1  H15A 2091   0.354   1.591   7.507 -1.9271 -0.0104 -0.2759
   29CHL1  H15B 2092   0.406   1.766   7.519  1.3042 -0.6684  0.2323
   29CHL1   C16 2093   0.210   1.715   7.622 -0.4011  0.0215  0.2978
   29CHL1  H16A 2094   0.182   1.615   7.661  1.5085 -0.2927  0.9916
   29CHL1  H16B 2095   0.244   1.787   7.700 -0.5935  2.1960 -1.5182
   29CHL1   C17 2096   0.089   1.782   7.549  0.1808 -0.1064  0.0290
   29CHL1   H17 2097   0.111   1.891   7.540 -1.2960  0.3699  1.5994
   29CHL1   C13 2098   0.095   1.724   7.401 -0.0568 -1.0456 -0.7733
   29CHL1   C18 2099   0.052   1.577   7.401 -0.9395 -0.2485 -0.1577
   29CHL1  H18A 2100   0.071   1.516   7.310  1.4153 -0.4167  0.3827
   29CHL1  H18B 2101   0.091   1.518   7.486  0.4234  1.6804  0.6091
   29CHL1  H18C 2102  -0.059   1.579   7.407 -1.0825  0.2362 -2.2314
   29CHL1   C12 2103   0.019   1.806   7.295  0.7995  0.5089  0.2704
   29CHL1  H12A 2104  -0.091   1.800   7.308  0.7337  0.2424 -0.3666
   29CHL1  H12B 2105   0.046   1.914   7.290  0.9460  0.4770  0.3751
   29CHL1   C11 2106   0.057   1.755   7.156 -0.0010  0.2691  0.9145
   29CHL1  H11A 2107   0.016   1.652   7.151 -1.7176  0.9695 -2.5793
   29CHL1  H11B 2108  -0.002   1.808   7.079 -0.0155 -1.1555 -0.1039
   29CHL1    C9 2109   0.213   1.754   7.129  0.7739  0.3370 -0.0622
   29CHL1    H9 2110   0.232   1.864   7.133  0.6595  0.3889 -0.8580
   29CHL1   C10 2111   0.249   1.711   6.990  0.6579  0.4565 -0.3049
   29CHL1   C19 2112   0.181   1.575   6.962 -0.4712 -0.3003  0.6747
   29CHL1  H19A 2113   0.078   1.594   6.924  0.7016 -0.9775 -3.2565
   29CHL1  H19B 2114   0.224   1.509   6.884 -1.4592  1.4701 -1.4973
   29CHL1  H19C 2115   0.190   1.505   7.048 -1.6575 -1.4875 -0.1201
   29CHL1    C1 2116   0.206   1.822   6.886 -0.1722 -0.1823  0.6034
   29CHL1   H1A 2117   0.095   1.814   6.889 -0.0537 -2.3044  2.6397
   29CHL1   H1B 2118   0.233   1.918   6.934 -2.4677  0.3400  0.9666
   29CHL1    C2 2119   0.252   1.802   6.737  0.5301  0.0939 -0.8204
   29CHL1   H2A 2120   0.223   1.893   6.680  2.2566  1.5219  0.4985
   29CHL1   H2B 2121   0.206   1.706   6.705 -1.2427  0.1679  1.2352
   29CHL1   C20 2122  -0.047   1.763   7.636  0.0478  0.2082 -0.5469
   29CHL1   H20 2123  -0.096   1.671   7.599  1.1004 -0.0673 -1.2908
   29CHL1   C21 2124  -0.152   1.878   7.608  0.3463  0.2486  0.2851
   29CHL1  H21A 2125  -0.110   1.980   7.626 -2.4743  1.5522 -0.0589
   29CHL1  H21B 2126  -0.241   1.876   7.674 -0.0773  1.1982 -0.2390
   29CHL1  H21C 2127  -0.187   1.872   7.503  0.1220 -0.6929  0.4052
   29CHL1   C22 2128  -0.029   1.764   7.793  0.2188  0.5876 -0.1891
   29CHL1  H22A 2129   0.063   1.710   7.823  0.3121 -0.3428 -2.0008
   29CHL1  H22B 2130  -0.011   1.872   7.807  2.6924  0.4172 -1.5009
   29CHL1   C23 2131  -0.146   1.715   7.877 -0.8600  0.9766 -0.0183
   29CHL1  H23A 2132  -0.250   1.742   7.851 -1.0481 -0.5720 -0.9694
   29CHL1  H23B 2133  -0.140   1.605   7.890  1.8356  1.0064 -0.4318
   29CHL1   C24 2134  -0.131   1.763   8.026  0.0592 -0.4143  0.6146
   29CHL1  H24A 2135  -0.047   1.714   8.079  0.1865  1.2736  2.1017
   29CHL1  H24B 2136  -0.118   1.874   8.029 -1.7141 -0.1987  2.4842
   29CHL1   C25 2137  -0.249   1.734   8.122 -0.0513  0.7838 -0.5524
   29CHL1   H25 2138  -0.340   1.788   8.088  0.8751  1.9962 -1.1650
   29CHL1   C26 2139  -0.283   1.584   8.125  0.6578  0.0059 -0.5242
   29CHL1  H26A 2140  -0.379   1.567   8.178  0.2119 -0.1651 -1.3548
   29CHL1  H26B 2141  -0.283   1.549   8.019  0.1540 -0.2991 -0.4264
   29CHL1  H26C 2142  -0.202   1.539   8.185 -0.5137 -0.2537  0.9130
   29CHL1   C27 2143  -0.203   1.789   8.256 -0.0854  0.4237  0.0048
   29CHL1  H27A 2144  -0.286   1.787   8.330 -0.5214 -1.6477 -0.4630
   29CHL1  H27B 2145  -0.117   1.732   8.296 -1.4457 -0.0490  2.4602
   29CHL1  H27C 2146  -0.175   1.896   8.260 -1.3006  0.8038 -1.0390
   30CHL1    C3 2147   5.126   6.371   7.313 -0.3676  0.5063 -0.2214
   30CHL1    H3 2148   5.016   6.358   7.305 -0.2653 -0.9760  0.4307
   30CHL1    O3 2149   5.173   6.446   7.205  0.1295 -0.5518 -0.0528
   30CHL1   H3' 2150   5.187   6.389   7.129 -0.1306  0.4569 -0.8768
   30CHL1    C4 2151   5.170   6.433   7.449 -0.3230 -0.2703  0.0752
   30CHL1   H4A 2152   5.280   6.451   7.441 -0.2667 -0.1725  1.0211
   30CHL1   H4B 2153   5.132   6.537   7.441  0.7515  0.0569 -1.2015
   30CHL1    C5 2154   5.117   6.348   7.565 -0.6483 -0.5576 -0.3350
   30CHL1    C6 2155   5.033   6.397   7.656  0.3658 -0.0086  0.3327
   30CHL1    H6 2156   4.997   6.501   7.650 -1.0724 -0.5112 -0.2186
   30CHL1    C7 2157   4.984   6.313   7.771  0.3747 -0.2365  0.3406
   30CHL1   H7A 2158   4.974   6.375   7.863 -0.6677 -0.4190  0.3558
   30CHL1   H7B 2159   4.880   6.281   7.749 -0.3041  1.3431  1.0913
   30CHL1    C8 2160   5.092   6.208   7.800 -0.2881  0.9829  0.5427
   30CHL1    H8 2161   5.183   6.260   7.837  0.5818  0.6049 -0.9765
   30CHL1   C14 2162   5.051   6.117   7.913  0.1545  0.8106 -0.3204
   30CHL1   H14 2163   4.951   6.086   7.878  1.2924  0.5286 -3.6695
   30CHL1   C15 2164   5.027   6.184   8.058  0.2080 -0.0397  1.1187
   30CHL1  H15A 2165   5.107   6.258   8.077 -0.7561  2.3521 -2.9739
   30CHL1  H15B 2166   4.936   6.248   8.058 -1.1474 -1.8903  2.2234
   30CHL1   C16 2167   5.010   6.073   8.151 -0.4956 -0.2886 -0.1989
   30CHL1  H16A 2168   5.078   6.077   8.239 -0.7125 -1.6255  0.0531
   30CHL1  H16B 2169   4.903   6.073   8.183 -1.1623  1.6124 -2.2185
   30CHL1   C17 2170   5.025   5.945   8.065 -0.4637  0.4791  0.0512
   30CHL1   H17 2171   4.919   5.925   8.037 -0.8321  1.2543  0.8454
   30CHL1   C13 2172   5.118   5.987   7.948 -0.9309  0.3269 -0.3189
   30CHL1   C18 2173   5.258   6.018   8.007  0.0629 -0.1910  0.1143
   30CHL1  H18A 2174   5.310   5.928   8.046  0.1842  0.0799  0.5822
   30CHL1  H18B 2175   5.329   6.070   7.939  0.1044  2.4880  2.0319
   30CHL1  H18C 2176   5.263   6.075   8.102  1.3331 -1.9540  1.1542
   30CHL1   C12 2177   5.133   5.911   7.820  0.2986  1.2939 -0.0527
   30CHL1  H12A 2178   5.205   5.831   7.847  0.7113  2.1854  1.6011
   30CHL1  H12B 2179   5.034   5.863   7.801  0.2365  1.0939  0.7107
   30CHL1   C11 2180   5.200   5.984   7.701 -0.3169  1.1902 -0.2647
   30CHL1  H11A 2181   5.307   5.986   7.729 -0.2441 -0.6560 -0.2970
   30CHL1  H11B 2182   5.197   5.926   7.607  0.0263  0.8551 -0.0697
   30CHL1    C9 2183   5.120   6.115   7.674  0.4470 -0.3229 -0.2407
   30CHL1    H9 2184   5.022   6.076   7.638  1.4333 -2.1785 -1.0352
   30CHL1   C10 2185   5.179   6.207   7.564 -0.2580  0.4020  0.1386
   30CHL1   C19 2186   5.331   6.214   7.589  0.1407  0.1301  0.1921
   30CHL1  H19A 2187   5.383   6.297   7.536 -2.0314  0.1223 -2.1069
   30CHL1  H19B 2188   5.360   6.220   7.696  0.3319 -1.1525  0.2212
   30CHL1  H19C 2189   5.389   6.127   7.552  0.5023  0.4731 -0.0651
   30CHL1    C1 2190   5.154   6.146   7.423  0.3727  0.4755 -0.2754
   30CHL1   H1A 2191   5.208   6.049   7.416  0.3710  0.4949 -0.5982
   30CHL1   H1B 2192   5.045   6.124   7.417  0.6632 -1.7957  1.2479
   30CHL1    C2 2193   5.194   6.235   7.298 -0.4910  0.2974 -0.2849
   30CHL1   H2A 2194   5.177   6.184   7.201  1.2376 -2.0972  0.5478
   30CHL1   H2B 2195   5.302   6.260   7.306 -0.6353  0.8252  0.1049
   30CHL1   C20 2196   5.055   5.815   8.156 -0.7679 -0.4115 -0.5844
   30CHL1   H20 2197   5.157   5.824   8.200 -1.4589  0.6486  0.8848
   30CHL1   C21 2198   5.050   5.689   8.065 -0.4747  0.2734 -0.4368
   30CHL1  H21A 2199   5.131   5.683   7.988 -2.6823  0.8696 -2.9570
   30CHL1  H21B 2200   4.954   5.665   8.014 -2.7708 -0.9365  3.9787
   30CHL1  H21C 2201   5.060   5.599   8.129 -2.2216  0.6106  0.3416
   30CHL1   C22 2202   4.951   5.793   8.264  1.0074 -0.2804 -0.4429
   30CHL1  H22A 2203   4.924   5.886   8.319  1.3917 -0.6552  0.4013
   30CHL1  H22B 2204   4.856   5.763   8.215  1.5961 -0.4149 -1.5366
   30CHL1   C23 2205   4.986   5.684   8.372 -0.4342 -1.2948  0.0268
   30CHL1  H23A 2206   5.014   5.591   8.319  0.9786 -2.4226  2.5839
   30CHL1  H23B 2207   5.078   5.710   8.428 -0.2821 -0.8862 -0.4076
   30CHL1   C24 2208   4.880   5.650   8.481  0.2181 -0.3338  0.4711
   30CHL1  H24A 2209   4.849   5.741   8.537  2.8354  1.2042 -0.4120
   30CHL1  H24B 2210   4.793   5.606   8.428  0.9923  0.8738 -1.9382
   30CHL1   C25 2211   4.927   5.547   8.590  0.1867 -0.3040 -0.1208
   30CHL1   H25 2212   5.017   5.588   8.641  0.4537  0.3002 -1.0515
   30CHL1   C26 2213   4.808   5.535   8.696  0.2951  0.6083 -0.1158
   30CHL1  H26A 2214   4.764   5.636   8.710 -2.0518 -0.4064  0.4266
   30CHL1  H26B 2215   4.723   5.474   8.656 -1.1724  0.1095  3.4067
   30CHL1  H26C 2216   4.846   5.494   8.792 -0.3235 -0.4420 -0.2985
   30CHL1   C27 2217   4.966   5.406   8.539  0.3679 -0.3951 -0.4633
   30CHL1  H27A 2218   5.028   5.353   8.614  2.0474  0.7707 -0.9836
   30CHL1  H27B 2219   4.874   5.349   8.513 -0.3094  2.0267 -4.1461
   30CHL1  H27C 2220   5.024   5.399   8.444  0.2693 -0.7800 -0.4989
   31CHL1    C3 2221   1.008   4.084   6.791 -0.5580  0.1863  0.5330
   31CHL1    H3 2222   1.089   4.007   6.791  1.3716  2.1283 -0.7483
   31CHL1    O3 2223   0.987   4.128   6.654 -0.6900  0.2353 -0.5245
   31CHL1   H3' 2224   1.032   4.212   6.640 -2.7581  1.3015 -1.1725
   31CHL1    C4 2225   0.882   4.014   6.847 -0.3376 -0.6295 -0.6555
   31CHL1   H4A 2226   0.787   4.066   6.821 -1.3179 -0.9063  1.9728
   31CHL1   H4B 2227   0.879   3.917   6.794  0.3047 -0.4137 -1.1043
   31CHL1    C5 2228   0.894   3.995   6.996  0.4051  0.0990 -0.0493
   31CHL1    C6 2229   0.861   3.875   7.038 -0.5150  0.3179  0.7845
   31CHL1    H6 2230   0.828   3.802   6.963  1.0939  2.3777 -2.1605
   31CHL1    C7 2231   0.857   3.833   7.181 -0.0380 -0.1234 -0.3926
   31CHL1   H7A 2232   0.753   3.795   7.186 -0.0741 -0.1294 -1.1473
   31CHL1   H7B 2233   0.923   3.749   7.213 -0.1180  0.9691  3.1449
   31CHL1    C8 2234   0.880   3.954   7.275 -0.7470  0.0903  0.5145
   31CHL1    H8 2235   0.782   4.005   7.286 -0.4535  0.2320  3.2086
   31CHL1   C14 2236   0.918   3.905   7.418  0.1843  0.1225  0.3216
   31CHL1   H14 2237   1.021   3.863   7.420  0.2816  0.2206 -1.2532
   31CHL1   C15 2238   0.825   3.802   7.477  0.9551  0.0158 -0.3284
   31CHL1  H15A 2239   0.722   3.825   7.442 -0.2570 -0.4525  2.6673
   31CHL1  H15B 2240   0.833   3.698   7.439 -1.2071 -0.4204  0.3101
   31CHL1   C16 2241   0.849   3.807   7.634 -0.2653 -0.5550 -0.3884
   31CHL1  H16A 2242   0.756   3.818   7.694  0.7930  2.4015  0.8690
   31CHL1  H16B 2243   0.904   3.718   7.671  1.3758  1.0323  1.1725
   31CHL1   C17 2244   0.948   3.929   7.647 -0.1737 -0.4898 -0.0163
   31CHL1   H17 2245   1.046   3.882   7.624  1.7661  2.4486  1.7183
   31CHL1   C13 2246   0.928   4.017   7.523 -0.2634 -0.0696  0.1421
   31CHL1   C18 2247   0.794   4.092   7.535  0.1666 -0.1888  0.4765
   31CHL1  H18A 2248   0.776   4.152   7.443 -1.6554 -0.0754  0.8831
   31CHL1  H18B 2249   0.709   4.023   7.553 -0.8060  1.1750  1.2838
   31CHL1  H18C 2250   0.796   4.163   7.620  2.1304  0.0066  0.3253
   31CHL1   C12 2251   1.042   4.119   7.478  1.4607  0.4422 -0.5153
   31CHL1  H12A 2252   1.027   4.197   7.555 -0.3286 -0.9641  0.6612
   31CHL1  H12B 2253   1.134   4.057   7.485 -0.1254 -1.9248  0.5718
   31CHL1   C11 2254   1.017   4.167   7.329  0.1043 -0.5744 -0.9746
   31CHL1  H11A 2255   0.928   4.232   7.338 -2.0391 -3.5053  1.2243
   31CHL1  H11B 2256   1.110   4.223   7.306  0.6523 -0.9514  0.2050
   31CHL1    C9 2257   0.974   4.060   7.223 -0.2097  0.3911  0.4825
   31CHL1    H9 2258   1.070   4.006   7.206  0.5032  1.0745  2.1609
   31CHL1   C10 2259   0.941   4.111   7.080  0.3457 -0.2923  0.1330
   31CHL1   C19 2260   0.818   4.201   7.082 -0.4289  0.4983 -0.1183
   31CHL1  H19A 2261   0.793   4.250   6.986  1.8451  0.2414 -0.9062
   31CHL1  H19B 2262   0.728   4.150   7.122 -0.5050  0.1745 -0.6992
   31CHL1  H19C 2263   0.828   4.286   7.152  2.1493  0.2027 -0.0414
   31CHL1    C1 2264   1.064   4.179   7.015 -0.3062  0.0088 -0.0147
   31CHL1   H1A 2265   1.096   4.269   7.071  1.3064 -0.6159  0.1485
   31CHL1   H1B 2266   1.152   4.111   7.024 -0.1298  0.4766  2.2898
   31CHL1    C2 2267   1.044   4.215   6.867 -0.8269  0.0455  0.4388
   31CHL1   H2A 2268   1.135   4.258   6.821 -2.2238  1.5920 -0.9856
   31CHL1   H2B 2269   0.964   4.289   6.846 -0.7306 -0.6740 -3.0640
   31CHL1   C20 2270   0.945   3.989   7.789 -0.0901  0.0829  0.8309
   31CHL1   H20 2271   0.848   4.035   7.818 -0.3701  1.6011 -2.1570
   31CHL1   C21 2272   1.072   4.079   7.806  0.0042  0.0764  0.4844
   31CHL1  H21A 2273   1.077   4.097   7.915  2.9154 -0.1446  0.4541
   31CHL1  H21B 2274   1.072   4.170   7.743 -2.3262 -1.3860 -1.8594
   31CHL1  H21C 2275   1.168   4.025   7.793  2.2019  3.4623  1.3774
   31CHL1   C22 2276   0.959   3.873   7.896  0.3988 -0.0993  0.6334
   31CHL1  H22A 2277   0.879   3.799   7.874  0.8432 -0.3463 -0.1661
   31CHL1  H22B 2278   1.055   3.820   7.882  0.3355 -0.4354  1.4221
   31CHL1   C23 2279   0.943   3.904   8.048 -0.7303  0.0391 -0.5972
   31CHL1  H23A 2280   1.024   3.975   8.076  0.2403 -0.1887 -2.6021
   31CHL1  H23B 2281   0.852   3.963   8.074 -1.4572 -1.5675  0.6346
   31CHL1   C24 2282   0.951   3.775   8.134  0.7213  0.4818  0.1452
   31CHL1  H24A 2283   0.866   3.712   8.101  0.0754  1.6930 -0.6011
   31CHL1  H24B 2284   1.046   3.724   8.105 -0.7241 -0.8422 -2.6452
   31CHL1   C25 2285   0.949   3.791   8.290  0.5067 -0.5141 -0.0553
   31CHL1   H25 2286   1.013   3.879   8.309  3.9828 -2.9151  0.2662
   31CHL1   C26 2287   0.819   3.812   8.351 -0.3188 -0.4148 -0.3131
   31CHL1  H26A 2288   0.839   3.840   8.457 -0.0137 -1.7501 -0.0090
   31CHL1  H26B 2289   0.762   3.887   8.292 -0.9939 -0.0636  0.7381
   31CHL1  H26C 2290   0.772   3.713   8.371 -1.4722  0.2134  0.2197
   31CHL1   C27 2291   1.018   3.672   8.363  0.1598 -0.0977 -0.1842
   31CHL1  H27A 2292   0.986   3.574   8.322  0.6392  0.4708 -2.0042
   31CHL1  H27B 2293   0.995   3.687   8.471  2.1872  2.2672  0.0156
   31CHL1  H27C 2294   1.129   3.679   8.357  0.2108 -0.3359  0.4194
   32CHL1    C3 2295   1.167   1.484   6.805  0.3910  0.7241  0.3223
   32CHL1    H3 2296   1.063   1.490   6.842 -1.2079 -0.0617 -3.5110
   32CHL1    O3 2297   1.184   1.551   6.680 -0.3414  0.4049  0.2706
   32CHL1   H3' 2298   1.278   1.563   6.671 -0.4450 -0.5370 -3.6475
   32CHL1    C4 2299   1.256   1.538   6.915 -0.2878 -0.2013 -0.0656
   32CHL1   H4A 2300   1.359   1.544   6.873  0.5689 -0.4457  1.8946
   32CHL1   H4B 2301   1.225   1.644   6.930  1.0354  0.2043 -0.0499
   32CHL1    C5 2302   1.260   1.463   7.047 -0.1169  0.1950 -0.4994
   32CHL1    C6 2303   1.237   1.520   7.170  0.6131 -0.3154 -0.1537
   32CHL1    H6 2304   1.208   1.625   7.180 -2.1454 -1.1442  1.5966
   32CHL1    C7 2305   1.238   1.439   7.303  1.1550  0.0533  0.3128
   32CHL1   H7A 2306   1.310   1.492   7.369  0.0974  3.2259 -0.9314
   32CHL1   H7B 2307   1.137   1.434   7.350 -0.1032  0.2606 -2.2407
   32CHL1    C8 2308   1.295   1.298   7.279 -0.1253  0.5534 -0.4464
   32CHL1    H8 2309   1.404   1.306   7.255 -0.2822  1.7266 -0.8459
   32CHL1   C14 2310   1.282   1.219   7.403 -1.2628 -0.3441 -0.4460
   32CHL1   H14 2311   1.172   1.203   7.413 -0.7376 -3.7936  1.3687
   32CHL1   C15 2312   1.328   1.284   7.531 -0.3457  0.2594 -0.3852
   32CHL1  H15A 2313   1.429   1.325   7.511  0.4439 -1.1332  0.6394
   32CHL1  H15B 2314   1.250   1.357   7.562 -1.8095 -1.7491  0.8798
   32CHL1   C16 2315   1.344   1.165   7.620 -0.5220  1.1745 -0.2049
   32CHL1  H16A 2316   1.451   1.146   7.646 -1.2442 -1.1697  1.3866
   32CHL1  H16B 2317   1.282   1.162   7.711 -0.9401  1.1151 -0.4912
   32CHL1   C17 2318   1.308   1.036   7.535 -0.6400  1.0490  0.4690
   32CHL1   H17 2319   1.200   1.021   7.557 -0.8675  0.3027 -1.0077
   32CHL1   C13 2320   1.346   1.075   7.392 -0.1217  0.4999 -0.2103
   32CHL1   C18 2321   1.504   1.064   7.377 -0.3862  1.2647  1.3236
   32CHL1  H18A 2322   1.558   1.117   7.459 -0.6858 -0.2559  2.5543
   32CHL1  H18B 2323   1.534   0.957   7.373 -0.1529  1.3679 -1.4850
   32CHL1  H18C 2324   1.536   1.099   7.277 -1.8039 -1.2237 -0.0922
   32CHL1   C12 2325   1.269   1.004   7.277 -0.4945  0.4971 -0.8791
   32CHL1  H12A 2326   1.326   0.910   7.258 -0.2093  0.7665 -1.3630
   32CHL1  H12B 2327   1.167   0.984   7.316  0.2138  0.0653  0.8225
   32CHL1   C11 2328   1.280   1.081   7.145  0.5477  0.1983  0.2986
   32CHL1  H11A 2329   1.381   1.060   7.103  1.4728  2.0149  1.4458
   32CHL1  H11B 2330   1.211   1.025   7.078 -0.4279  1.6880  0.0031
   32CHL1    C9 2331   1.233   1.230   7.155 -0.0831 -0.5279  0.4433
   32CHL1    H9 2332   1.123   1.236   7.170 -0.1490  1.3472 -0.5133
   32CHL1   C10 2333   1.278   1.307   7.031  0.4090  1.1338 -0.4197
   32CHL1   C19 2334   1.433   1.294   6.992  0.4146 -0.1345  0.6965
   32CHL1  H19A 2335   1.455   1.348   6.898 -0.5989 -1.3365 -0.2644
   32CHL1  H19B 2336   1.499   1.330   7.074  0.8866 -0.3122  0.3977
   32CHL1  H19C 2337   1.450   1.188   6.961  0.8370  0.1560 -0.0966
   32CHL1    C1 2338   1.191   1.255   6.909  0.2423  0.2272  0.3747
   32CHL1   H1A 2339   1.208   1.146   6.895 -0.6546  0.2366 -1.0360
   32CHL1   H1B 2340   1.087   1.267   6.944  0.2403  1.3435  0.0172
   32CHL1    C2 2341   1.208   1.340   6.780  0.2296 -0.6877 -0.1957
   32CHL1   H2A 2342   1.153   1.299   6.693  2.0386  0.7650 -2.1428
   32CHL1   H2B 2343   1.312   1.343   6.741 -0.8035  0.9205 -3.0904
   32CHL1   C20 2344   1.374   0.918   7.594 -0.5171  1.5957  0.0751
   32CHL1   H20 2345   1.485   0.924   7.591 -0.4171  0.1493  0.3385
   32CHL1   C21 2346   1.329   0.790   7.518  0.3972  0.5189  0.1740
   32CHL1  H21A 2347   1.378   0.774   7.420 -0.7300  0.2702 -0.3581
   32CHL1  H21B 2348   1.218   0.792   7.509  0.3793  0.6738  0.3990
   32CHL1  H21C 2349   1.349   0.700   7.579  1.3244 -0.5380 -1.6134
   32CHL1   C22 2350   1.359   0.897   7.746  0.0229 -0.1901  0.1680
   32CHL1  H22A 2351   1.424   0.809   7.762 -1.2145 -0.8274  1.9504
   32CHL1  H22B 2352   1.406   0.979   7.804 -0.4537 -0.8476  1.5083
   32CHL1   C23 2353   1.219   0.860   7.791 -0.4864 -1.0943 -0.1170
   32CHL1  H23A 2354   1.150   0.947   7.787 -1.2209 -1.6881 -0.6224
   32CHL1  H23B 2355   1.186   0.775   7.727 -2.4759 -0.6694  0.2645
   32CHL1   C24 2356   1.210   0.835   7.941  0.6114  0.7930 -0.4933
   32CHL1  H24A 2357   1.290   0.759   7.959 -0.0660  0.0849 -0.4413
   32CHL1  H24B 2358   1.245   0.910   8.015  1.8809 -1.5188  1.4076
   32CHL1   C25 2359   1.077   0.774   7.998 -0.1248 -0.5972  0.1775
   32CHL1   H25 2360   0.993   0.845   7.985  0.3810 -0.2318 -1.3326
   32CHL1   C26 2361   1.043   0.635   7.924 -0.7071 -0.0852 -0.6704
   32CHL1  H26A 2362   1.134   0.578   7.897  0.8934  1.4925  1.1012
   32CHL1  H26B 2363   0.968   0.575   7.980 -0.2740  0.7007  0.8019
   32CHL1  H26C 2364   0.990   0.651   7.827 -3.2150  1.1600  0.8063
   32CHL1   C27 2365   1.096   0.744   8.155  0.0542 -0.9025 -0.1693
   32CHL1  H27A 2366   1.095   0.841   8.209  1.0511  0.3298 -2.2591
   32CHL1  H27B 2367   1.007   0.687   8.190 -0.1661  0.4847  1.7018
   32CHL1  H27C 2368   1.185   0.683   8.180  0.6980  0.2096  0.3404
   33CHL1    C3 2369   0.858   0.135   6.582  1.1168  0.0158  0.1297
   33CHL1    H3 2370   0.796   0.044   6.587  0.8600  0.0110 -2.0822
   33CHL1    O3 2371   0.901   0.151   6.444  0.0361  0.4135  0.0794
   33CHL1   H3' 2372   0.954   0.231   6.441 -0.2090  0.5564 -2.2080
   33CHL1    C4 2373   0.763   0.252   6.621 -0.5197  0.5784  0.7002
   33CHL1   H4A 2374   0.817   0.348   6.605 -0.3806  0.4037  0.0638
   33CHL1   H4B 2375   0.680   0.244   6.547  0.0682 -2.0919  0.2345
   33CHL1    C5 2376   0.722   0.238   6.765  0.1742 -0.5358 -0.2236
   33CHL1    C6 2377   0.598   0.238   6.811  0.1871 -0.2946 -0.2975
   33CHL1    H6 2378   0.522   0.242   6.732 -0.1833  0.9875  0.1054
   33CHL1    C7 2379   0.559   0.247   6.954  0.7661  0.5394 -0.8036
   33CHL1   H7A 2380   0.480   0.324   6.963  0.4078 -0.0069  1.0123
   33CHL1   H7B 2381   0.503   0.155   6.981  1.5546 -0.1970 -1.5929
   33CHL1    C8 2382   0.672   0.269   7.056 -0.4089 -0.5427 -0.6953
   33CHL1    H8 2383   0.688   0.378   7.062 -1.8360 -0.3756  0.8665
   33CHL1   C14 2384   0.635   0.223   7.199  0.1763  0.0283  0.2964
   33CHL1   H14 2385   0.626   0.112   7.202 -1.9611  0.0792 -1.8482
   33CHL1   C15 2386   0.495   0.272   7.266 -0.2900 -0.5116 -0.2392
   33CHL1  H15A 2387   0.468   0.376   7.238  1.1667  0.1406  0.6390
   33CHL1  H15B 2388   0.424   0.194   7.233  1.1453 -1.3215 -1.5792
   33CHL1   C16 2389   0.520   0.268   7.411  0.7012 -0.1940  0.2073
   33CHL1  H16A 2390   0.528   0.371   7.451  0.6396 -0.8371  1.9602
   33CHL1  H16B 2391   0.441   0.205   7.456  1.2085 -1.4433 -0.5713
   33CHL1   C17 2392   0.663   0.207   7.428  0.2852 -0.0136  0.1575
   33CHL1   H17 2393   0.640   0.098   7.422 -0.7200  0.1555  0.6126
   33CHL1   C13 2394   0.743   0.255   7.304 -0.9801  0.1587  0.0462
   33CHL1   C18 2395   0.765   0.402   7.306  0.1717  0.3885  0.0073
   33CHL1  H18A 2396   0.819   0.433   7.214 -0.1278  1.1993  0.1026
   33CHL1  H18B 2397   0.672   0.461   7.317  0.3903  0.5006  1.3916
   33CHL1  H18C 2398   0.817   0.434   7.399  0.0388  2.0735 -0.4752
   33CHL1   C12 2399   0.862   0.172   7.261 -0.6091 -0.0290 -0.6022
   33CHL1  H12A 2400   0.949   0.188   7.329 -0.6095 -1.0993 -0.3379
   33CHL1  H12B 2401   0.840   0.065   7.282  1.3246 -0.2670  0.5275
   33CHL1   C11 2402   0.909   0.204   7.115 -0.4534 -0.1612 -0.0187
   33CHL1  H11A 2403   0.944   0.309   7.125 -1.4939  0.1293  0.7810
   33CHL1  H11B 2404   0.990   0.136   7.082  1.1020  0.9224  1.4081
   33CHL1    C9 2405   0.796   0.199   7.015 -0.3430 -0.3120  0.4683
   33CHL1    H9 2406   0.759   0.094   7.014  0.5214 -0.6279  1.0288
   33CHL1   C10 2407   0.839   0.239   6.869  0.8867 -0.0565  0.3018
   33CHL1   C19 2408   0.897   0.387   6.860  0.2305 -0.7166  0.4806
   33CHL1  H19A 2409   0.986   0.401   6.926  1.4950 -1.1317 -1.0721
   33CHL1  H19B 2410   0.938   0.413   6.761  1.5432  1.8265  1.5813
   33CHL1  H19C 2411   0.816   0.460   6.881  0.6117 -0.1879  0.1293
   33CHL1    C1 2412   0.942   0.129   6.821 -0.6200 -0.4046 -0.2352
   33CHL1   H1A 2413   1.032   0.166   6.876 -1.6220  2.6610 -0.4602
   33CHL1   H1B 2414   0.918   0.026   6.855 -1.2487  0.4153  2.0250
   33CHL1    C2 2415   0.980   0.127   6.672 -0.4067 -0.2686 -0.3311
   33CHL1   H2A 2416   1.036   0.033   6.655  2.6774  1.8280 -2.8650
   33CHL1   H2B 2417   1.030   0.225   6.654 -0.0873  0.0275  1.8430
   33CHL1   C20 2418   0.715   0.235   7.573 -0.6722  0.5672  0.3154
   33CHL1   H20 2419   0.761   0.336   7.585 -0.5505  0.8637 -2.1425
   33CHL1   C21 2420   0.814   0.121   7.613  0.7587 -0.3776 -0.5052
   33CHL1  H21A 2421   0.901   0.118   7.545  2.9984  0.7786  2.1089
   33CHL1  H21B 2422   0.768   0.020   7.605  0.6793 -0.3121 -0.9059
   33CHL1  H21C 2423   0.860   0.142   7.712  0.8126 -1.5246 -0.2774
   33CHL1   C22 2424   0.600   0.235   7.678 -0.3655  0.3787 -0.6517
   33CHL1  H22A 2425   0.523   0.310   7.647  0.6533  1.6874 -0.1003
   33CHL1  H22B 2426   0.560   0.132   7.693  1.0923 -0.4864 -2.3849
   33CHL1   C23 2427   0.645   0.295   7.820 -0.1322  0.1467  0.9340
   33CHL1  H23A 2428   0.710   0.226   7.878 -0.9416 -0.6126  0.9497
   33CHL1  H23B 2429   0.700   0.387   7.790 -0.4892  0.4035  1.0654
   33CHL1   C24 2430   0.534   0.354   7.912  0.0958 -0.2173 -0.0579
   33CHL1  H24A 2431   0.466   0.420   7.853 -2.2366 -0.2153  2.4127
   33CHL1  H24B 2432   0.470   0.274   7.956  2.5076 -1.2390  1.7905
   33CHL1   C25 2433   0.591   0.436   8.040  0.3172 -0.1652 -0.7660
   33CHL1   H25 2434   0.645   0.523   7.996 -1.3719  0.9665 -0.7235
   33CHL1   C26 2435   0.472   0.475   8.134 -0.9558 -0.0058  0.1752
   33CHL1  H26A 2436   0.509   0.528   8.224  0.1074  0.2508 -0.3895
   33CHL1  H26B 2437   0.385   0.525   8.086 -0.2020 -0.9654 -2.3740
   33CHL1  H26C 2438   0.428   0.385   8.181 -0.4700  0.5834  1.8104
   33CHL1   C27 2439   0.704   0.350   8.105 -0.7703 -0.3421 -0.7371
   33CHL1  H27A 2440   0.720   0.378   8.211  1.4945 -1.6122 -0.6774
   33CHL1  H27B 2441   0.673   0.243   8.099  0.4572 -0.7882  0.3777
   33CHL1  H27C 2442   0.802   0.356   8.053 -1.4260 -1.5475 -2.1871
   34CHL1    C3 2443   1.038   5.702   6.972 -0.6050 -0.0052 -0.8351
   34CHL1    H3 2444   1.082   5.804   6.965  1.4826 -0.8076 -0.1401
   34CHL1    O3 2445   0.977   5.669   6.846 -0.5904 -0.3349 -0.1920
   34CHL1   H3' 2446   0.968   5.574   6.847  2.8645 -0.7752  0.0897
   34CHL1    C4 2447   1.158   5.608   7.015 -0.5954  0.3962 -0.0096
   34CHL1   H4A 2448   1.132   5.502   6.993 -0.7264 -0.0163  1.9363
   34CHL1   H4B 2449   1.235   5.644   6.945 -0.2938 -0.2772 -0.0395
   34CHL1    C5 2450   1.200   5.609   7.157 -0.5214  0.1982  0.7543
   34CHL1    C6 2451   1.326   5.634   7.192  0.3320  0.5312 -0.1314
   34CHL1    H6 2452   1.407   5.646   7.119 -1.0019 -0.4400 -1.8530
   34CHL1    C7 2453   1.369   5.619   7.335  0.4482  0.0258 -0.7496
   34CHL1   H7A 2454   1.454   5.549   7.345 -0.5084 -0.9391  1.1136
   34CHL1   H7B 2455   1.391   5.718   7.380  0.1982 -1.0018  1.7579
   34CHL1    C8 2456   1.263   5.557   7.433 -0.3626 -0.1137  0.2361
   34CHL1    H8 2457   1.254   5.448   7.413 -2.1019 -0.6497  3.3402
   34CHL1   C14 2458   1.295   5.584   7.582 -0.2573 -1.0277  0.6139
   34CHL1   H14 2459   1.291   5.695   7.588 -2.1262 -0.9443 -1.1187
   34CHL1   C15 2460   1.440   5.549   7.624  0.4150  0.8684 -0.0942
   34CHL1  H15A 2461   1.445   5.445   7.583 -1.3106  1.6918 -2.5959
   34CHL1  H15B 2462   1.518   5.604   7.567 -0.0564  2.4128  0.6969
   34CHL1   C16 2463   1.433   5.552   7.776 -0.3756  0.5276  0.4420
   34CHL1  H16A 2464   1.471   5.455   7.815  0.0236  0.9433  1.1161
   34CHL1  H16B 2465   1.496   5.636   7.814  0.5697 -0.1150  0.3345
   34CHL1   C17 2466   1.278   5.562   7.814 -0.0871  0.4211 -0.9091
   34CHL1   H17 2467   1.259   5.669   7.839  0.4837  0.1640  0.7643
   34CHL1   C13 2468   1.198   5.529   7.688 -0.5778  0.2603  0.0950
   34CHL1   C18 2469   1.188   5.372   7.684  0.1160 -0.3251 -0.1146
   34CHL1  H18A 2470   1.110   5.337   7.755  1.1278  0.9822  1.7419
   34CHL1  H18B 2471   1.163   5.340   7.580  1.3579  2.3609 -1.3459
   34CHL1  H18C 2472   1.281   5.326   7.724  0.7890  1.4044  0.3893
   34CHL1   C12 2473   1.066   5.595   7.658 -0.4742  0.3738 -0.2637
   34CHL1  H12A 2474   0.997   5.566   7.740  0.9597  1.6855  1.4934
   34CHL1  H12B 2475   1.086   5.704   7.673  2.5823  0.0692 -1.4098
   34CHL1   C11 2476   1.015   5.576   7.515 -0.1585  0.3527  0.1118
   34CHL1  H11A 2477   0.987   5.469   7.514  2.4114 -0.4170  2.2604
   34CHL1  H11B 2478   0.925   5.639   7.495  1.2810  2.6670  0.5309
   34CHL1    C9 2479   1.123   5.616   7.406  0.5025 -0.2150  0.5777
   34CHL1    H9 2480   1.140   5.726   7.407  1.8361 -0.4027 -0.1369
   34CHL1   C10 2481   1.082   5.592   7.258 -1.0401 -0.5122  0.0539
   34CHL1   C19 2482   1.022   5.455   7.237 -0.3142  0.3702  0.4919
   34CHL1  H19A 2483   0.930   5.437   7.297 -0.9238 -0.6518 -0.6933
   34CHL1  H19B 2484   0.999   5.445   7.129  2.3937 -0.8489 -0.0668
   34CHL1  H19C 2485   1.104   5.382   7.260 -0.4304  0.2385  0.4918
   34CHL1    C1 2486   0.975   5.701   7.225  0.1290 -0.4738  0.0625
   34CHL1   H1A 2487   0.899   5.700   7.306 -0.0461  1.4668 -0.0210
   34CHL1   H1B 2488   1.021   5.802   7.230 -1.9446  1.1315 -5.3639
   34CHL1    C2 2489   0.922   5.696   7.079 -0.0063  0.2887  1.0616
   34CHL1   H2A 2490   0.857   5.785   7.064 -1.5802 -0.8845  0.5833
   34CHL1   H2B 2491   0.863   5.602   7.069 -1.1584  0.9996  0.9772
   34CHL1   C20 2492   1.244   5.499   7.953  0.0264  0.4099 -0.1503
   34CHL1   H20 2493   1.258   5.389   7.942 -1.3205 -0.0165  1.7433
   34CHL1   C21 2494   1.100   5.527   8.002  0.2812 -0.4617  0.1801
   34CHL1  H21A 2495   1.092   5.513   8.112 -2.9242  1.4744  0.3111
   34CHL1  H21B 2496   1.027   5.465   7.945 -0.7100  1.7897 -1.1551
   34CHL1  H21C 2497   1.075   5.633   7.980  1.3189 -0.0443  0.9723
   34CHL1   C22 2498   1.336   5.543   8.069 -0.4068 -0.6312  0.0208
   34CHL1  H22A 2499   1.316   5.488   8.163  0.9506 -0.8511  0.2006
   34CHL1  H22B 2500   1.443   5.519   8.053 -0.2157 -0.8191  1.4270
   34CHL1   C23 2501   1.325   5.695   8.106  0.0639  0.6261  0.7800
   34CHL1  H23A 2502   1.347   5.747   8.010 -1.6246 -0.9298 -0.5132
   34CHL1  H23B 2503   1.221   5.719   8.133  0.3737  2.6227  0.3528
   34CHL1   C24 2504   1.432   5.731   8.207  0.2268  0.0057 -0.3018
   34CHL1  H24A 2505   1.416   5.680   8.304 -0.4441  0.3434 -0.2332
   34CHL1  H24B 2506   1.524   5.687   8.163 -0.4946 -0.5401 -1.3179
   34CHL1   C25 2507   1.440   5.880   8.232 -0.3137 -0.9003  0.6048
   34CHL1   H25 2508   1.337   5.910   8.261 -0.6633 -0.9207 -0.5699
   34CHL1   C26 2509   1.544   5.904   8.345  0.4906 -0.2831 -0.0595
   34CHL1  H26A 2510   1.637   5.857   8.308 -0.3398 -0.7064 -1.6928
   34CHL1  H26B 2511   1.567   6.012   8.359  1.7669 -0.4745 -0.5521
   34CHL1  H26C 2512   1.510   5.862   8.443  1.2623 -1.1654 -0.1595
   34CHL1   C27 2513   1.498   5.951   8.108  0.0520 -0.0739  0.1881
   34CHL1  H27A 2514   1.444   5.931   8.013 -0.4382 -1.0485  0.6619
   34CHL1  H27B 2515   1.509   6.059   8.129  1.0365 -0.1505  0.1076
   34CHL1  H27C 2516   1.596   5.901   8.089  0.4046  1.0514 -1.1711
   35CHL1    C3 2517   3.640   0.297   7.336 -0.2503  0.1790  0.0019
   35CHL1    H3 2518   3.633   0.408   7.333 -1.8687  0.0960 -2.2243
   35CHL1    O3 2519   3.613   0.257   7.203  0.2339 -0.4378 -0.5303
   35CHL1   H3' 2520   3.607   0.162   7.210 -1.0969 -0.2399  1.8244
   35CHL1    C4 2521   3.779   0.238   7.365  0.1068 -0.2232 -0.0035
   35CHL1   H4A 2522   3.794   0.137   7.322  0.0327  0.0034 -0.5737
   35CHL1   H4B 2523   3.848   0.305   7.310  2.0127 -2.1820 -0.1042
   35CHL1    C5 2524   3.815   0.245   7.516  0.4347 -0.7202  0.1290
   35CHL1    C6 2525   3.925   0.313   7.561  0.0777  0.5605 -0.4249
   35CHL1    H6 2526   3.997   0.369   7.499  1.9150 -1.8848 -0.6885
   35CHL1    C7 2527   3.970   0.313   7.708  0.9694 -0.1632  0.0287
   35CHL1   H7A 2528   4.080   0.303   7.723  0.8016 -3.7418 -0.3790
   35CHL1   H7B 2529   3.952   0.411   7.757  0.1366 -1.1970  1.8982
   35CHL1    C8 2530   3.897   0.205   7.798 -0.0818 -0.1091  0.2088
   35CHL1    H8 2531   3.927   0.098   7.785 -1.2496 -0.3074 -1.1253
   35CHL1   C14 2532   3.921   0.233   7.937 -0.0518 -0.1050  0.0072
   35CHL1   H14 2533   3.877   0.333   7.954  1.2847  0.3330  1.1115
   35CHL1   C15 2534   4.068   0.238   7.985  0.6291  0.3445  0.3294
   35CHL1  H15A 2535   4.129   0.161   7.934 -1.4843  0.8400 -3.2554
   35CHL1  H15B 2536   4.108   0.337   7.954 -1.7997  0.9412 -1.1582
   35CHL1   C16 2537   4.053   0.241   8.135  0.2365  0.3999 -0.4507
   35CHL1  H16A 2538   4.118   0.163   8.181  0.3954  1.5712  1.3845
   35CHL1  H16B 2539   4.089   0.341   8.167  0.2607  0.1355  0.3589
   35CHL1   C17 2540   3.906   0.211   8.171 -0.8610  0.5823  0.3088
   35CHL1   H17 2541   3.847   0.305   8.162 -2.4277 -0.2493  1.4991
   35CHL1   C13 2542   3.850   0.143   8.041 -0.2786 -0.2404 -0.1215
   35CHL1   C18 2543   3.900   0.001   8.034  0.5442  0.2100 -0.0392
   35CHL1  H18A 2544   3.882  -0.047   7.935 -0.6539  4.6487 -2.2257
   35CHL1  H18B 2545   4.011   0.005   8.044  0.4637 -0.1994  1.1668
   35CHL1  H18C 2546   3.857  -0.068   8.110  0.9530  1.8768  1.7891
   35CHL1   C12 2547   3.705   0.164   8.015  0.7597 -0.4063 -0.0540
   35CHL1  H12A 2548   3.643   0.100   8.081 -0.4092  0.4729 -0.2671
   35CHL1  H12B 2549   3.669   0.269   8.014 -0.6732 -0.8413  1.1758
   35CHL1   C11 2550   3.674   0.127   7.870  0.2980  0.8554  0.0447
   35CHL1  H11A 2551   3.696   0.019   7.858 -0.5798  0.5976  0.6279
   35CHL1  H11B 2552   3.563   0.131   7.867  0.3045  0.5271 -1.7925
   35CHL1    C9 2553   3.748   0.210   7.765  0.0564  0.0889  0.5972
   35CHL1    H9 2554   3.718   0.314   7.790  1.7502  0.0799  2.9720
   35CHL1   C10 2555   3.721   0.177   7.616 -0.3449 -0.2492  1.1580
   35CHL1   C19 2556   3.731   0.025   7.605 -0.3133 -1.0626  0.1729
   35CHL1  H19A 2557   3.636  -0.023   7.636 -0.6927 -0.0781  0.5927
   35CHL1  H19B 2558   3.750  -0.012   7.501  3.8534 -2.5994  1.2969
   35CHL1  H19C 2559   3.817  -0.024   7.654  0.6929  0.2281 -0.2223
   35CHL1    C1 2560   3.576   0.240   7.586 -0.4658 -0.3347  0.7026
   35CHL1   H1A 2561   3.499   0.196   7.653 -0.7232 -1.8758 -0.5175
   35CHL1   H1B 2562   3.577   0.349   7.607  0.6587  0.5088 -2.9466
   35CHL1    C2 2563   3.544   0.233   7.438 -0.5954 -0.5519 -0.2588
   35CHL1   H2A 2564   3.444   0.278   7.424  0.3256  1.5407 -0.5681
   35CHL1   H2B 2565   3.539   0.125   7.413 -2.7777 -1.0813  2.0416
   35CHL1   C20 2566   3.870   0.157   8.308  0.0448 -0.8990  0.1371
   35CHL1   H20 2567   3.764   0.126   8.301 -0.3251  0.6513 -2.9320
   35CHL1   C21 2568   3.871   0.273   8.415 -0.3386  0.6387 -0.1661
   35CHL1  H21A 2569   3.829   0.236   8.510  0.8760 -4.3357 -1.3008
   35CHL1  H21B 2570   3.803   0.350   8.373  0.8024  1.7186 -0.0892
   35CHL1  H21C 2571   3.974   0.313   8.420 -0.4228  0.8420 -0.0291
   35CHL1   C22 2572   3.964   0.042   8.356  0.1489 -0.0164 -0.4908
   35CHL1  H22A 2573   3.985  -0.032   8.276 -1.2293  2.0784 -2.9682
   35CHL1  H22B 2574   4.057   0.092   8.393  0.2709  1.3377 -2.4693
   35CHL1   C23 2575   3.909  -0.038   8.475  0.1673 -0.1261 -0.5400
   35CHL1  H23A 2576   3.897   0.029   8.562 -0.4618 -2.2267  1.0749
   35CHL1  H23B 2577   3.808  -0.073   8.443  0.6506 -1.3504 -0.8014
   35CHL1   C24 2578   3.992  -0.157   8.512  0.0603 -0.4356  0.3391
   35CHL1  H24A 2579   4.015  -0.218   8.421 -1.3025 -0.5650  0.0553
   35CHL1  H24B 2580   4.093  -0.120   8.539  2.2765 -2.7476 -3.7927
   35CHL1   C25 2581   3.928  -0.238   8.625 -0.1475  0.3690  0.9866
   35CHL1   H25 2582   3.921  -0.171   8.713  1.1982 -2.5729  3.5366
   35CHL1   C26 2583   3.785  -0.300   8.591 -0.2124 -0.0934  0.1216
   35CHL1  H26A 2584   3.710  -0.222   8.568  0.7150  1.1970  1.3110
   35CHL1  H26B 2585   3.802  -0.358   8.498  0.8023  0.5317 -0.0880
   35CHL1  H26C 2586   3.743  -0.357   8.677 -1.2701  0.2073 -0.1738
   35CHL1   C27 2587   4.033  -0.346   8.649 -0.3703 -0.1674 -0.5329
   35CHL1  H27A 2588   4.133  -0.298   8.650 -0.3621  0.0500 -3.6301
   35CHL1  H27B 2589   4.021  -0.409   8.559 -1.5900  1.1548 -1.3336
   35CHL1  H27C 2590   3.999  -0.395   8.743  1.1346  0.1598  0.2206
   36CHL1    C3 2591   5.755   4.487   6.921 -0.1212 -0.3173 -0.2596
   36CHL1    H3 2592   5.683   4.568   6.945 -1.2201 -1.7636  1.6843
   36CHL1    O3 2593   5.776   4.496   6.775 -0.3033 -0.0756  0.1748
   36CHL1   H3' 2594   5.705   4.445   6.736  1.1171 -1.2929 -0.9493
   36CHL1    C4 2595   5.892   4.504   6.990 -0.2895 -0.0858 -0.2628
   36CHL1   H4A 2596   5.968   4.427   6.966 -1.5813 -0.8902 -1.9509
   36CHL1   H4B 2597   5.926   4.602   6.950 -0.8751 -0.2458 -1.1639
   36CHL1    C5 2598   5.879   4.514   7.137  0.3748  0.2768 -0.6403
   36CHL1    C6 2599   5.907   4.629   7.195  0.0929  0.2692 -0.0098
   36CHL1    H6 2600   5.950   4.713   7.139 -0.2551  1.2468  1.1326
   36CHL1    C7 2601   5.907   4.652   7.342  0.5482 -0.1537 -0.2444
   36CHL1   H7A 2602   6.001   4.704   7.368  0.9485  0.2277 -2.2347
   36CHL1   H7B 2603   5.826   4.724   7.367  0.5592 -0.6367  1.2517
   36CHL1    C8 2604   5.882   4.530   7.424 -0.4036  0.1628 -0.0234
   36CHL1    H8 2605   5.977   4.472   7.427 -1.7642 -2.2038 -0.3195
   36CHL1   C14 2606   5.840   4.570   7.567 -0.0093  0.5209  0.4631
   36CHL1   H14 2607   5.750   4.629   7.544  0.6596  1.0236 -0.9654
   36CHL1   C15 2608   5.923   4.679   7.653  0.7209  0.0487  0.7106
   36CHL1  H15A 2609   6.031   4.665   7.630  0.6547 -0.9100  0.9453
   36CHL1  H15B 2610   5.908   4.783   7.618 -0.5689 -0.7115 -1.1483
   36CHL1   C16 2611   5.888   4.650   7.795  0.4652  0.1350  0.7017
   36CHL1  H16A 2612   5.975   4.620   7.857  0.5696  0.1619  0.5694
   36CHL1  H16B 2613   5.836   4.735   7.845 -1.9337  0.7333 -2.4939
   36CHL1   C17 2614   5.783   4.530   7.793 -0.4678  0.2039 -0.3515
   36CHL1   H17 2615   5.682   4.576   7.783  0.1730  1.5547 -0.9494
   36CHL1   C13 2616   5.808   4.450   7.654 -0.2357 -0.6704  0.9582
   36CHL1   C18 2617   5.937   4.355   7.681  0.4030 -0.0543 -0.6551
   36CHL1  H18A 2618   6.005   4.405   7.753  0.1169  1.6014 -1.4738
   36CHL1  H18B 2619   5.892   4.264   7.726  0.9315 -0.7455 -1.5020
   36CHL1  H18C 2620   5.982   4.325   7.584 -1.2137  0.9312 -1.7677
   36CHL1   C12 2621   5.693   4.369   7.590  0.1220  0.5419 -0.0645
   36CHL1  H12A 2622   5.670   4.277   7.647 -2.1011 -0.2270 -1.9865
   36CHL1  H12B 2623   5.600   4.430   7.592 -1.6046 -1.8602 -1.4184
   36CHL1   C11 2624   5.725   4.327   7.448 -1.0674  0.1732  0.8477
   36CHL1  H11A 2625   5.801   4.246   7.449 -1.1024  0.0759 -0.7095
   36CHL1  H11B 2626   5.633   4.285   7.401 -1.9768  2.7022  0.1841
   36CHL1    C9 2627   5.770   4.442   7.355 -0.6082  0.3946  0.1496
   36CHL1    H9 2628   5.680   4.507   7.354 -1.1156 -0.2992  0.0546
   36CHL1   C10 2629   5.806   4.399   7.208 -0.4176  0.7628 -0.1883
   36CHL1   C19 2630   5.902   4.276   7.208 -0.2885  0.2766  0.1810
   36CHL1  H19A 2631   5.933   4.242   7.107 -2.0905 -2.0759  0.3398
   36CHL1  H19B 2632   5.996   4.292   7.266  0.4677  0.1122 -0.9754
   36CHL1  H19C 2633   5.847   4.188   7.248  0.3216 -0.0897  0.2328
   36CHL1    C1 2634   5.678   4.359   7.130  0.1742  0.1425 -0.8928
   36CHL1   H1A 2635   5.626   4.264   7.154 -1.1982  1.4532  1.7496
   36CHL1   H1B 2636   5.596   4.431   7.151  0.2915 -0.2458  1.1636
   36CHL1    C2 2637   5.693   4.358   6.979  0.1902  0.2207  0.4862
   36CHL1   H2A 2638   5.599   4.335   6.925  0.4861  1.0398 -0.4126
   36CHL1   H2B 2639   5.762   4.280   6.941  0.9579 -0.3117  2.8027
   36CHL1   C20 2640   5.794   4.453   7.931 -0.1665  0.3975  0.6492
   36CHL1   H20 2641   5.895   4.408   7.936 -0.0068  0.7093  0.2934
   36CHL1   C21 2642   5.674   4.352   7.923  0.1541 -0.8211 -0.4192
   36CHL1  H21A 2643   5.637   4.318   8.022  1.0152 -1.2658 -0.2392
   36CHL1  H21B 2644   5.694   4.253   7.875  0.1357 -1.4488  0.8241
   36CHL1  H21C 2645   5.588   4.397   7.869 -0.1024 -0.6196  0.1519
   36CHL1   C22 2646   5.784   4.559   8.046 -0.5848  0.6462 -0.1591
   36CHL1  H22A 2647   5.877   4.620   8.044  2.0818 -2.9694 -3.8961
   36CHL1  H22B 2648   5.697   4.621   8.014 -3.8716 -3.7129 -0.5122
   36CHL1   C23 2649   5.744   4.508   8.184  0.6788  0.4724  0.2215
   36CHL1  H23A 2650   5.644   4.460   8.178  0.0512  1.8789 -1.7718
   36CHL1  H23B 2651   5.823   4.434   8.208 -0.4155 -0.7880  0.0737
   36CHL1   C24 2652   5.743   4.616   8.290  0.6666 -0.1880 -0.1563
   36CHL1  H24A 2653   5.840   4.667   8.274  0.4349  0.3053 -0.0363
   36CHL1  H24B 2654   5.663   4.690   8.266  2.7535  1.9785 -0.8862
   36CHL1   C25 2655   5.730   4.581   8.441  0.0124 -0.4238 -0.6892
   36CHL1   H25 2656   5.809   4.504   8.453  1.2040  0.9219  0.6619
   36CHL1   C26 2657   5.761   4.692   8.539  0.9119 -0.1564  0.6280
   36CHL1  H26A 2658   5.727   4.670   8.642  2.4897  0.1484  1.2388
   36CHL1  H26B 2659   5.864   4.733   8.528 -0.0915  2.3904  0.1651
   36CHL1  H26C 2660   5.698   4.777   8.505  0.2139 -0.4867  1.0801
   36CHL1   C27 2661   5.598   4.515   8.473  0.0087  0.5316  0.6934
   36CHL1  H27A 2662   5.515   4.581   8.439 -1.7000 -2.1409 -0.6391
   36CHL1  H27B 2663   5.595   4.420   8.416  0.2779  1.5749 -1.1434
   36CHL1  H27C 2664   5.582   4.480   8.577 -0.6442  1.9272  1.0862
   37CHL1    C3 2665   1.734   1.664   7.039 -0.1821  0.2721  0.1649
   37CHL1    H3 2666   1.813   1.742   7.041 -0.1479  0.2842 -1.0960
   37CHL1    O3 2667   1.671   1.654   6.917 -0.2666 -0.0496 -0.0987
   37CHL1   H3' 2668   1.607   1.725   6.910 -0.0093  0.2718  0.6613
   37CHL1    C4 2669   1.791   1.532   7.077  0.3263 -0.1515  0.2786
   37CHL1   H4A 2670   1.724   1.447   7.053 -1.1914  1.0292  0.1561
   37CHL1   H4B 2671   1.878   1.521   7.009  0.3955  3.6055 -0.4871
   37CHL1    C5 2672   1.850   1.529   7.219 -0.4963  0.2359 -0.5421
   37CHL1    C6 2673   1.973   1.494   7.251 -0.7418  0.0085  0.2033
   37CHL1    H6 2674   2.036   1.457   7.169  1.1479 -1.3406  2.1637
   37CHL1    C7 2675   2.025   1.477   7.392  0.6147  0.1253 -0.1158
   37CHL1   H7A 2676   2.068   1.374   7.400 -0.3889 -0.2064  1.4262
   37CHL1   H7B 2677   2.106   1.551   7.410 -0.2106  0.8748  0.6062
   37CHL1    C8 2678   1.913   1.491   7.495  0.0758 -0.1124 -0.3463
   37CHL1    H8 2679   1.859   1.394   7.486  2.2115 -1.2774 -1.5708
   37CHL1   C14 2680   1.977   1.509   7.629 -0.0112 -0.4402 -0.5026
   37CHL1   H14 2681   2.014   1.613   7.640 -1.7429  0.1856 -0.2123
   37CHL1   C15 2682   2.083   1.409   7.678  0.3332 -0.3539  0.0352
   37CHL1  H15A 2683   2.056   1.305   7.652 -3.3432  0.6990 -1.0831
   37CHL1  H15B 2684   2.182   1.431   7.633 -0.1648  0.8299 -0.5313
   37CHL1   C16 2685   2.083   1.445   7.829 -0.7486  0.0062 -0.5349
   37CHL1  H16A 2686   2.087   1.349   7.884  0.1203  0.3475  0.0207
   37CHL1  H16B 2687   2.175   1.504   7.849  1.0242 -3.1754  1.6305
   37CHL1   C17 2688   1.954   1.522   7.869 -0.1361 -0.7786 -0.3393
   37CHL1   H17 2689   1.983   1.629   7.881 -1.7629 -0.4621  1.2806
   37CHL1   C13 2690   1.864   1.512   7.741 -0.4503  0.4446 -0.8025
   37CHL1   C18 2691   1.784   1.382   7.742 -0.1910  0.6866 -0.7149
   37CHL1  H18A 2692   1.696   1.378   7.810 -0.9630 -1.8522 -1.7697
   37CHL1  H18B 2693   1.740   1.352   7.645 -0.3589  1.2612 -0.8197
   37CHL1  H18C 2694   1.849   1.300   7.780 -2.6109 -0.1882  1.8864
   37CHL1   C12 2695   1.778   1.630   7.721  0.3761 -0.4435  0.8193
   37CHL1  H12A 2696   1.697   1.648   7.794 -0.6470 -1.2345 -0.0878
   37CHL1  H12B 2697   1.854   1.711   7.727  1.9511 -1.7379 -0.4286
   37CHL1   C11 2698   1.712   1.626   7.577 -0.1287  0.3131  0.2682
   37CHL1  H11A 2699   1.642   1.540   7.581  1.1584 -0.7539  0.2814
   37CHL1  H11B 2700   1.653   1.718   7.560 -0.7233 -0.4993 -2.4951
   37CHL1    C9 2701   1.815   1.603   7.457 -0.2454  0.6301 -0.2666
   37CHL1    H9 2702   1.878   1.695   7.459  1.5079 -0.4927 -0.7492
   37CHL1   C10 2703   1.747   1.581   7.323  0.3509 -0.0763 -0.3824
   37CHL1   C19 2704   1.637   1.470   7.336  0.1366 -0.2135 -0.4245
   37CHL1  H19A 2705   1.605   1.446   7.232  0.0598  0.9896 -0.6926
   37CHL1  H19B 2706   1.684   1.375   7.370  0.7986  0.9335  2.0773
   37CHL1  H19C 2707   1.549   1.497   7.397 -0.1628  1.9853 -1.7263
   37CHL1    C1 2708   1.685   1.719   7.277 -0.8099  0.3287 -0.0316
   37CHL1   H1A 2709   1.616   1.759   7.355  0.7241  1.6029  0.7367
   37CHL1   H1B 2710   1.766   1.795   7.269 -0.4128  0.0718  1.3471
   37CHL1    C2 2711   1.625   1.702   7.140 -0.2505  0.1504 -0.0541
   37CHL1   H2A 2712   1.588   1.803   7.111 -0.5806  0.1748  0.4418
   37CHL1   H2B 2713   1.536   1.636   7.137 -1.0893  1.0906  2.0150
   37CHL1   C20 2714   1.900   1.485   8.011  0.3467  0.0653 -0.3789
   37CHL1   H20 2715   1.882   1.376   7.998 -0.2366  0.2885 -1.6232
   37CHL1   C21 2716   1.771   1.560   8.042 -0.0006 -0.2719  0.7026
   37CHL1  H21A 2717   1.686   1.524   7.980 -1.2931  1.6067  1.3041
   37CHL1  H21B 2718   1.782   1.670   8.028  0.9706 -0.3148  1.0811
   37CHL1  H21C 2719   1.733   1.545   8.145 -0.3934  0.7341  0.7100
   37CHL1   C22 2720   2.014   1.502   8.128  0.2570 -0.5120  0.3535
   37CHL1  H22A 2721   2.113   1.460   8.099  0.3529 -0.6030  0.8054
   37CHL1  H22B 2722   2.040   1.608   8.147  2.2069 -0.8897 -0.0400
   37CHL1   C23 2723   1.981   1.418   8.255  0.0703  0.0913  0.1351
   37CHL1  H23A 2724   1.904   1.482   8.303 -0.7147 -0.2341 -0.6678
   37CHL1  H23B 2725   1.937   1.321   8.223  0.3166  0.0161  0.0203
   37CHL1   C24 2726   2.096   1.405   8.352  0.6640  0.2034 -0.3021
   37CHL1  H24A 2727   2.179   1.351   8.301 -1.8333 -1.8719 -2.4631
   37CHL1  H24B 2728   2.122   1.507   8.389  0.7239  0.0465  0.0963
   37CHL1   C25 2729   2.079   1.307   8.472  0.0834 -0.1997 -0.6744
   37CHL1   H25 2730   2.022   1.216   8.441 -0.7215 -0.2479  0.8450
   37CHL1   C26 2731   2.210   1.283   8.544 -0.2563 -0.5720  0.1757
   37CHL1  H26A 2732   2.268   1.226   8.468 -1.2605  1.8633 -2.6267
   37CHL1  H26B 2733   2.260   1.379   8.570 -0.5931  0.2655 -1.9909
   37CHL1  H26C 2734   2.181   1.225   8.634 -0.0816 -2.7695 -1.1306
   37CHL1   C27 2735   1.980   1.373   8.578 -0.1797 -0.2113 -0.5067
   37CHL1  H27A 2736   2.034   1.452   8.635 -0.8619  0.0386 -0.1905
   37CHL1  H27B 2737   1.886   1.409   8.532  0.9714  1.3910 -1.6963
   37CHL1  H27C 2738   1.969   1.293   8.654  1.9291  0.0706  0.1794
   38CHL1    C3 2739   0.640   2.737   6.670  0.3130  0.4026 -0.1497
   38CHL1    H3 2740   0.684   2.637   6.689  0.8577  0.2266 -2.1220
   38CHL1    O3 2741   0.612   2.754   6.535  0.4448 -0.7612  0.6061
   38CHL1   H3' 2742   0.535   2.698   6.521 -0.6276  0.8235 -0.1518
   38CHL1    C4 2743   0.514   2.756   6.750 -0.4839  0.8785  0.0288
   38CHL1   H4A 2744   0.472   2.855   6.724  0.2433  1.0382 -0.5674
   38CHL1   H4B 2745   0.437   2.680   6.724 -0.0702 -0.2114  1.8255
   38CHL1    C5 2746   0.528   2.749   6.905  0.0998 -0.0583  0.5712
   38CHL1    C6 2747   0.457   2.666   6.985 -0.3288  0.3486  0.0686
   38CHL1    H6 2748   0.393   2.586   6.946  0.0865 -0.3407  0.7583
   38CHL1    C7 2749   0.474   2.658   7.138  0.2505  0.0859  0.0698
   38CHL1   H7A 2750   0.376   2.639   7.187  1.3599 -0.1479  2.3608
   38CHL1   H7B 2751   0.546   2.577   7.164  3.2676  2.5011 -0.1263
   38CHL1    C8 2752   0.529   2.794   7.195 -1.0546 -0.2985  0.5632
   38CHL1    H8 2753   0.443   2.864   7.185 -0.1662  0.8916  1.0342
   38CHL1   C14 2754   0.566   2.779   7.340  0.2563  0.2017  0.0946
   38CHL1   H14 2755   0.649   2.707   7.355 -1.1892 -1.5142  0.3189
   38CHL1   C15 2756   0.450   2.746   7.441  0.2885 -0.3788  0.4215
   38CHL1  H15A 2757   0.365   2.811   7.410  0.8037 -0.7718 -2.0195
   38CHL1  H15B 2758   0.427   2.639   7.423 -0.2119 -0.0977 -0.7079
   38CHL1   C16 2759   0.508   2.776   7.581  0.2563  0.4647 -1.0801
   38CHL1  H16A 2760   0.433   2.831   7.642 -0.2659 -0.4639 -0.8601
   38CHL1  H16B 2761   0.542   2.689   7.640 -1.7550  0.9963  0.9985
   38CHL1   C17 2762   0.630   2.866   7.552 -0.2682 -0.3771  0.4561
   38CHL1   H17 2763   0.724   2.808   7.558  0.6624  0.9688 -0.4356
   38CHL1   C13 2764   0.623   2.909   7.404  0.4366 -0.8804  0.4743
   38CHL1   C18 2765   0.525   3.029   7.404  1.1958  0.0333  0.3855
   38CHL1  H18A 2766   0.437   3.006   7.467  0.9575  2.0244  0.8296
   38CHL1  H18B 2767   0.567   3.115   7.461  0.1178  1.2614 -0.6069
   38CHL1  H18C 2768   0.499   3.075   7.306  1.3035  0.3549  0.5077
   38CHL1   C12 2769   0.750   2.952   7.330  0.0011  1.0458 -0.2049
   38CHL1  H12A 2770   0.790   3.050   7.366  0.6055  0.3642  1.0323
   38CHL1  H12B 2771   0.824   2.871   7.346 -0.3040  0.7240 -0.4235
   38CHL1   C11 2772   0.734   2.957   7.175  0.6663 -0.1845 -0.2441
   38CHL1  H11A 2773   0.680   3.054   7.163  0.2211 -0.4945 -0.7916
   38CHL1  H11B 2774   0.839   2.970   7.143  1.3617 -1.2369  1.4704
   38CHL1    C9 2775   0.655   2.842   7.111 -1.2198  0.4580  0.0500
   38CHL1    H9 2776   0.730   2.761   7.122 -2.2540 -1.0814 -2.9955
   38CHL1   C10 2777   0.624   2.855   6.962  0.1114 -0.2648  0.5280
   38CHL1   C19 2778   0.558   2.995   6.942 -0.7293  0.0233 -0.0813
   38CHL1  H19A 2779   0.503   3.025   7.034 -0.4410  3.5405 -0.9301
   38CHL1  H19B 2780   0.644   3.064   6.932  0.9624 -1.5669  2.3140
   38CHL1  H19C 2781   0.496   3.011   6.851 -0.7117 -0.2157 -0.1384
   38CHL1    C1 2782   0.761   2.852   6.873  0.3292  0.1679 -0.3639
   38CHL1   H1A 2783   0.819   2.944   6.899 -0.5625  0.0952  2.1254
   38CHL1   H1B 2784   0.810   2.756   6.900  1.0098  0.9770  1.4308
   38CHL1    C2 2785   0.736   2.845   6.722 -0.2966  0.2756 -0.6078
   38CHL1   H2A 2786   0.831   2.851   6.664  0.2998 -0.6897  0.2227
   38CHL1   H2B 2787   0.693   2.943   6.694  1.0490  1.3469  0.8742
   38CHL1   C20 2788   0.641   2.975   7.663  0.1075 -0.9012  0.9116
   38CHL1   H20 2789   0.549   3.036   7.654 -0.1647 -1.2491  1.2761
   38CHL1   C21 2790   0.772   3.059   7.643  0.5228 -0.1024 -0.0487
   38CHL1  H21A 2791   0.857   2.993   7.615 -0.3216 -2.4373  2.4451
   38CHL1  H21B 2792   0.806   3.130   7.722  1.4765 -0.6184  0.0221
   38CHL1  H21C 2793   0.749   3.118   7.552 -0.4268 -2.6498 -1.5465
   38CHL1   C22 2794   0.634   2.907   7.801  0.2808 -0.4405 -0.5891
   38CHL1  H22A 2795   0.535   2.862   7.824 -0.2060  1.4335  1.2278
   38CHL1  H22B 2796   0.721   2.839   7.812  1.1662  0.4819 -1.6215
   38CHL1   C23 2797   0.658   2.994   7.923 -0.2468  0.2202 -0.1376
   38CHL1  H23A 2798   0.758   3.041   7.933  0.3366 -0.4663 -2.3329
   38CHL1  H23B 2799   0.593   3.084   7.912 -1.2270 -0.3225  0.9853
   38CHL1   C24 2800   0.638   2.933   8.064 -0.4229 -0.0685 -0.0510
   38CHL1  H24A 2801   0.568   2.849   8.042 -0.1656  0.4152 -3.1565
   38CHL1  H24B 2802   0.737   2.891   8.093  0.5069  0.7710 -1.8152
   38CHL1   C25 2803   0.620   3.039   8.176  0.8565 -0.4004 -0.0285
   38CHL1   H25 2804   0.685   3.128   8.160  0.9464 -0.3150  0.7463
   38CHL1   C26 2805   0.475   3.100   8.179 -0.1789 -0.4635 -0.4157
   38CHL1  H26A 2806   0.400   3.018   8.179 -1.0381  0.2993  0.0439
   38CHL1  H26B 2807   0.461   3.152   8.276 -0.2418  0.8948 -1.1327
   38CHL1  H26C 2808   0.457   3.168   8.093 -2.2425  0.4403  0.6612
   38CHL1   C27 2809   0.655   2.973   8.312 -0.7285 -0.2955  0.0291
   38CHL1  H27A 2810   0.593   2.882   8.324  0.3197 -0.8711  1.4229
   38CHL1  H27B 2811   0.761   2.941   8.307 -0.8125 -0.5384 -0.1997
   38CHL1  H27C 2812   0.634   3.034   8.403  0.3775 -0.4986  0.4356
   39CHL1    C3 2813   6.260   1.966   6.848 -0.6903 -0.4237 -0.1914
   39CHL1    H3 2814   6.252   1.860   6.879 -1.0571 -0.6715 -1.0919
   39CHL1    O3 2815   6.280   1.970   6.708 -0.4783 -0.3253 -0.1340
   39CHL1   H3' 2816   6.307   2.062   6.706 -0.8187 -0.1553  1.5172
   39CHL1    C4 2817   6.136   2.052   6.884  0.1148  0.2652 -0.0037
   39CHL1   H4A 2818   6.149   2.156   6.849 -1.7850  0.8687  0.9516
   39CHL1   H4B 2819   6.058   2.008   6.818  0.2227 -1.1892  0.7843
   39CHL1    C5 2820   6.120   2.061   7.038  0.6693 -0.3630  0.1337
   39CHL1    C6 2821   6.013   2.001   7.094  0.2828  0.1724 -0.8415
   39CHL1    H6 2822   5.932   1.954   7.038 -0.1492 -1.8160  1.2940
   39CHL1    C7 2823   5.986   1.975   7.239 -0.5729 -1.0294 -0.0808
   39CHL1   H7A 2824   5.884   2.008   7.271  1.0318  2.3008  2.1671
   39CHL1   H7B 2825   6.020   1.876   7.275 -1.0273 -0.4576  2.1072
   39CHL1    C8 2826   6.080   2.065   7.337 -0.1433 -0.3060  0.1224
   39CHL1    H8 2827   6.044   2.170   7.338 -1.7235 -0.7034  4.3889
   39CHL1   C14 2828   6.100   2.011   7.477  0.4642  0.3421 -0.8474
   39CHL1   H14 2829   6.166   1.921   7.481 -0.9763 -0.7039  0.5985
   39CHL1   C15 2830   5.977   1.959   7.552 -0.3374 -0.5653  0.2060
   39CHL1  H15A 2831   5.891   2.024   7.524 -1.0366 -1.3531  0.4784
   39CHL1  H15B 2832   5.937   1.857   7.538 -2.4709  0.2184  0.1784
   39CHL1   C16 2833   6.008   1.990   7.698 -0.3389  0.6235 -0.3829
   39CHL1  H16A 2834   5.937   2.053   7.755 -1.9392 -2.2316  1.0136
   39CHL1  H16B 2835   6.008   1.896   7.758  1.8315  1.4577  1.0520
   39CHL1   C17 2836   6.158   2.037   7.709  0.1694  0.1128 -0.9203
   39CHL1   H17 2837   6.213   1.941   7.713  2.2209  1.2709  1.7460
   39CHL1   C13 2838   6.175   2.110   7.572 -0.2146  0.3347  0.3707
   39CHL1   C18 2839   6.108   2.253   7.588 -0.1199  0.2302 -0.0300
   39CHL1  H18A 2840   6.116   2.316   7.497 -2.3436 -0.7967 -1.0141
   39CHL1  H18B 2841   6.002   2.246   7.619  0.0127 -1.7548  0.0870
   39CHL1  H18C 2842   6.167   2.308   7.664  2.4278 -0.6499 -1.2542
   39CHL1   C12 2843   6.321   2.117   7.521 -0.8691  0.5066 -0.2037
   39CHL1  H12A 2844   6.379   2.189   7.582 -0.2944  1.7311 -2.0899
   39CHL1  H12B 2845   6.376   2.020   7.523 -1.2680  0.2408 -1.1769
   39CHL1   C11 2846   6.318   2.163   7.367  0.3045  0.0731 -0.1289
   39CHL1  H11A 2847   6.296   2.272   7.377  2.1131  0.3873  0.8978
   39CHL1  H11B 2848   6.425   2.154   7.340  0.4561  0.0548  0.4641
   39CHL1    C9 2849   6.219   2.080   7.273 -0.0432  0.0105  0.0973
   39CHL1    H9 2850   6.268   1.981   7.274  1.2188  0.4657 -3.3360
   39CHL1   C10 2851   6.237   2.116   7.126 -0.3959 -0.0618 -0.2375
   39CHL1   C19 2852   6.233   2.276   7.113 -0.0067 -0.4088 -0.1171
   39CHL1  H19A 2853   6.138   2.320   7.147  0.5724  0.6719  0.1431
   39CHL1  H19B 2854   6.312   2.330   7.170 -1.5571  1.5908  0.2089
   39CHL1  H19C 2855   6.240   2.288   7.002  0.8418 -0.8132 -0.1188
   39CHL1    C1 2856   6.363   2.052   7.067 -0.0548 -0.4640  0.2269
   39CHL1   H1A 2857   6.455   2.106   7.098  0.1771 -1.3930  1.1921
   39CHL1   H1B 2858   6.377   1.950   7.108  2.0931  0.5239  2.1942
   39CHL1    C2 2859   6.377   2.036   6.912 -0.6619 -0.0049  0.1268
   39CHL1   H2A 2860   6.466   1.983   6.871 -0.2460 -0.3154  1.3762
   39CHL1   H2B 2861   6.387   2.143   6.884 -0.3382  0.1483  0.8170
   39CHL1   C20 2862   6.169   2.114   7.847 -0.0770 -0.1140  0.6690
   39CHL1   H20 2863   6.097   2.199   7.847 -0.8125 -0.7259  0.8414
   39CHL1   C21 2864   6.314   2.168   7.853 -0.0877 -0.3300 -0.2901
   39CHL1  H21A 2865   6.336   2.190   7.959 -0.1838 -1.1533 -0.0983
   39CHL1  H21B 2866   6.327   2.265   7.799 -2.6932 -0.6611 -1.6676
   39CHL1  H21C 2867   6.388   2.091   7.823  2.8234  1.4886  1.6411
   39CHL1   C22 2868   6.135   2.022   7.972 -0.4386 -0.0088  0.3468
   39CHL1  H22A 2869   6.039   1.967   7.960 -0.5199  0.2135 -0.0274
   39CHL1  H22B 2870   6.214   1.945   7.985 -0.7339 -0.0575  2.1330
   39CHL1   C23 2871   6.120   2.110   8.102  0.0647 -0.2788  0.8594
   39CHL1  H23A 2872   6.211   2.171   8.122  0.1706  0.2716 -1.0604
   39CHL1  H23B 2873   6.028   2.172   8.097  0.1509  0.0478  2.6851
   39CHL1   C24 2874   6.111   2.006   8.214 -0.1367  0.2923 -0.2232
   39CHL1  H24A 2875   6.023   1.941   8.199  0.6563 -0.6053 -1.0901
   39CHL1  H24B 2876   6.197   1.936   8.205 -0.8296 -0.9837  2.2483
   39CHL1   C25 2877   6.100   2.062   8.354 -0.2038  0.5404 -0.0208
   39CHL1   H25 2878   6.179   2.137   8.370 -0.7890  1.5847 -1.7330
   39CHL1   C26 2879   5.963   2.131   8.367 -0.9183  0.5644  0.6577
   39CHL1  H26A 2880   5.950   2.166   8.472  1.0981 -1.5072  1.6774
   39CHL1  H26B 2881   5.958   2.221   8.302  0.5130  0.7870  0.8410
   39CHL1  H26C 2882   5.882   2.059   8.342  1.7073 -1.4839 -2.9969
   39CHL1   C27 2883   6.115   1.952   8.463  0.0418 -0.0256  0.2179
   39CHL1  H27A 2884   6.223   1.946   8.488  0.5156  2.1190 -1.0952
   39CHL1  H27B 2885   6.064   1.984   8.556 -1.8770 -0.5290 -0.6112
   39CHL1  H27C 2886   6.069   1.855   8.435 -0.7166  0.9073 -2.0223
   40CHL1    C3 2887   5.501   0.179   6.902 -0.2064 -0.0410 -1.0161
   40CHL1    H3 2888   5.592   0.243   6.898 -0.2361  0.0329 -0.5699
   40CHL1    O3 2889   5.460   0.129   6.780  0.6518  0.0832 -0.0098
   40CHL1   H3' 2890   5.376   0.086   6.793 -0.4522  1.2850 -2.5068
   40CHL1    C4 2891   5.523   0.060   7.000  0.3528 -0.2218 -0.8094
   40CHL1   H4A 2892   5.440  -0.014   6.995  0.4329 -0.3714 -0.0752
   40CHL1   H4B 2893   5.615   0.023   6.950 -0.7042 -0.8552 -2.3562
   40CHL1    C5 2894   5.547   0.110   7.145  0.3209  0.3308 -0.2268
   40CHL1    C6 2895   5.654   0.078   7.215  0.7413  0.4688 -0.1794
   40CHL1    H6 2896   5.726   0.006   7.172  0.8383  1.2121 -1.2700
   40CHL1    C7 2897   5.675   0.120   7.359 -0.3849  0.8075 -0.3277
   40CHL1   H7A 2898   5.725   0.041   7.419  1.2782  2.8702  1.1770
   40CHL1   H7B 2899   5.747   0.205   7.361  2.2026 -1.2576 -0.4622
   40CHL1    C8 2900   5.541   0.147   7.426 -0.1432  0.7520 -0.2956
   40CHL1    H8 2901   5.470   0.062   7.426 -0.6832  1.1303 -2.4799
   40CHL1   C14 2902   5.574   0.201   7.567  0.2887 -0.1891  0.6205
   40CHL1   H14 2903   5.630   0.293   7.542  0.5055 -0.3475  0.5175
   40CHL1   C15 2904   5.659   0.115   7.660  0.2020 -0.2496  0.0716
   40CHL1  H15A 2905   5.635   0.008   7.672  2.1893 -0.6279  1.1502
   40CHL1  H15B 2906   5.765   0.129   7.631 -0.3223 -0.7262 -2.2109
   40CHL1   C16 2907   5.624   0.175   7.805 -0.2148  0.1595 -0.3895
   40CHL1  H16A 2908   5.578   0.100   7.873  2.2198 -1.0934  0.0073
   40CHL1  H16B 2909   5.715   0.220   7.852 -0.8148  0.9494  0.0504
   40CHL1   C17 2910   5.533   0.292   7.775  0.9909  0.7469  1.1324
   40CHL1   H17 2911   5.592   0.382   7.748 -0.1073  1.5012  1.1610
   40CHL1   C13 2912   5.460   0.255   7.647 -0.1055  0.2184 -0.1499
   40CHL1   C18 2913   5.358   0.146   7.675 -0.8660 -0.8234 -0.4843
   40CHL1  H18A 2914   5.300   0.121   7.583 -2.3002  1.3107 -0.2389
   40CHL1  H18B 2915   5.408   0.052   7.703 -1.5489 -1.4409 -1.2749
   40CHL1  H18C 2916   5.282   0.167   7.753  3.2370  1.2943  3.4097
   40CHL1   C12 2917   5.398   0.372   7.563 -0.2287 -0.5855  0.8267
   40CHL1  H12A 2918   5.305   0.409   7.612 -0.4058  0.9256 -0.5385
   40CHL1  H12B 2919   5.481   0.447   7.563 -0.9509  0.2361  0.4657
   40CHL1   C11 2920   5.357   0.341   7.416  0.0995  0.1438 -0.3641
   40CHL1  H11A 2921   5.261   0.286   7.426  0.0800 -0.3119 -2.5268
   40CHL1  H11B 2922   5.332   0.436   7.364 -1.4867 -0.2016 -0.2897
   40CHL1    C9 2923   5.465   0.257   7.338 -0.4331  0.2489 -0.4261
   40CHL1    H9 2924   5.546   0.330   7.316 -1.2499  1.0573 -0.8486
   40CHL1   C10 2925   5.429   0.195   7.195 -0.4821 -0.6196  0.5817
   40CHL1   C19 2926   5.305   0.110   7.204 -0.7525  0.1005 -0.1803
   40CHL1  H19A 2927   5.323   0.027   7.275 -0.3516  2.9645  3.3405
   40CHL1  H19B 2928   5.224   0.177   7.240 -0.2890  0.3471  0.4053
   40CHL1  H19C 2929   5.275   0.067   7.106 -0.4995  2.6676 -1.4748
   40CHL1    C1 2930   5.401   0.311   7.094 -0.2108  0.3501  0.0930
   40CHL1   H1A 2931   5.312   0.371   7.124  0.3320  2.3072 -1.9247
   40CHL1   H1B 2932   5.482   0.386   7.108  0.5333 -0.3254 -0.4896
   40CHL1    C2 2933   5.390   0.274   6.946  0.0325  0.2621  0.7212
   40CHL1   H2A 2934   5.403   0.375   6.901  1.2776  0.0965  0.6589
   40CHL1   H2B 2935   5.286   0.241   6.926 -1.0883  2.9065  1.7001
   40CHL1   C20 2936   5.454   0.337   7.899 -0.0364  0.3942  0.1268
   40CHL1   H20 2937   5.399   0.252   7.945  0.9655  0.1042  0.8086
   40CHL1   C21 2938   5.354   0.446   7.851  0.0683 -0.3538 -0.3366
   40CHL1  H21A 2939   5.264   0.413   7.794 -1.1164  1.1663  0.5969
   40CHL1  H21B 2940   5.401   0.520   7.783 -0.5789  1.0640  0.7272
   40CHL1  H21C 2941   5.316   0.509   7.933  1.3223  0.7613 -0.5911
   40CHL1   C22 2942   5.545   0.400   8.007  0.2513  0.8355  0.1399
   40CHL1  H22A 2943   5.631   0.335   8.034  0.1810  0.9675  0.6934
   40CHL1  H22B 2944   5.592   0.487   7.956 -0.8160  1.0012 -0.5836
   40CHL1   C23 2945   5.473   0.436   8.135  1.0605  0.3163 -0.2819
   40CHL1  H23A 2946   5.440   0.542   8.129  0.6857  0.3038  1.1876
   40CHL1  H23B 2947   5.381   0.374   8.136  0.9765  0.3671  2.4656
   40CHL1   C24 2948   5.553   0.398   8.263 -0.0686 -0.2268 -0.0786
   40CHL1  H24A 2949   5.566   0.288   8.270 -1.6755 -0.3595  2.0110
   40CHL1  H24B 2950   5.654   0.444   8.253  0.1551 -0.7041 -0.0584
   40CHL1   C25 2951   5.496   0.437   8.395 -0.5604 -0.2772  0.7007
   40CHL1   H25 2952   5.449   0.535   8.376  0.2384 -0.3248 -1.8917
   40CHL1   C26 2953   5.384   0.333   8.439 -0.4638 -0.5427  0.0812
   40CHL1  H26A 2954   5.304   0.341   8.362 -0.9732 -3.0189  0.2531
   40CHL1  H26B 2955   5.431   0.232   8.437  1.3869  0.2553  0.9339
   40CHL1  H26C 2956   5.341   0.346   8.540 -2.6211  0.2948 -0.8686
   40CHL1   C27 2957   5.604   0.466   8.501 -0.2746  0.5064 -0.1614
   40CHL1  H27A 2958   5.672   0.378   8.507 -2.4826 -1.1851  2.8921
   40CHL1  H27B 2959   5.673   0.549   8.476  2.2595 -0.9901  1.3784
   40CHL1  H27C 2960   5.572   0.487   8.605  0.0645  2.1572 -0.3642
   41CHL1    C3 2961   1.325   0.406   6.796  0.2798  0.8843 -0.6994
   41CHL1    H3 2962   1.221   0.369   6.781  0.8988 -0.9005 -0.7975
   41CHL1    O3 2963   1.379   0.443   6.667  0.4881 -0.0266 -0.4161
   41CHL1   H3' 2964   1.328   0.519   6.638  2.4945  0.8738 -1.7251
   41CHL1    C4 2965   1.328   0.522   6.903 -0.1164 -0.3128  0.1323
   41CHL1   H4A 2966   1.430   0.564   6.916 -0.0656 -1.1757  3.2484
   41CHL1   H4B 2967   1.263   0.607   6.874 -2.0902 -1.4810  0.9391
   41CHL1    C5 2968   1.296   0.481   7.043  0.1095  0.0453 -0.2362
   41CHL1    C6 2969   1.204   0.556   7.110 -0.4603 -0.3305 -0.3844
   41CHL1    H6 2970   1.171   0.653   7.071 -1.8166 -0.9197 -0.7712
   41CHL1    C7 2971   1.164   0.526   7.254  0.3776 -0.5013 -0.3114
   41CHL1   H7A 2972   1.152   0.617   7.315  3.2115 -0.6736  0.6391
   41CHL1   H7B 2973   1.070   0.467   7.262  1.8692 -2.8549  1.2209
   41CHL1    C8 2974   1.266   0.431   7.325  0.5553 -0.0366  0.7843
   41CHL1    H8 2975   1.360   0.479   7.360 -0.6222  1.0086  2.6464
   41CHL1   C14 2976   1.198   0.365   7.446 -0.3382 -0.0870 -0.3292
   41CHL1   H14 2977   1.120   0.296   7.408 -1.3431 -0.1782  1.7578
   41CHL1   C15 2978   1.116   0.458   7.544  1.3437  0.6949 -1.1085
   41CHL1  H15A 2979   1.151   0.563   7.552  0.1404  1.1143 -1.2593
   41CHL1  H15B 2980   1.011   0.463   7.509  0.0714  0.1403  2.2604
   41CHL1   C16 2981   1.127   0.372   7.678  0.6141  0.4235  1.3849
   41CHL1  H16A 2982   1.193   0.422   7.752  1.0430 -0.7208  1.8022
   41CHL1  H16B 2983   1.026   0.366   7.724 -0.6929  1.3404 -1.1381
   41CHL1   C17 2984   1.193   0.237   7.651  0.0453  0.0168  0.1471
   41CHL1   H17 2985   1.107   0.173   7.622 -0.3615 -0.0406  1.4156
   41CHL1   C13 2986   1.281   0.270   7.532 -0.4906  0.8571  0.0007
   41CHL1   C18 2987   1.410   0.334   7.582 -0.2789  0.2573  0.4721
   41CHL1  H18A 2988   1.470   0.274   7.653 -0.7725 -0.0427  0.6421
   41CHL1  H18B 2989   1.470   0.356   7.491 -0.1256 -0.3729  0.4121
   41CHL1  H18C 2990   1.381   0.429   7.632  0.0215  0.5333  0.1298
   41CHL1   C12 2991   1.307   0.155   7.438 -0.3131 -0.3440 -0.3136
   41CHL1  H12A 2992   1.377   0.077   7.475  3.6519  1.5101 -3.1273
   41CHL1  H12B 2993   1.213   0.098   7.421  0.3861 -2.0461  1.2430
   41CHL1   C11 2994   1.368   0.198   7.299  0.8190  0.3565  0.4949
   41CHL1  H11A 2995   1.472   0.230   7.322  0.1672  1.9729  1.4035
   41CHL1  H11B 2996   1.377   0.109   7.234  0.3135  0.1840  0.6613
   41CHL1    C9 2997   1.291   0.310   7.228  0.4966 -0.2009  0.0502
   41CHL1    H9 2998   1.191   0.270   7.199  0.8784 -1.8707  0.8994
   41CHL1   C10 2999   1.356   0.347   7.092  0.2410 -0.4954 -0.4537
   41CHL1   C19 3000   1.503   0.378   7.124  0.0414 -0.6165  0.0305
   41CHL1  H19A 3001   1.554   0.286   7.161  1.4092 -0.1516 -0.6030
   41CHL1  H19B 3002   1.558   0.406   7.031 -0.5672  1.1409  0.1613
   41CHL1  H19C 3003   1.528   0.460   7.194 -1.1582  0.7025 -1.0524
   41CHL1    C1 3004   1.346   0.236   6.977  0.1851  0.3052 -0.3948
   41CHL1   H1A 3005   1.398   0.143   7.008  0.1437  0.7095  0.9820
   41CHL1   H1B 3006   1.243   0.209   6.947  0.4256 -1.5864  0.3763
   41CHL1    C2 3007   1.409   0.292   6.845 -0.9118 -0.3954  0.1330
   41CHL1   H2A 3008   1.401   0.204   6.777  0.4373  0.1000 -0.7237
   41CHL1   H2B 3009   1.517   0.319   6.834 -0.3565 -1.2921  2.6291
   41CHL1   C20 3010   1.255   0.176   7.777  0.1520  0.3173  0.4990
   41CHL1   H20 3011   1.330   0.248   7.816 -0.6516  1.4654 -0.0156
   41CHL1   C21 3012   1.304   0.037   7.762 -0.7815  0.8511 -0.3005
   41CHL1  H21A 3013   1.247  -0.028   7.693 -0.0838  0.7990 -0.8379
   41CHL1  H21B 3014   1.319  -0.014   7.860 -1.5546  0.4254 -0.3987
   41CHL1  H21C 3015   1.407   0.051   7.721  0.2808 -1.3185  1.3583
   41CHL1   C22 3016   1.155   0.183   7.903  0.2016  0.2883 -0.3561
   41CHL1  H22A 3017   1.092   0.273   7.914  0.2478  0.0893  2.3777
   41CHL1  H22B 3018   1.082   0.102   7.883 -2.0199  2.1134 -0.0059
   41CHL1   C23 3019   1.221   0.160   8.040 -0.6434  0.1676  0.5336
   41CHL1  H23A 3020   1.260   0.056   8.047  1.2764  0.6777 -1.5811
   41CHL1  H23B 3021   1.309   0.228   8.048  2.3546 -3.3341  0.2787
   41CHL1   C24 3022   1.128   0.180   8.162  0.4214 -0.5091  0.9710
   41CHL1  H24A 3023   1.033   0.127   8.140 -0.3430  1.7005 -1.5507
   41CHL1  H24B 3024   1.181   0.125   8.244  1.3983 -1.5393 -0.3040
   41CHL1   C25 3025   1.094   0.330   8.199  0.6779  0.2865  0.7427
   41CHL1   H25 3026   1.075   0.384   8.104 -0.3483 -0.6754  0.3789
   41CHL1   C26 3027   0.978   0.335   8.295 -0.4677  0.1756 -0.1054
   41CHL1  H26A 3028   1.020   0.303   8.393  0.1360 -2.0407 -1.0328
   41CHL1  H26B 3029   0.930   0.434   8.311 -0.3424 -0.0682  2.1612
   41CHL1  H26C 3030   0.897   0.262   8.273  1.1399 -1.7463  0.0638
   41CHL1   C27 3031   1.223   0.404   8.250  0.1253 -0.1199 -0.6777
   41CHL1  H27A 3032   1.288   0.425   8.162 -0.5054  0.8813 -0.9136
   41CHL1  H27B 3033   1.199   0.499   8.302 -1.3675 -1.5423  1.4150
   41CHL1  H27C 3034   1.280   0.351   8.329  1.2268  1.1696 -0.5801
   42CHL1    C3 3035   3.909   3.455   6.940 -1.2063 -0.5996  0.4903
   42CHL1    H3 3036   3.844   3.368   6.961 -0.0566 -1.7138 -0.3708
   42CHL1    O3 3037   3.930   3.456   6.800  0.5710 -0.7973  0.6762
   42CHL1   H3' 3038   4.025   3.468   6.790  0.5661 -2.2954 -1.8484
   42CHL1    C4 3039   3.817   3.574   6.980 -0.6157 -0.1050 -0.5497
   42CHL1   H4A 3040   3.874   3.663   6.946 -1.7088  0.1281 -1.8598
   42CHL1   H4B 3041   3.714   3.570   6.937 -0.7800 -1.6552 -0.0687
   42CHL1    C5 3042   3.804   3.580   7.131  0.0840  0.5133  0.0550
   42CHL1    C6 3043   3.686   3.571   7.191  0.3402 -0.7101  0.0249
   42CHL1    H6 3044   3.594   3.568   7.131 -0.2876 -1.1196  0.9848
   42CHL1    C7 3045   3.659   3.578   7.340 -0.9630 -0.0374  0.3910
   42CHL1   H7A 3046   3.571   3.642   7.363 -1.0883  0.6854 -1.8544
   42CHL1   H7B 3047   3.618   3.476   7.357  2.8160 -2.1864 -2.0021
   42CHL1    C8 3048   3.786   3.625   7.413  0.4629 -0.0855  0.0532
   42CHL1    H8 3049   3.805   3.734   7.400 -0.5798 -0.1085 -1.8914
   42CHL1   C14 3050   3.776   3.590   7.563 -0.6605  0.3555  0.1329
   42CHL1   H14 3051   3.768   3.479   7.561  1.5904  0.1561 -1.9444
   42CHL1   C15 3052   3.651   3.636   7.639  0.2701 -0.2634 -0.1343
   42CHL1  H15A 3053   3.627   3.745   7.636  0.1157 -0.3070 -0.5145
   42CHL1  H15B 3054   3.557   3.584   7.609 -1.2708  1.9143  0.6144
   42CHL1   C16 3055   3.685   3.607   7.785 -0.1474 -0.1251  0.1509
   42CHL1  H16A 3056   3.666   3.701   7.842 -0.7811 -0.9935  1.4004
   42CHL1  H16B 3057   3.634   3.514   7.815  0.9586 -0.0174  2.5912
   42CHL1   C17 3058   3.833   3.575   7.794 -0.0248 -0.3447  0.6098
   42CHL1   H17 3059   3.850   3.466   7.786  0.7512 -0.0985 -2.8675
   42CHL1   C13 3060   3.894   3.617   7.660  0.4952 -0.6415  0.0029
   42CHL1   C18 3061   3.911   3.779   7.669  0.0308 -0.1324  1.2236
   42CHL1  H18A 3062   3.831   3.826   7.730  0.3575  0.6119  1.0917
   42CHL1  H18B 3063   4.009   3.806   7.715 -1.6254  2.0653  3.8453
   42CHL1  H18C 3064   3.894   3.828   7.571  0.1505  0.5235  1.5213
   42CHL1   C12 3065   4.014   3.550   7.596 -0.5158 -0.0555  0.5535
   42CHL1  H12A 3066   4.100   3.590   7.654  0.5676 -0.0413 -0.9929
   42CHL1  H12B 3067   4.008   3.440   7.608 -1.0877 -0.3592 -1.9783
   42CHL1   C11 3068   4.037   3.587   7.451 -0.2877  0.1660 -0.1263
   42CHL1  H11A 3069   4.064   3.695   7.455 -2.1766  0.6539  2.4221
   42CHL1  H11B 3070   4.120   3.526   7.411  0.4901  2.7782 -2.8760
   42CHL1    C9 3071   3.911   3.556   7.363 -0.1076 -0.8531 -0.2586
   42CHL1    H9 3072   3.882   3.449   7.370 -0.1196 -0.8980 -0.9408
   42CHL1   C10 3073   3.934   3.597   7.212  0.4033  0.5707 -0.1679
   42CHL1   C19 3074   3.987   3.740   7.189  0.2343 -0.0276 -0.2226
   42CHL1  H19A 3075   4.078   3.761   7.249  0.6552 -0.7428 -0.5898
   42CHL1  H19B 3076   4.024   3.746   7.085  0.2082  0.0462 -0.2277
   42CHL1  H19C 3077   3.906   3.810   7.216  1.0468  1.5115 -1.5780
   42CHL1    C1 3078   4.022   3.479   7.159 -0.7524 -0.4618 -0.9858
   42CHL1   H1A 3079   4.117   3.487   7.217 -1.9328  0.1343  0.9305
   42CHL1   H1B 3080   3.977   3.380   7.182  0.8364 -0.5332  2.4958
   42CHL1    C2 3081   4.048   3.471   7.011 -0.2069 -0.7168  0.3385
   42CHL1   H2A 3082   4.103   3.377   6.992 -0.3633 -1.1288  1.7925
   42CHL1   H2B 3083   4.104   3.564   6.988 -1.4197  0.1383  0.7215
   42CHL1   C20 3084   3.891   3.629   7.921 -0.1794 -0.0441  0.2108
   42CHL1   H20 3085   3.889   3.740   7.918 -1.1793 -0.0282  0.9919
   42CHL1   C21 3086   4.046   3.602   7.922  0.2874 -0.1132  0.0815
   42CHL1  H21A 3087   4.092   3.614   8.022  2.0205 -0.9972 -0.5810
   42CHL1  H21B 3088   4.097   3.676   7.857  0.7923  0.9670  1.6523
   42CHL1  H21C 3089   4.072   3.500   7.887  2.0317  0.3554 -0.0617
   42CHL1   C22 3090   3.823   3.565   8.041 -0.0282 -0.5772 -0.2651
   42CHL1  H22A 3091   3.713   3.570   8.034 -0.2063 -1.1025  1.5772
   42CHL1  H22B 3092   3.852   3.458   8.036 -0.5852 -0.7403 -0.0905
   42CHL1   C23 3093   3.854   3.635   8.179  0.1302  0.6938 -0.0301
   42CHL1  H23A 3094   3.961   3.663   8.189  0.5341 -1.1493  1.3998
   42CHL1  H23B 3095   3.794   3.729   8.184  0.0920  0.6653  0.0633
   42CHL1   C24 3096   3.826   3.538   8.299 -0.5336  0.5989  0.3302
   42CHL1  H24A 3097   3.724   3.506   8.270 -1.0504  2.9343 -0.7058
   42CHL1  H24B 3098   3.912   3.470   8.287 -1.6550 -0.4798 -2.2790
   42CHL1   C25 3099   3.841   3.604   8.438  0.0059  0.7025  0.2837
   42CHL1   H25 3100   3.826   3.713   8.424  1.0749  1.2042  2.5666
   42CHL1   C26 3101   3.735   3.552   8.533 -0.8954 -0.9752  0.2516
   42CHL1  H26A 3102   3.762   3.569   8.639 -1.4263 -1.3967  0.4525
   42CHL1  H26B 3103   3.631   3.587   8.516 -0.7797 -1.0816 -0.7555
   42CHL1  H26C 3104   3.722   3.443   8.517  1.6008 -1.5659  1.6488
   42CHL1   C27 3105   3.983   3.588   8.491  0.0823  0.3104  0.5308
   42CHL1  H27A 3106   4.064   3.633   8.430 -2.1789  1.1145 -2.0728
   42CHL1  H27B 3107   4.014   3.482   8.506 -1.0891  0.2392  3.0063
   42CHL1  H27C 3108   3.986   3.637   8.591 -0.5092  1.1047  0.1698
   43CHL1    C3 3109   0.567   6.614   6.876 -0.2774  0.2335 -0.4676
   43CHL1    H3 3110   0.582   6.723   6.885 -1.6149  0.6883 -2.8892
   43CHL1    O3 3111   0.594   6.577   6.738  0.1707 -0.0172  0.0967
   43CHL1   H3' 3112   0.607   6.482   6.737 -0.2364 -0.0730 -0.4037
   43CHL1    C4 3113   0.656   6.522   6.964  0.7601  0.0969  0.2803
   43CHL1   H4A 3114   0.652   6.414   6.936  1.8887  0.3637 -1.0179
   43CHL1   H4B 3115   0.761   6.545   6.936  0.5324  0.3648 -0.3764
   43CHL1    C5 3116   0.616   6.536   7.114 -0.0107  0.2953  0.9497
   43CHL1    C6 3117   0.716   6.570   7.200  0.2033  0.3280  0.1459
   43CHL1    H6 3118   0.820   6.582   7.168  1.9401 -1.8254  4.2095
   43CHL1    C7 3119   0.696   6.576   7.347  0.5763  0.0126 -0.4265
   43CHL1   H7A 3120   0.778   6.513   7.387  0.6811 -1.0734 -2.2579
   43CHL1   H7B 3121   0.698   6.680   7.385 -1.4650 -0.3110  0.7471
   43CHL1    C8 3122   0.555   6.523   7.395  0.7012 -0.4206 -0.4135
   43CHL1    H8 3123   0.560   6.412   7.407  1.3145 -0.5577 -1.7772
   43CHL1   C14 3124   0.525   6.593   7.531 -0.5404 -0.5141  0.7839
   43CHL1   H14 3125   0.527   6.704   7.524  1.2299 -0.5469  0.1619
   43CHL1   C15 3126   0.616   6.568   7.650 -0.6614  1.1171 -0.3351
   43CHL1  H15A 3127   0.630   6.458   7.656 -1.0168  1.1066  0.5226
   43CHL1  H15B 3128   0.715   6.616   7.636 -0.8971  2.3678  1.7705
   43CHL1   C16 3129   0.547   6.621   7.774  0.4473 -0.0154 -0.3908
   43CHL1  H16A 3130   0.555   6.549   7.859  0.3892  1.0047  0.4934
   43CHL1  H16B 3131   0.600   6.713   7.805 -0.4146  0.3178  0.1353
   43CHL1   C17 3132   0.401   6.642   7.727 -0.3812 -0.2491 -0.0972
   43CHL1   H17 3133   0.392   6.751   7.705 -1.8257 -0.4559 -0.6051
   43CHL1   C13 3134   0.392   6.561   7.595  0.5953  0.6661 -0.2581
   43CHL1   C18 3135   0.372   6.409   7.636 -0.0259  0.0171  0.7057
   43CHL1  H18A 3136   0.265   6.391   7.663 -0.2631 -2.1865 -1.3681
   43CHL1  H18B 3137   0.389   6.333   7.557 -0.6741 -1.0355  1.5495
   43CHL1  H18C 3138   0.434   6.380   7.724  1.1504  0.2782 -0.0277
   43CHL1   C12 3139   0.282   6.596   7.501 -0.6510  0.7628  0.2023
   43CHL1  H12A 3140   0.186   6.555   7.540 -1.7312 -0.0885 -3.0872
   43CHL1  H12B 3141   0.275   6.707   7.496 -0.1226  0.7386 -1.3190
   43CHL1   C11 3142   0.302   6.536   7.359 -0.6363 -0.4859  0.5456
   43CHL1  H11A 3143   0.270   6.430   7.368 -2.4722 -0.0813 -0.6177
   43CHL1  H11B 3144   0.226   6.588   7.297 -0.3415  2.1864  2.2447
   43CHL1    C9 3145   0.441   6.568   7.293  0.0653 -0.2586  0.1966
   43CHL1    H9 3146   0.458   6.678   7.297  1.7193 -0.3717 -1.9804
   43CHL1   C10 3147   0.464   6.517   7.154 -0.3570  0.5282  0.3186
   43CHL1   C19 3148   0.438   6.362   7.153  0.3727  0.1713  1.0207
   43CHL1  H19A 3149   0.491   6.301   7.230  2.1598 -2.5102 -2.0681
   43CHL1  H19B 3150   0.329   6.355   7.173  0.5155  0.2501  1.8948
   43CHL1  H19C 3151   0.462   6.323   7.052 -1.3355 -0.3865  0.8022
   43CHL1    C1 3152   0.385   6.590   7.050  0.4025  0.7674 -1.1595
   43CHL1   H1A 3153   0.281   6.553   7.066  1.5364 -2.5698 -0.6378
   43CHL1   H1B 3154   0.390   6.700   7.056  1.5138  0.6611  0.3172
   43CHL1    C2 3155   0.425   6.565   6.905  0.3929 -0.2089  0.2072
   43CHL1   H2A 3156   0.353   6.620   6.840  1.3893 -1.0414 -1.6908
   43CHL1   H2B 3157   0.415   6.458   6.877 -1.4947 -0.1195  0.3896
   43CHL1   C20 3158   0.296   6.633   7.833 -0.4058  0.0473  0.0523
   43CHL1   H20 3159   0.295   6.531   7.878  1.6444 -0.1588 -0.2813
   43CHL1   C21 3160   0.154   6.665   7.774 -0.4046  0.1593 -0.2027
   43CHL1  H21A 3161   0.169   6.736   7.690 -0.9255 -0.9514 -1.2512
   43CHL1  H21B 3162   0.079   6.703   7.847  1.4069  0.6097  1.5083
   43CHL1  H21C 3163   0.114   6.569   7.736  1.1511 -0.4836 -0.2775
   43CHL1   C22 3164   0.333   6.726   7.957 -0.5483 -0.9068  1.1291
   43CHL1  H22A 3165   0.435   6.701   7.993  0.9169  0.5022 -1.7257
   43CHL1  H22B 3166   0.333   6.833   7.929  0.1482 -1.2731 -0.4083
   43CHL1   C23 3167   0.239   6.704   8.071 -0.1354 -0.0773  0.2143
   43CHL1  H23A 3168   0.132   6.721   8.047  0.2122  1.0758 -0.6037
   43CHL1  H23B 3169   0.238   6.599   8.109 -1.5686  0.3275  1.4172
   43CHL1   C24 3170   0.257   6.799   8.192 -0.7517  0.0657  0.6918
   43CHL1  H24A 3171   0.348   6.765   8.247 -1.0335 -0.0240  1.1026
   43CHL1  H24B 3172   0.275   6.905   8.163  1.4869  0.2332  2.3758
   43CHL1   C25 3173   0.131   6.799   8.287  0.4436  0.1154  0.1156
   43CHL1   H25 3174   0.052   6.859   8.237  0.0428 -1.6006 -1.4414
   43CHL1   C26 3175   0.072   6.657   8.310  0.4577 -1.1045 -0.2675
   43CHL1  H26A 3176  -0.009   6.667   8.386  0.4602  2.5958 -0.5600
   43CHL1  H26B 3177   0.025   6.630   8.213  1.0492 -0.3828 -0.7655
   43CHL1  H26C 3178   0.148   6.589   8.353  1.1678 -0.8351 -1.0848
   43CHL1   C27 3179   0.154   6.875   8.421  0.3211  0.9561 -0.1197
   43CHL1  H27A 3180   0.219   6.810   8.483  0.7046  0.2135 -1.2659
   43CHL1  H27B 3181   0.220   6.963   8.405 -1.5108  2.4157 -0.0585
   43CHL1  H27C 3182   0.062   6.902   8.476  0.7178  0.6713  0.6873
   44CHL1    C3 3183   2.386   6.255   6.757 -0.2849 -0.7058 -0.2246
   44CHL1    H3 3184   2.477   6.311   6.787 -1.9793  0.7195  2.7245
   44CHL1    O3 3185   2.401   6.212   6.626 -0.7628 -0.2850 -0.1262
   44CHL1   H3' 3186   2.325   6.155   6.612 -1.4332  0.4974  0.2885
   44CHL1    C4 3187   2.370   6.127   6.840 -0.7311  0.2721  0.3381
   44CHL1   H4A 3188   2.279   6.081   6.794 -0.5140  0.1466  0.0335
   44CHL1   H4B 3189   2.459   6.063   6.825  0.3420  0.6987  4.0201
   44CHL1    C5 3190   2.344   6.152   6.987  0.3217  0.3414  0.0334
   44CHL1    C6 3191   2.416   6.095   7.089  0.6191  0.4654  0.5740
   44CHL1    H6 3192   2.494   6.023   7.061  0.1062  0.5436 -1.1746
   44CHL1    C7 3193   2.387   6.119   7.232 -0.3475  0.3505 -0.3890
   44CHL1   H7A 3194   2.394   6.024   7.289 -1.9681  0.4456  0.0298
   44CHL1   H7B 3195   2.466   6.179   7.281 -0.2129 -0.5038  0.4900
   44CHL1    C8 3196   2.246   6.185   7.258 -0.1620  0.5252  0.3444
   44CHL1    H8 3197   2.177   6.101   7.235  2.0119 -1.0153 -0.9512
   44CHL1   C14 3198   2.239   6.243   7.397 -0.0100 -0.2972 -0.2215
   44CHL1   H14 3199   2.318   6.321   7.403  0.1318 -0.2445 -2.1352
   44CHL1   C15 3200   2.288   6.154   7.520 -0.0888  0.0560  0.5793
   44CHL1  H15A 3201   2.246   6.052   7.527  1.2108 -0.6023 -0.7236
   44CHL1  H15B 3202   2.398   6.141   7.515 -0.1287 -1.6241  2.6660
   44CHL1   C16 3203   2.252   6.244   7.641  1.2085 -0.3846  0.6408
   44CHL1  H16A 3204   2.195   6.185   7.716 -0.8749  1.2657  0.4522
   44CHL1  H16B 3205   2.345   6.286   7.686  0.5332 -0.4225  2.1024
   44CHL1   C17 3206   2.158   6.368   7.583  0.8246 -0.2058  0.9542
   44CHL1   H17 3207   2.221   6.457   7.562 -0.7206  0.0691 -3.5851
   44CHL1   C13 3208   2.113   6.316   7.447 -0.4235 -0.2552  0.0910
   44CHL1   C18 3209   1.994   6.230   7.462 -0.6025  0.2395  0.2960
   44CHL1  H18A 3210   2.009   6.160   7.548 -1.0324 -1.7793 -1.1907
   44CHL1  H18B 3211   1.893   6.274   7.466 -0.1731  1.2295  0.4713
   44CHL1  H18C 3212   1.996   6.161   7.375  1.3008  0.3740  0.1925
   44CHL1   C12 3213   2.071   6.418   7.338  0.4186 -0.1312 -0.1156
   44CHL1  H12A 3214   1.962   6.433   7.356  0.3068  0.9101 -1.5148
   44CHL1  H12B 3215   2.146   6.499   7.346  1.3206 -0.9089 -0.5294
   44CHL1   C11 3216   2.083   6.370   7.189  0.9352 -0.2529 -0.1989
   44CHL1  H11A 3217   1.999   6.297   7.182 -0.5026  1.0093  2.3618
   44CHL1  H11B 3218   2.061   6.456   7.123 -1.6365  0.3185  1.2634
   44CHL1    C9 3219   2.215   6.293   7.156 -0.8316 -0.5543 -0.0463
   44CHL1    H9 3220   2.286   6.379   7.159  0.5315 -1.6432 -0.0658
   44CHL1   C10 3221   2.228   6.240   7.015 -0.3036 -0.0378 -0.8203
   44CHL1   C19 3222   2.092   6.177   6.967  0.3399  0.4344  0.0751
   44CHL1  H19A 3223   2.098   6.124   6.869 -0.0625  2.1404 -0.9002
   44CHL1  H19B 3224   2.055   6.101   7.040  0.7797 -0.4995 -0.6453
   44CHL1  H19C 3225   2.018   6.259   6.958 -1.4916 -1.1803 -0.2426
   44CHL1    C1 3226   2.235   6.367   6.921 -0.1825 -0.7887  0.3199
   44CHL1   H1A 3227   2.139   6.424   6.920  0.6505  0.6364 -0.9631
   44CHL1   H1B 3228   2.322   6.432   6.944 -0.8089 -0.5662  2.2375
   44CHL1    C2 3229   2.258   6.341   6.772 -0.4882  0.9208 -0.0038
   44CHL1   H2A 3230   2.274   6.439   6.724  0.5817  1.1500  0.7980
   44CHL1   H2B 3231   2.174   6.288   6.722  0.4333  1.2721 -2.0204
   44CHL1   C20 3232   2.049   6.424   7.676  0.4212  0.3820  0.4349
   44CHL1   H20 3233   1.967   6.351   7.689  0.8214 -0.6039 -1.9884
   44CHL1   C21 3234   1.988   6.549   7.624 -0.0836 -0.0976  1.2746
   44CHL1  H21A 3235   1.909   6.580   7.695  0.3920  1.7877  1.0384
   44CHL1  H21B 3236   1.935   6.535   7.527  3.4279 -1.2222 -0.6717
   44CHL1  H21C 3237   2.064   6.628   7.611 -2.3051  1.7540 -2.0318
   44CHL1   C22 3238   2.114   6.459   7.815 -0.6761  0.3980 -0.1465
   44CHL1  H22A 3239   2.186   6.380   7.848 -0.9994 -0.4430 -1.3816
   44CHL1  H22B 3240   2.166   6.557   7.811  2.9402 -1.0129  4.1529
   44CHL1   C23 3241   2.007   6.470   7.933  0.2661  0.0937  0.6370
   44CHL1  H23A 3242   1.934   6.553   7.932 -0.3732 -0.4467 -0.7732
   44CHL1  H23B 3243   1.936   6.385   7.922 -0.6013  1.0634 -2.1117
   44CHL1   C24 3244   2.090   6.473   8.061  0.4701 -0.4426  0.1025
   44CHL1  H24A 3245   2.188   6.420   8.060  0.2887 -0.8072  0.6423
   44CHL1  H24B 3246   2.116   6.579   8.076 -3.3106  0.4345  1.5898
   44CHL1   C25 3247   2.033   6.410   8.197  0.0266 -0.5325  0.3750
   44CHL1   H25 3248   2.011   6.303   8.179  0.5261 -0.4194 -1.0534
   44CHL1   C26 3249   2.120   6.414   8.314 -0.0917 -0.1588 -0.1951
   44CHL1  H26A 3250   2.203   6.346   8.289  0.9943  1.8464 -2.5283
   44CHL1  H26B 3251   2.156   6.519   8.322  0.1015 -0.1767 -0.7411
   44CHL1  H26C 3252   2.075   6.373   8.407 -2.1117 -1.6122 -1.7216
   44CHL1   C27 3253   1.892   6.462   8.243 -0.0553 -0.1658 -0.0869
   44CHL1  H27A 3254   1.903   6.571   8.261  1.0175 -0.3329  0.3253
   44CHL1  H27B 3255   1.814   6.442   8.166  0.9392  1.2503 -1.5404
   44CHL1  H27C 3256   1.855   6.412   8.335  0.8884 -0.6779  0.0249
   45CHL1    C3 3257   3.558   4.974   6.929  0.2970  0.2235  0.0636
   45CHL1    H3 3258   3.628   4.907   6.984 -0.7212 -0.6815  0.2840
   45CHL1    O3 3259   3.582   4.971   6.789 -0.5087 -0.2664  0.3482
   45CHL1   H3' 3260   3.503   5.001   6.743  1.6168  1.5114 -2.5246
   45CHL1    C4 3261   3.413   4.948   6.955  0.1516 -0.4080  0.4311
   45CHL1   H4A 3262   3.347   5.019   6.902  0.3215 -1.4285 -1.2276
   45CHL1   H4B 3263   3.383   4.850   6.912  0.3258 -0.2637 -0.0171
   45CHL1    C5 3264   3.379   4.958   7.099 -0.2834  0.0821  0.4236
   45CHL1    C6 3265   3.336   4.854   7.164 -0.4193 -1.4496  0.6639
   45CHL1    H6 3266   3.319   4.757   7.114  0.2922 -1.7309  0.9523
   45CHL1    C7 3267   3.309   4.864   7.310 -0.3432 -0.1142  0.2555
   45CHL1   H7A 3268   3.216   4.805   7.326 -0.2736 -0.2767  0.0705
   45CHL1   H7B 3269   3.392   4.811   7.362 -0.4293 -1.9691 -1.3536
   45CHL1    C8 3270   3.294   5.011   7.373  0.3498  0.6959 -0.2030
   45CHL1    H8 3271   3.199   5.056   7.337 -0.5969 -1.6599 -0.8205
   45CHL1   C14 3272   3.314   5.003   7.524  0.7388  0.1998  0.7604
   45CHL1   H14 3273   3.418   4.971   7.544  1.3899  1.6439 -0.1345
   45CHL1   C15 3274   3.214   4.910   7.590  0.0879 -0.6931  0.4351
   45CHL1  H15A 3275   3.108   4.925   7.562 -0.2746  0.1028  2.0946
   45CHL1  H15B 3276   3.231   4.801   7.578  0.5116 -0.5265 -0.5626
   45CHL1   C16 3277   3.227   4.956   7.738  0.0277  0.2554 -0.6930
   45CHL1  H16A 3278   3.122   4.957   7.774 -0.4006 -1.7477 -1.7301
   45CHL1  H16B 3279   3.283   4.877   7.793 -0.3252 -0.1404 -0.8930
   45CHL1   C17 3280   3.302   5.096   7.740  0.4868  0.5222 -0.5865
   45CHL1   H17 3281   3.408   5.077   7.768 -0.3616  0.1406  2.8750
   45CHL1   C13 3282   3.304   5.136   7.597 -0.2025  0.7309  0.1424
   45CHL1   C18 3283   3.161   5.205   7.563  0.6159  0.1482  0.0936
   45CHL1  H18A 3284   3.162   5.310   7.602 -2.5903  0.4110 -0.3073
   45CHL1  H18B 3285   3.136   5.200   7.455  1.6297 -3.3746 -0.1041
   45CHL1  H18C 3286   3.084   5.141   7.610 -2.5420  0.1423 -4.4472
   45CHL1   C12 3287   3.422   5.222   7.537  0.2504  0.0965 -0.2392
   45CHL1  H12A 3288   3.404   5.328   7.566 -0.2385  0.4702 -1.7852
   45CHL1  H12B 3289   3.519   5.191   7.582 -0.1601  0.8737  1.2632
   45CHL1   C11 3290   3.407   5.236   7.385  0.9060  0.5172 -0.0275
   45CHL1  H11A 3291   3.314   5.295   7.366  1.2584  0.8695 -0.6849
   45CHL1  H11B 3292   3.487   5.298   7.339  0.5212  0.1611 -1.1826
   45CHL1    C9 3293   3.402   5.098   7.315 -0.0776  0.3302 -0.1154
   45CHL1    H9 3294   3.495   5.047   7.348 -0.8683 -0.5702  0.7966
   45CHL1   C10 3295   3.414   5.094   7.160 -0.0416  0.2963  0.5146
   45CHL1   C19 3296   3.326   5.206   7.117  0.0605 -0.4591  0.0506
   45CHL1  H19A 3297   3.239   5.197   7.186 -0.1745  2.2855  0.2445
   45CHL1  H19B 3298   3.369   5.306   7.140  1.7738 -1.3851  1.0855
   45CHL1  H19C 3299   3.292   5.207   7.011  1.9286  2.4169 -0.6420
   45CHL1    C1 3300   3.567   5.132   7.113  1.1471 -0.3233 -0.4522
   45CHL1   H1A 3301   3.584   5.239   7.137  0.3782 -0.0426 -1.1263
   45CHL1   H1B 3302   3.639   5.069   7.170  1.4618  0.6873  0.2925
   45CHL1    C2 3303   3.598   5.118   6.971 -0.3509 -0.4753  0.6023
   45CHL1   H2A 3304   3.704   5.137   6.944 -0.6480  0.1119 -0.1738
   45CHL1   H2B 3305   3.539   5.189   6.910  0.5132 -0.6191 -0.4420
   45CHL1   C20 3306   3.264   5.202   7.847  0.0650 -0.4134 -0.8473
   45CHL1   H20 3307   3.162   5.237   7.818  0.1456 -1.5615 -2.7599
   45CHL1   C21 3308   3.361   5.322   7.843 -0.8032  0.6735 -0.6384
   45CHL1  H21A 3309   3.344   5.388   7.755 -0.8311  2.0820  0.3900
   45CHL1  H21B 3310   3.469   5.302   7.858 -0.9419  0.5593  0.2822
   45CHL1  H21C 3311   3.327   5.385   7.928 -1.3316  0.1736 -0.4728
   45CHL1   C22 3312   3.253   5.140   7.991  0.2378  0.4912  0.1588
   45CHL1  H22A 3313   3.204   5.040   7.982  1.8561 -0.3887  0.6322
   45CHL1  H22B 3314   3.356   5.115   8.024  1.0433  2.8226 -0.4308
   45CHL1   C23 3315   3.197   5.241   8.103  0.3769  0.0175 -0.1270
   45CHL1  H23A 3316   3.270   5.324   8.115  0.5609 -0.1565 -0.0474
   45CHL1  H23B 3317   3.105   5.292   8.067 -1.1421 -1.9468  0.8317
   45CHL1   C24 3318   3.175   5.177   8.237  0.9562 -0.7627 -0.2375
   45CHL1  H24A 3319   3.101   5.094   8.237  0.6075 -0.4567 -0.1565
   45CHL1  H24B 3320   3.277   5.139   8.257  1.0087 -2.2218 -2.8290
   45CHL1   C25 3321   3.123   5.273   8.345  0.8081  0.5642 -0.0505
   45CHL1   H25 3322   3.026   5.316   8.311  0.7128  0.6289  0.2904
   45CHL1   C26 3323   3.103   5.188   8.478  0.2353 -0.0940  0.2405
   45CHL1  H26A 3324   3.007   5.131   8.468  0.1986  0.1411 -0.8799
   45CHL1  H26B 3325   3.192   5.121   8.480  0.5268  0.2509 -0.7705
   45CHL1  H26C 3326   3.102   5.266   8.557 -0.5588  1.2793 -1.0617
   45CHL1   C27 3327   3.231   5.389   8.372  0.0851  0.5801 -0.0703
   45CHL1  H27A 3328   3.267   5.439   8.279  0.3771  1.7335  0.6465
   45CHL1  H27B 3329   3.191   5.472   8.433  0.8765  2.2924 -1.7729
   45CHL1  H27C 3330   3.325   5.345   8.411  1.7614  0.7856 -3.4666
   46CHL1    C3 3331   3.437   5.715   7.157 -0.2975  0.0936  0.0248
   46CHL1    H3 3332   3.352   5.780   7.186 -2.0357 -2.2188  0.3886
   46CHL1    O3 3333   3.433   5.687   7.020  0.9114  0.0079  0.3679
   46CHL1   H3' 3334   3.502   5.620   7.012  0.0059 -1.0908  1.4547
   46CHL1    C4 3335   3.568   5.786   7.196 -0.7578 -0.1144 -0.3656
   46CHL1   H4A 3336   3.643   5.707   7.176 -0.5182 -0.5528  1.9769
   46CHL1   H4B 3337   3.582   5.874   7.129 -0.7734  0.6906  0.6536
   46CHL1    C5 3338   3.565   5.811   7.345  0.4233  0.3537  0.0973
   46CHL1    C6 3339   3.581   5.945   7.384  0.6360  0.2917  0.3143
   46CHL1    H6 3340   3.595   6.025   7.311 -2.0747 -0.8434 -1.6062
   46CHL1    C7 3341   3.584   5.976   7.535  0.1125 -0.1722 -0.2782
   46CHL1   H7A 3342   3.664   6.053   7.548 -0.4408  0.2492  0.6948
   46CHL1   H7B 3343   3.499   6.034   7.576  1.6728  1.1635  1.2785
   46CHL1    C8 3344   3.599   5.853   7.632  0.2808  0.0894  1.3372
   46CHL1    H8 3345   3.709   5.841   7.622  0.0836 -0.1178 -1.1869
   46CHL1   C14 3346   3.563   5.885   7.773 -0.2080  0.1947 -0.7679
   46CHL1   H14 3347   3.453   5.897   7.787  0.0554 -0.8164  3.4767
   46CHL1   C15 3348   3.634   6.006   7.838 -0.2633 -0.1351  0.0232
   46CHL1  H15A 3349   3.735   6.024   7.796  1.2701  1.8226  4.0249
   46CHL1  H15B 3350   3.571   6.097   7.825  1.2665  0.9808  0.0818
   46CHL1   C16 3351   3.637   5.972   7.986 -0.1370  0.4624  0.2693
   46CHL1  H16A 3352   3.742   5.981   8.022  1.3424  0.1414 -3.5662
   46CHL1  H16B 3353   3.570   6.037   8.046  0.1528 -1.2366  2.5861
   46CHL1   C17 3354   3.573   5.831   8.001  0.1603 -0.4456 -0.8772
   46CHL1   H17 3355   3.462   5.842   8.006  0.2489  0.0192  0.3481
   46CHL1   C13 3356   3.591   5.765   7.865 -0.2561 -0.1138  0.8232
   46CHL1   C18 3357   3.742   5.731   7.858 -0.2192 -0.3518 -0.3305
   46CHL1  H18A 3358   3.764   5.639   7.917 -3.8014  0.6626  3.0438
   46CHL1  H18B 3359   3.772   5.718   7.752 -0.2887  1.9662 -0.6822
   46CHL1  H18C 3360   3.815   5.811   7.886  0.8929 -1.0313 -1.1855
   46CHL1   C12 3361   3.503   5.639   7.827  0.4263  0.6930  0.4279
   46CHL1  H12A 3362   3.516   5.558   7.902 -1.7039  0.6070  0.7753
   46CHL1  H12B 3363   3.397   5.671   7.833  0.2242  1.0392 -3.0822
   46CHL1   C11 3364   3.524   5.607   7.688 -0.2527 -0.2517  0.6299
   46CHL1  H11A 3365   3.629   5.574   7.677 -0.7537 -1.2104 -2.0968
   46CHL1  H11B 3366   3.454   5.531   7.645 -0.0589 -0.0468 -0.0510
   46CHL1    C9 3367   3.516   5.730   7.587  0.3440  0.1875  0.3362
   46CHL1    H9 3368   3.411   5.765   7.589 -1.0950 -3.3698 -2.0530
   46CHL1   C10 3369   3.538   5.690   7.437 -0.1855  0.6077 -0.4074
   46CHL1   C19 3370   3.664   5.596   7.422  0.3478 -0.6364  0.5626
   46CHL1  H19A 3371   3.700   5.579   7.318 -1.3379  3.1543 -0.8329
   46CHL1  H19B 3372   3.752   5.642   7.472 -0.6253 -2.3973  4.2588
   46CHL1  H19C 3373   3.649   5.497   7.469 -0.9805 -2.0930 -2.6435
   46CHL1    C1 3374   3.421   5.612   7.382  0.9334 -0.3824  0.3211
   46CHL1   H1A 3375   3.409   5.516   7.435 -1.0803 -1.1365 -1.3330
   46CHL1   H1B 3376   3.333   5.677   7.403  0.8518  0.0017 -1.0879
   46CHL1    C2 3377   3.412   5.587   7.230 -0.3508 -0.4294 -0.2404
   46CHL1   H2A 3378   3.324   5.530   7.192 -0.8252  0.4801 -0.5181
   46CHL1   H2B 3379   3.494   5.519   7.199  1.2736  0.4447  1.8876
   46CHL1   C20 3380   3.613   5.761   8.135 -0.1865  0.2850 -0.0834
   46CHL1   H20 3381   3.702   5.696   8.126  1.0113  1.8251  0.1469
   46CHL1   C21 3382   3.493   5.673   8.173  0.1294  0.6407  0.1624
   46CHL1  H21A 3383   3.388   5.709   8.169 -1.0576 -2.5981 -2.0460
   46CHL1  H21B 3384   3.509   5.625   8.272 -0.8723 -2.1778 -0.9297
   46CHL1  H21C 3385   3.486   5.590   8.099  1.2741  0.7777 -0.1136
   46CHL1   C22 3386   3.655   5.853   8.254  0.6638  0.1992 -0.4758
   46CHL1  H22A 3387   3.616   5.957   8.240  0.5664  0.0175 -1.6930
   46CHL1  H22B 3388   3.599   5.826   8.346  0.5322  0.0392 -0.6028
   46CHL1   C23 3389   3.805   5.870   8.282 -0.1101  0.0375  0.1435
   46CHL1  H23A 3390   3.855   5.773   8.303 -1.4115 -1.2135 -2.1482
   46CHL1  H23B 3391   3.851   5.909   8.189 -2.4154  1.1449 -0.6131
   46CHL1   C24 3392   3.850   5.975   8.384 -1.5895 -0.5372 -0.4363
   46CHL1  H24A 3393   3.821   6.077   8.350  0.6138 -0.4473 -2.2704
   46CHL1  H24B 3394   3.787   5.960   8.474 -1.5988  0.2025 -0.3151
   46CHL1   C25 3395   3.996   5.964   8.435  0.1413  0.2210 -0.3561
   46CHL1   H25 3396   4.030   5.862   8.464 -0.2804  0.0795 -0.3589
   46CHL1   C26 3397   4.094   6.012   8.329 -0.1119 -0.5595 -0.0723
   46CHL1  H26A 3398   4.059   6.111   8.291  0.8137 -0.1207  0.1890
   46CHL1  H26B 3399   4.193   6.022   8.379  0.1834 -0.1309 -0.7292
   46CHL1  H26C 3400   4.104   5.936   8.249  1.7272  1.0421 -1.4712
   46CHL1   C27 3401   4.016   6.052   8.560  0.1833 -0.1241 -0.2452
   46CHL1  H27A 3402   3.998   6.156   8.526  0.3993 -0.4701 -1.4620
   46CHL1  H27B 3403   3.939   6.024   8.636  1.3725  1.9379  1.8471
   46CHL1  H27C 3404   4.117   6.039   8.605  1.0416 -2.0944 -2.5360
   47CHL1    C3 3405   2.768   6.612   6.769 -0.4129  0.1571 -0.5786
   47CHL1    H3 3406   2.818   6.711   6.768  1.2868 -0.6551 -1.9445
   47CHL1    O3 3407   2.759   6.564   6.641 -0.3662  0.0095 -0.7404
   47CHL1   H3' 3408   2.712   6.480   6.644  0.5799 -0.5188  1.6947
   47CHL1    C4 3409   2.850   6.508   6.836  0.3290 -0.0527 -0.1431
   47CHL1   H4A 3410   2.818   6.407   6.804 -0.3501  0.2442 -0.4149
   47CHL1   H4B 3411   2.953   6.527   6.798  1.2161  1.8156  2.8307
   47CHL1    C5 3412   2.847   6.516   6.992 -0.4233  0.5898 -0.1014
   47CHL1    C6 3413   2.961   6.516   7.065 -0.1054 -0.4146 -0.7042
   47CHL1    H6 3414   3.062   6.511   7.021  0.2927 -2.0100  0.2758
   47CHL1    C7 3415   2.962   6.501   7.214  0.5330  0.6034  0.0345
   47CHL1   H7A 3416   3.028   6.419   7.251 -0.6887 -1.4352 -1.9994
   47CHL1   H7B 3417   2.983   6.601   7.256 -1.7338  2.5284 -2.9689
   47CHL1    C8 3418   2.819   6.467   7.274  0.7470 -0.3923 -0.6900
   47CHL1    H8 3419   2.791   6.359   7.277  1.0712 -0.4738 -0.6257
   47CHL1   C14 3420   2.809   6.518   7.420 -0.8711 -0.7496  1.0244
   47CHL1   H14 3421   2.825   6.626   7.401 -2.4287 -0.7238 -0.3305
   47CHL1   C15 3422   2.928   6.474   7.511 -0.2440 -0.1867 -0.2172
   47CHL1  H15A 3423   2.928   6.365   7.488  0.7005  0.1179 -1.8244
   47CHL1  H15B 3424   3.022   6.530   7.493 -0.2387 -0.0110  0.3418
   47CHL1   C16 3425   2.881   6.511   7.646  0.3565 -0.3622  0.2279
   47CHL1  H16A 3426   2.884   6.418   7.706 -1.5665  0.0763  1.0723
   47CHL1  H16B 3427   2.938   6.596   7.689 -1.4701  0.7646  0.5596
   47CHL1   C17 3428   2.729   6.564   7.627 -0.4142 -0.1444 -0.3563
   47CHL1   H17 3429   2.727   6.674   7.614 -1.1401 -0.2866 -1.6067
   47CHL1   C13 3430   2.679   6.504   7.492  0.5108  0.3733 -0.8127
   47CHL1   C18 3431   2.637   6.355   7.519  0.6625  0.3077 -0.2225
   47CHL1  H18A 3432   2.711   6.312   7.589 -0.4544 -0.1127  0.7421
   47CHL1  H18B 3433   2.533   6.353   7.559  1.2357 -1.1717  1.2717
   47CHL1  H18C 3434   2.638   6.294   7.426  3.5010  0.5105 -0.3922
   47CHL1   C12 3435   2.566   6.575   7.412  0.6582 -0.1418  0.2118
   47CHL1  H12A 3436   2.464   6.553   7.449  1.1697  0.5743  2.1644
   47CHL1  H12B 3437   2.588   6.684   7.410  2.4106 -0.4407  1.2034
   47CHL1   C11 3438   2.569   6.517   7.264 -0.0588  0.9622 -0.6572
   47CHL1  H11A 3439   2.541   6.410   7.272  2.1229  0.4643  2.2090
   47CHL1  H11B 3440   2.498   6.575   7.201  1.1808  2.6883 -0.5626
   47CHL1    C9 3441   2.709   6.548   7.201  0.4178  0.4802 -0.2827
   47CHL1    H9 3442   2.717   6.658   7.205  0.8751  0.4148  2.4170
   47CHL1   C10 3443   2.706   6.528   7.047 -0.3108  0.7165  0.0492
   47CHL1   C19 3444   2.643   6.387   7.023  0.7424  0.4459  0.1664
   47CHL1  H19A 3445   2.539   6.396   7.061  0.3114  1.7234 -1.2582
   47CHL1  H19B 3446   2.649   6.352   6.918 -3.3485 -1.5444  0.3916
   47CHL1  H19C 3447   2.696   6.305   7.077  0.5892 -1.4304 -2.3513
   47CHL1    C1 3448   2.635   6.646   6.972 -0.4370  0.6364 -0.5090
   47CHL1   H1A 3449   2.536   6.651   7.021 -0.7770 -2.6495 -0.6351
   47CHL1   H1B 3450   2.689   6.740   6.996 -1.3396  1.0739 -0.1341
   47CHL1    C2 3451   2.629   6.625   6.824  0.6199  0.0981 -0.0897
   47CHL1   H2A 3452   2.584   6.718   6.784 -0.1400 -1.4228 -3.0008
   47CHL1   H2B 3453   2.572   6.536   6.790  1.0150 -0.3393  0.3619
   47CHL1   C20 3454   2.648   6.530   7.755  0.3678  0.1395  0.0722
   47CHL1   H20 3455   2.631   6.421   7.766  1.2592  0.1562  2.2771
   47CHL1   C21 3456   2.519   6.603   7.737  0.2812  0.8542  0.2642
   47CHL1  H21A 3457   2.539   6.709   7.712 -2.6198  0.8079 -3.0183
   47CHL1  H21B 3458   2.461   6.598   7.832  2.9828 -0.4069  1.9808
   47CHL1  H21C 3459   2.463   6.562   7.650  0.2362  2.3355 -0.4365
   47CHL1   C22 3460   2.721   6.563   7.892 -0.2562  0.0730  0.0014
   47CHL1  H22A 3461   2.791   6.479   7.906 -2.4246 -2.0865 -1.2870
   47CHL1  H22B 3462   2.781   6.655   7.874  0.1023  0.0375  0.9653
   47CHL1   C23 3463   2.632   6.558   8.017 -0.5505 -0.2343  0.2587
   47CHL1  H23A 3464   2.563   6.645   8.017 -1.4470 -0.9002  2.0624
   47CHL1  H23B 3465   2.570   6.468   7.998 -1.4645  0.2909  0.7223
   47CHL1   C24 3466   2.706   6.566   8.153  0.2204  0.5625  0.0825
   47CHL1  H24A 3467   2.790   6.493   8.146 -0.2408  0.1141 -0.9080
   47CHL1  H24B 3468   2.751   6.666   8.170  1.5380  0.3991 -2.0431
   47CHL1   C25 3469   2.619   6.525   8.278  0.2654  0.0982 -0.4565
   47CHL1   H25 3470   2.594   6.418   8.261 -1.9065 -0.0016  2.5755
   47CHL1   C26 3471   2.695   6.531   8.410 -0.0937  0.2987 -0.4781
   47CHL1  H26A 3472   2.639   6.487   8.495  1.3249 -2.3967 -0.8250
   47CHL1  H26B 3473   2.796   6.484   8.407 -0.2250 -0.1686  1.4580
   47CHL1  H26C 3474   2.708   6.640   8.427 -0.2858  0.7999 -3.1243
   47CHL1   C27 3475   2.489   6.616   8.285  0.0286 -0.3751 -0.4164
   47CHL1  H27A 3476   2.505   6.726   8.286 -3.2937  0.1997 -0.2464
   47CHL1  H27B 3477   2.412   6.594   8.208 -1.5783  1.4740  0.5991
   47CHL1  H27C 3478   2.436   6.589   8.379  0.1142 -2.6015 -0.9419
   48CHL1    C3 3479   5.969   1.179   6.565  0.5857  1.0168  0.4809
   48CHL1    H3 3480   6.003   1.277   6.604  1.0835  0.8019  0.5878
   48CHL1    O3 3481   5.975   1.171   6.421  0.2200  0.8967  0.5372
   48CHL1   H3' 3482   5.930   1.091   6.392 -0.7630  1.8406 -0.6502
   48CHL1    C4 3483   6.075   1.080   6.615 -0.1727 -0.9302  0.3900
   48CHL1   H4A 3484   6.058   0.984   6.562  3.6591 -0.9694 -1.0643
   48CHL1   H4B 3485   6.178   1.100   6.580 -0.8251 -0.5457 -1.3751
   48CHL1    C5 3486   6.077   1.065   6.766  0.4084  0.3639 -0.1131
   48CHL1    C6 3487   6.194   1.097   6.830 -0.3793 -0.0733 -0.0695
   48CHL1    H6 3488   6.286   1.112   6.772  0.0507 -2.6885 -0.1425
   48CHL1    C7 3489   6.211   1.098   6.977  0.4326  0.1021 -0.8077
   48CHL1   H7A 3490   6.296   1.035   7.013 -0.1481 -0.3768 -0.2474
   48CHL1   H7B 3491   6.238   1.203   7.003 -1.0475  0.0676  1.0260
   48CHL1    C8 3492   6.082   1.056   7.057  0.5909 -0.3169  0.3211
   48CHL1    H8 3493   6.087   0.946   7.073  1.1830 -0.2839  0.3831
   48CHL1   C14 3494   6.087   1.115   7.197 -0.1146  0.5944 -0.0828
   48CHL1   H14 3495   6.072   1.224   7.179 -0.2846  0.5511 -0.2040
   48CHL1   C15 3496   6.219   1.117   7.283 -0.7404 -0.6749  0.3874
   48CHL1  H15A 3497   6.274   1.021   7.272 -2.2279 -1.4177 -0.9014
   48CHL1  H15B 3498   6.273   1.209   7.249 -3.8370  0.4688 -1.8740
   48CHL1   C16 3499   6.174   1.126   7.427  0.3250 -0.2026  0.4403
   48CHL1  H16A 3500   6.188   1.028   7.477  1.9954  0.8813  2.2302
   48CHL1  H16B 3501   6.208   1.209   7.492 -0.4465  0.7690 -0.3572
   48CHL1   C17 3502   6.018   1.140   7.417  0.1164  0.9394 -0.4665
   48CHL1   H17 3503   5.995   1.248   7.404  0.0130  1.3737  2.5123
   48CHL1   C13 3504   5.973   1.064   7.291 -0.4827 -0.3303 -0.4199
   48CHL1   C18 3505   5.985   0.911   7.322 -0.3301 -0.1680  0.0064
   48CHL1  H18A 3506   5.902   0.885   7.392 -0.3230  1.6963  0.7509
   48CHL1  H18B 3507   5.981   0.864   7.221  1.5405 -0.8787  0.2229
   48CHL1  H18C 3508   6.086   0.882   7.358  0.8183  0.8107 -2.2396
   48CHL1   C12 3509   5.837   1.101   7.231 -0.3537 -0.3794 -0.6246
   48CHL1  H12A 3510   5.754   1.047   7.281 -2.3894  2.2144 -1.0023
   48CHL1  H12B 3511   5.817   1.210   7.231 -1.3930 -0.5561  0.2265
   48CHL1   C11 3512   5.829   1.053   7.082  0.5204 -0.6544 -0.2963
   48CHL1  H11A 3513   5.824   0.942   7.081  2.1136 -0.7455 -1.6507
   48CHL1  H11B 3514   5.732   1.092   7.042 -0.2280 -0.9394  1.1861
   48CHL1    C9 3515   5.950   1.098   6.990 -0.2708 -0.2667  0.4339
   48CHL1    H9 3516   5.940   1.208   6.977 -0.3320 -0.2761  0.4003
   48CHL1   C10 3517   5.943   1.049   6.842  0.8365 -0.0017  0.2943
   48CHL1   C19 3518   5.905   0.892   6.835 -0.2417  0.3570  0.4598
   48CHL1  H19A 3519   5.976   0.827   6.890 -1.3443 -0.0614  1.4426
   48CHL1  H19B 3520   5.808   0.881   6.888  0.0363 -1.5956  0.6394
   48CHL1  H19C 3521   5.910   0.852   6.732  2.4562  0.1295  0.5982
   48CHL1    C1 3522   5.825   1.137   6.768 -0.0945 -0.3166 -0.3411
   48CHL1   H1A 3523   5.725   1.108   6.808 -0.9086  1.1631 -1.2460
   48CHL1   H1B 3524   5.849   1.243   6.792 -2.5991  0.3804 -0.6417
   48CHL1    C2 3525   5.833   1.134   6.615  0.4098 -0.1350  0.4492
   48CHL1   H2A 3526   5.749   1.192   6.570  0.2715 -0.2910  0.5058
   48CHL1   H2B 3527   5.818   1.033   6.573 -0.6909  0.7908 -1.5394
   48CHL1   C20 3528   5.931   1.108   7.543  1.0557  0.2928  0.0738
   48CHL1   H20 3529   5.830   1.075   7.514  0.8735  0.5217  0.4393
   48CHL1   C21 3530   5.884   1.239   7.613 -0.3994 -1.0094  0.9315
   48CHL1  H21A 3531   5.818   1.211   7.699 -0.9750  0.0795  0.8629
   48CHL1  H21B 3532   5.822   1.297   7.542  0.0529 -0.5590  0.9042
   48CHL1  H21C 3533   5.967   1.305   7.644 -3.3647  1.9293  3.3330
   48CHL1   C22 3534   5.988   1.002   7.643 -0.4210  0.4780 -0.2978
   48CHL1  H22A 3535   5.902   0.951   7.693 -2.1379  2.2593 -1.3210
   48CHL1  H22B 3536   6.045   0.923   7.590 -0.5392  1.7117 -2.3711
   48CHL1   C23 3537   6.079   1.046   7.755 -0.5266 -0.2513  0.2806
   48CHL1  H23A 3538   6.171   1.092   7.713 -1.1468  1.4438  0.6667
   48CHL1  H23B 3539   6.036   1.134   7.807  1.3561 -0.6108  2.6507
   48CHL1   C24 3540   6.128   0.934   7.841  0.5979  0.4996 -0.4200
   48CHL1  H24A 3541   6.043   0.899   7.904  0.2397  1.9865 -0.0559
   48CHL1  H24B 3542   6.158   0.845   7.781  0.3585 -1.2073  1.8297
   48CHL1   C25 3543   6.245   0.963   7.932 -0.5307  0.5391 -0.0687
   48CHL1   H25 3544   6.230   1.061   7.981 -0.2740  0.7183 -0.3460
   48CHL1   C26 3545   6.256   0.855   8.040  0.1974 -0.5017  0.6492
   48CHL1  H26A 3546   6.154   0.849   8.084 -0.8991  0.3520 -1.6473
   48CHL1  H26B 3547   6.297   0.757   8.007  0.2185 -0.5561  0.8365
   48CHL1  H26C 3548   6.330   0.896   8.112  2.0124 -0.4449 -1.1619
   48CHL1   C27 3549   6.384   0.965   7.863  0.1277 -0.8017  0.5734
   48CHL1  H27A 3550   6.412   0.862   7.831  1.7250 -0.0104 -0.7525
   48CHL1  H27B 3551   6.382   1.021   7.767  2.0128 -2.6759 -0.6721
   48CHL1  H27C 3552   6.455   1.007   7.937  0.1528  1.6717 -0.7501
   49CHL1    C3 3553   6.317   2.536   6.868 -0.4981  0.0443 -0.2427
   49CHL1    H3 3554   6.378   2.470   6.934  0.0639  1.2716  0.5029
   49CHL1    O3 3555   6.277   2.479   6.754 -0.0025  0.0318 -0.3042
   49CHL1   H3' 3556   6.230   2.548   6.707  3.2083  2.1955 -0.6911
   49CHL1    C4 3557   6.193   2.590   6.934  0.0685  0.0132 -0.6867
   49CHL1   H4A 3558   6.147   2.665   6.866 -0.7611  2.3608  2.2191
   49CHL1   H4B 3559   6.127   2.502   6.949 -2.1366  1.5870 -0.6837
   49CHL1    C5 3560   6.205   2.670   7.057  0.6464  0.4829 -0.2001
   49CHL1    C6 3561   6.141   2.630   7.174  0.0559  0.2876  0.0616
   49CHL1    H6 3562   6.064   2.552   7.180 -0.2803  0.6658  0.7840
   49CHL1    C7 3563   6.141   2.711   7.304  0.1648  0.1555  0.2887
   49CHL1   H7A 3564   6.039   2.734   7.340  0.0887 -0.0871  0.2262
   49CHL1   H7B 3565   6.188   2.644   7.379 -1.5657  0.3134  1.5702
   49CHL1    C8 3566   6.225   2.840   7.295 -0.0574 -0.2915 -0.4980
   49CHL1    H8 3567   6.156   2.918   7.256 -0.9200  0.2425  1.9444
   49CHL1   C14 3568   6.266   2.899   7.434 -0.1310  0.0224  0.3171
   49CHL1   H14 3569   6.346   2.830   7.468  0.8273  1.1283  0.3628
   49CHL1   C15 3570   6.162   2.912   7.541 -0.2687  0.0788  0.0700
   49CHL1  H15A 3571   6.074   2.961   7.495 -0.6645 -1.0446 -0.4066
   49CHL1  H15B 3572   6.130   2.814   7.582  1.1179  0.7116  2.9830
   49CHL1   C16 3573   6.226   3.010   7.638  0.4815 -0.4082 -0.1840
   49CHL1  H16A 3574   6.161   3.100   7.647 -0.1717 -1.0076  1.4390
   49CHL1  H16B 3575   6.245   2.954   7.732  1.8238  0.3906  0.0547
   49CHL1   C17 3576   6.363   3.057   7.573  0.3372 -0.0657  0.5200
   49CHL1   H17 3577   6.442   2.983   7.599 -0.4963 -1.5623 -1.0344
   49CHL1   C13 3578   6.337   3.037   7.419  0.0224  0.0113 -0.4585
   49CHL1   C18 3579   6.244   3.149   7.374  0.2738  0.4040 -0.1605
   49CHL1  H18A 3580   6.153   3.165   7.437  0.7301  0.2289  0.5568
   49CHL1  H18B 3581   6.288   3.251   7.366 -0.0529  0.5176 -0.5349
   49CHL1  H18C 3582   6.211   3.124   7.271  2.5021  1.8334 -1.2973
   49CHL1   C12 3583   6.466   3.024   7.335  0.4006  0.4809 -0.2763
   49CHL1  H12A 3584   6.518   3.121   7.317  3.0710 -0.6915  0.7478
   49CHL1  H12B 3585   6.529   2.959   7.398 -1.0328 -0.0978  0.5943
   49CHL1   C11 3586   6.441   2.962   7.203  1.1397  0.6205  0.3781
   49CHL1  H11A 3587   6.387   3.039   7.144  3.6473  1.6023 -0.7851
   49CHL1  H11B 3588   6.537   2.939   7.153  0.2826 -1.4641 -0.3940
   49CHL1    C9 3589   6.350   2.827   7.205 -0.2318 -0.0817 -1.1047
   49CHL1    H9 3590   6.417   2.752   7.252 -0.8690  1.4406  2.4928
   49CHL1   C10 3591   6.311   2.778   7.055 -0.5239  0.1359 -0.1377
   49CHL1   C19 3592   6.254   2.895   6.981 -0.4882 -0.0892  1.0759
   49CHL1  H19A 3593   6.339   2.964   6.963 -0.0690 -0.6428  0.9044
   49CHL1  H19B 3594   6.218   2.865   6.880  0.1723  2.9104 -0.1611
   49CHL1  H19C 3595   6.168   2.948   7.028 -0.4626  0.8927  0.0717
   49CHL1    C1 3596   6.443   2.723   6.979  0.6551  0.0207 -0.0977
   49CHL1   H1A 3597   6.509   2.811   6.969 -1.6405  1.9268  0.6329
   49CHL1   H1B 3598   6.493   2.661   7.057 -1.0845 -1.1585  0.1480
   49CHL1    C2 3599   6.418   2.646   6.846 -0.1108 -0.3405  0.7180
   49CHL1   H2A 3600   6.507   2.615   6.788 -0.7915 -0.1332 -0.4727
   49CHL1   H2B 3601   6.381   2.726   6.779 -1.3335 -0.7271  0.9066
   49CHL1   C20 3602   6.409   3.198   7.632  0.8702  0.2466  0.7342
   49CHL1   H20 3603   6.321   3.262   7.610  0.4216 -1.0033 -1.4435
   49CHL1   C21 3604   6.536   3.252   7.567  0.1560  0.1082 -0.1444
   49CHL1  H21A 3605   6.615   3.174   7.562 -1.4348 -1.6781  0.9855
   49CHL1  H21B 3606   6.567   3.343   7.622 -0.0925 -0.6008  1.2006
   49CHL1  H21C 3607   6.506   3.290   7.467 -0.1719 -0.3641 -0.2302
   49CHL1   C22 3608   6.424   3.199   7.788 -0.3232 -0.2516  0.1209
   49CHL1  H22A 3609   6.466   3.301   7.805  0.5775  0.2086 -3.9226
   49CHL1  H22B 3610   6.322   3.199   7.833  0.3450  2.4598  1.9172
   49CHL1   C23 3611   6.514   3.090   7.841  0.8325  0.5512  0.4496
   49CHL1  H23A 3612   6.470   2.988   7.842 -1.8238  1.5673  3.3354
   49CHL1  H23B 3613   6.612   3.079   7.788  0.8382 -2.5507  0.9205
   49CHL1   C24 3614   6.532   3.111   7.995 -0.7159  0.2166  0.3781
   49CHL1  H24A 3615   6.619   3.050   8.028 -0.1423  2.4603  3.4428
   49CHL1  H24B 3616   6.573   3.214   8.007 -1.1111  0.2608  1.4380
   49CHL1   C25 3617   6.407   3.091   8.077 -0.0248 -0.4206  0.5285
   49CHL1   H25 3618   6.336   3.174   8.054 -0.1544 -0.8786 -0.8601
   49CHL1   C26 3619   6.336   2.959   8.051  0.0641 -0.2491 -0.3528
   49CHL1  H26A 3620   6.261   2.938   8.130  0.9060 -1.0267  0.2764
   49CHL1  H26B 3621   6.284   2.970   7.954 -1.5594  1.1488  0.6392
   49CHL1  H26C 3622   6.418   2.884   8.049  1.1087  0.8797 -1.2099
   49CHL1   C27 3623   6.441   3.102   8.227 -0.4412 -0.7213 -0.1531
   49CHL1  H27A 3624   6.500   3.017   8.267 -0.1417 -0.8535 -0.8555
   49CHL1  H27B 3625   6.501   3.192   8.255 -1.1691  0.1467 -1.2836
   49CHL1  H27C 3626   6.351   3.109   8.292 -0.3385  1.3186 -0.1515
   50CHL1    C3 3627   1.532   4.049   6.876  0.4978  0.0041 -0.1273
   50CHL1    H3 3628   1.614   4.119   6.905  1.9109 -1.2533 -0.9283
   50CHL1    O3 3629   1.502   4.067   6.736  0.9232  0.3062  0.4244
   50CHL1   H3' 3630   1.544   3.999   6.683 -2.0876 -1.2615 -0.1970
   50CHL1    C4 3631   1.583   3.904   6.895  0.4880  0.4092  0.1660
   50CHL1   H4A 3632   1.519   3.836   6.834  2.2417  0.9724 -2.4880
   50CHL1   H4B 3633   1.681   3.896   6.843 -0.8934 -1.0442 -2.4271
   50CHL1    C5 3634   1.594   3.869   7.041 -0.0022  0.1975 -0.4952
   50CHL1    C6 3635   1.712   3.817   7.097 -0.5090  0.3344 -0.6506
   50CHL1    H6 3636   1.795   3.799   7.027  0.7734  0.6885  0.7198
   50CHL1    C7 3637   1.733   3.778   7.248  0.6083  0.3026  0.4529
   50CHL1   H7A 3638   1.772   3.675   7.253 -2.0018 -0.7196  2.0968
   50CHL1   H7B 3639   1.801   3.854   7.292 -0.2239  0.7379  1.0105
   50CHL1    C8 3640   1.590   3.787   7.318  0.1699 -0.0989 -0.2407
   50CHL1    H8 3641   1.553   3.688   7.283 -0.4328 -0.0415  0.2208
   50CHL1   C14 3642   1.603   3.764   7.465 -0.2935 -0.6004  0.8819
   50CHL1   H14 3643   1.653   3.859   7.494 -1.4792  0.8067 -1.3950
   50CHL1   C15 3644   1.703   3.662   7.506 -0.4359 -0.7091 -0.4938
   50CHL1  H15A 3645   1.681   3.567   7.452 -2.3394 -0.4089 -0.3296
   50CHL1  H15B 3646   1.811   3.685   7.494 -0.1613 -0.0707  2.4696
   50CHL1   C16 3647   1.675   3.642   7.651  0.1635 -0.3224  0.4327
   50CHL1  H16A 3648   1.655   3.533   7.649  0.5031 -0.4076  1.2418
   50CHL1  H16B 3649   1.759   3.651   7.723  1.0811 -2.9941 -0.2104
   50CHL1   C17 3650   1.538   3.718   7.684 -0.7250  0.4458  0.6225
   50CHL1   H17 3651   1.565   3.811   7.739  1.7190 -0.7437  1.6086
   50CHL1   C13 3652   1.478   3.749   7.544 -0.1949  0.0293  0.3852
   50CHL1   C18 3653   1.384   3.636   7.494  0.1237  0.1373  0.4698
   50CHL1  H18A 3654   1.362   3.653   7.386  1.8478  0.5378  0.1478
   50CHL1  H18B 3655   1.431   3.536   7.507 -1.1584 -0.4676  0.5977
   50CHL1  H18C 3656   1.287   3.639   7.547  0.7788  1.3436  1.6484
   50CHL1   C12 3657   1.394   3.881   7.531  0.3129 -0.1785 -0.1065
   50CHL1  H12A 3658   1.293   3.875   7.576  0.3884  0.2520  0.1272
   50CHL1  H12B 3659   1.450   3.964   7.581 -0.7335  0.4027  0.1262
   50CHL1   C11 3660   1.372   3.911   7.382  0.1496  0.4930  0.4006
   50CHL1  H11A 3661   1.295   3.835   7.357  1.4387 -0.6194 -0.3453
   50CHL1  H11B 3662   1.335   4.015   7.389 -2.8829 -0.5240  1.0366
   50CHL1    C9 3663   1.501   3.901   7.286  0.1391  0.6053  0.0445
   50CHL1    H9 3664   1.558   3.994   7.304  1.1608 -0.4945  3.0493
   50CHL1   C10 3665   1.475   3.906   7.130  0.2012 -0.2948  0.1653
   50CHL1   C19 3666   1.359   3.810   7.099  0.0612 -0.3972  0.3105
   50CHL1  H19A 3667   1.338   3.817   6.990 -0.2222 -0.4429  0.3613
   50CHL1  H19B 3668   1.379   3.704   7.126  2.1301 -0.1669 -0.1611
   50CHL1  H19C 3669   1.261   3.840   7.143 -0.3734 -0.0625 -0.8468
   50CHL1    C1 3670   1.423   4.049   7.100  0.3557  0.1653  0.0331
   50CHL1   H1A 3671   1.342   4.067   7.174  0.6747 -0.7404  0.6282
   50CHL1   H1B 3672   1.501   4.123   7.131  0.9591 -1.4708  2.8250
   50CHL1    C2 3673   1.402   4.074   6.950 -0.4105  0.3123 -0.0779
   50CHL1   H2A 3674   1.365   4.176   6.929  1.5613  0.9918 -0.4611
   50CHL1   H2B 3675   1.331   4.009   6.894  0.3792  0.0390 -0.7878
   50CHL1   C20 3676   1.456   3.650   7.789 -0.1761 -0.4776 -0.0589
   50CHL1   H20 3677   1.411   3.554   7.755 -1.6020 -0.2415  1.0214
   50CHL1   C21 3678   1.339   3.733   7.837  0.1727 -0.7675 -0.2307
   50CHL1  H21A 3679   1.378   3.826   7.884 -0.2020 -0.4681 -0.4999
   50CHL1  H21B 3680   1.277   3.668   7.902  0.0106 -1.9241 -1.4882
   50CHL1  H21C 3681   1.281   3.761   7.746 -0.5819  2.2369  1.0522
   50CHL1   C22 3682   1.544   3.616   7.913  0.2724  0.1938 -0.3911
   50CHL1  H22A 3683   1.626   3.549   7.880  1.3146  0.3201  1.8105
   50CHL1  H22B 3684   1.587   3.706   7.963 -1.9680  0.8438  0.5014
   50CHL1   C23 3685   1.477   3.533   8.021  0.2214  0.0693  0.0517
   50CHL1  H23A 3686   1.425   3.599   8.094  2.5943 -0.8152  2.7390
   50CHL1  H23B 3687   1.400   3.461   7.984  0.2580  0.1842 -0.2504
   50CHL1   C24 3688   1.576   3.456   8.107  0.2553 -0.0606  0.1075
   50CHL1  H24A 3689   1.645   3.401   8.040  0.1290  0.4704 -0.4658
   50CHL1  H24B 3690   1.628   3.529   8.173 -1.1185 -0.5982  1.8514
   50CHL1   C25 3691   1.499   3.367   8.206  0.3094  0.1930 -0.6639
   50CHL1   H25 3692   1.425   3.305   8.151  0.7288 -0.5400 -0.4151
   50CHL1   C26 3693   1.597   3.268   8.261  0.2586 -0.5135  0.2751
   50CHL1  H26A 3694   1.543   3.208   8.337 -1.2223  0.2886 -0.0992
   50CHL1  H26B 3695   1.654   3.208   8.187  0.5855 -1.5608  1.3446
   50CHL1  H26C 3696   1.671   3.326   8.320 -0.9274  2.1420 -0.6717
   50CHL1   C27 3697   1.430   3.443   8.315  0.0625 -0.2243 -0.0496
   50CHL1  H27A 3698   1.350   3.508   8.275  0.6416  0.3049 -0.3731
   50CHL1  H27B 3699   1.373   3.369   8.374  0.2137 -2.1824 -2.2175
   50CHL1  H27C 3700   1.502   3.506   8.372  1.7460 -0.9972 -1.2184
   51CHL1    C3 3701   1.274   4.998   7.124  0.1717 -0.8179  0.5014
   51CHL1    H3 3702   1.189   4.983   7.194 -0.9761 -0.3779 -0.7558
   51CHL1    O3 3703   1.237   5.037   6.989  0.3328 -0.1669  0.1628
   51CHL1   H3' 3704   1.193   4.959   6.954 -1.3142  1.5943 -2.0064
   51CHL1    C4 3705   1.371   5.106   7.171  0.0360 -0.4464  0.0626
   51CHL1   H4A 3706   1.458   5.093   7.102 -0.6533 -0.0942 -0.9029
   51CHL1   H4B 3707   1.327   5.206   7.149  3.2193  0.8166 -1.2748
   51CHL1    C5 3708   1.410   5.075   7.315 -0.1802  0.0017 -0.0981
   51CHL1    C6 3709   1.390   5.168   7.408  0.5966  0.0898  0.1924
   51CHL1    H6 3710   1.338   5.260   7.378  1.0206  0.6949  1.2538
   51CHL1    C7 3711   1.448   5.149   7.552  0.1900  0.0208  0.3965
   51CHL1   H7A 3712   1.508   5.237   7.583  1.5307 -0.8306  0.2961
   51CHL1   H7B 3713   1.360   5.137   7.618 -0.0976  0.9470  0.2095
   51CHL1    C8 3714   1.535   5.021   7.576 -0.1378  0.2578 -0.4373
   51CHL1    H8 3715   1.640   5.048   7.549  1.0309 -1.6340  1.8368
   51CHL1   C14 3716   1.534   4.980   7.730  0.9608  0.0250 -0.2905
   51CHL1   H14 3717   1.427   4.958   7.750  0.8263  1.2237  0.3537
   51CHL1   C15 3718   1.579   5.089   7.832  0.2008 -0.3245  0.3915
   51CHL1  H15A 3719   1.670   5.139   7.792 -0.6853 -0.6525 -2.2269
   51CHL1  H15B 3720   1.495   5.158   7.853  1.5934  1.0637  1.6828
   51CHL1   C16 3721   1.616   5.005   7.954  0.2615  0.0734  0.4719
   51CHL1  H16A 3722   1.719   5.025   7.990  0.0413 -0.0119  1.1584
   51CHL1  H16B 3723   1.550   5.044   8.034 -0.4392  3.6007 -1.5893
   51CHL1   C17 3724   1.593   4.858   7.909  0.6102 -0.1092  0.7107
   51CHL1   H17 3725   1.492   4.822   7.936  0.7794 -0.4475  0.9033
   51CHL1   C13 3726   1.609   4.852   7.761  0.0653 -0.4416  0.0571
   51CHL1   C18 3727   1.758   4.873   7.721  0.2708 -0.4523  0.2662
   51CHL1  H18A 3728   1.772   4.926   7.625 -1.5698  0.1777  0.3068
   51CHL1  H18B 3729   1.813   4.938   7.792  0.9447  0.7747 -1.3187
   51CHL1  H18C 3730   1.798   4.770   7.714 -0.4980 -0.8161  1.0243
   51CHL1   C12 3731   1.545   4.730   7.683 -0.3277  0.2429  0.6915
   51CHL1  H12A 3732   1.597   4.634   7.704 -2.8756 -1.5774 -0.7036
   51CHL1  H12B 3733   1.443   4.700   7.717 -0.8517  0.3737 -0.6838
   51CHL1   C11 3734   1.544   4.764   7.534 -0.4196  0.4031 -1.1500
   51CHL1  H11A 3735   1.645   4.751   7.490  0.8760  2.0459  1.1302
   51CHL1  H11B 3736   1.492   4.674   7.494 -1.0042 -1.1229  2.5999
   51CHL1    C9 3737   1.480   4.902   7.498  1.0931  0.3265  0.6007
   51CHL1    H9 3738   1.375   4.879   7.528  0.1695 -0.4146 -2.7539
   51CHL1   C10 3739   1.479   4.942   7.349 -0.5433  0.0604 -0.7848
   51CHL1   C19 3740   1.625   4.947   7.301  0.3478 -0.1001  0.6573
   51CHL1  H19A 3741   1.680   4.850   7.304  1.9389  0.7275 -0.3880
   51CHL1  H19B 3742   1.619   4.960   7.191 -3.0007 -0.6007  0.6809
   51CHL1  H19C 3743   1.687   5.032   7.338  2.4792 -0.8094 -1.0443
   51CHL1    C1 3744   1.400   4.833   7.271 -0.0727 -0.7026 -0.4580
   51CHL1   H1A 3745   1.451   4.735   7.260 -0.8289 -1.0736 -0.6995
   51CHL1   H1B 3746   1.315   4.803   7.336 -0.5206  3.0776  0.9198
   51CHL1    C2 3747   1.350   4.867   7.129 -0.0647  0.4494  0.8376
   51CHL1   H2A 3748   1.276   4.792   7.095 -0.2418  0.1739  1.8215
   51CHL1   H2B 3749   1.441   4.874   7.065  1.0129  1.8697  2.4491
   51CHL1   C20 3750   1.683   4.764   7.999  0.4337  0.2088  1.3453
   51CHL1   H20 3751   1.788   4.782   7.967  0.2307  0.9407  1.0843
   51CHL1   C21 3752   1.642   4.621   7.968 -0.0459  0.4035  0.4404
   51CHL1  H21A 3753   1.666   4.588   7.865  1.1747 -0.3051  0.9409
   51CHL1  H21B 3754   1.531   4.611   7.965  0.1275 -1.9493 -0.0757
   51CHL1  H21C 3755   1.689   4.544   8.032  1.0256 -0.6716 -1.5365
   51CHL1   C22 3756   1.671   4.800   8.148  0.6311  0.5388  0.4929
   51CHL1  H22A 3757   1.714   4.897   8.182  1.1990  0.7781 -0.8140
   51CHL1  H22B 3758   1.561   4.797   8.165  0.3542 -0.1247 -1.1732
   51CHL1   C23 3759   1.733   4.699   8.248 -0.2176  0.1310  1.3353
   51CHL1  H23A 3760   1.703   4.592   8.243  1.1753 -0.2147 -2.3223
   51CHL1  H23B 3761   1.844   4.702   8.239 -0.1734  1.1411  1.9806
   51CHL1   C24 3762   1.717   4.742   8.396  0.0386  0.1876  0.0910
   51CHL1  H24A 3763   1.756   4.845   8.402  0.0791  0.4926 -3.2802
   51CHL1  H24B 3764   1.614   4.745   8.437  0.3454  1.6785  0.7874
   51CHL1   C25 3765   1.785   4.646   8.492 -0.8191  0.0380 -0.2815
   51CHL1   H25 3766   1.732   4.549   8.487  1.0469 -0.9797 -1.4434
   51CHL1   C26 3767   1.936   4.635   8.465  0.3336  0.0139 -0.1314
   51CHL1  H26A 3768   1.960   4.597   8.363  0.7127 -0.9027  0.2799
   51CHL1  H26B 3769   1.980   4.735   8.483 -0.8469  0.2047  2.1981
   51CHL1  H26C 3770   1.979   4.562   8.537 -1.8146 -1.3706 -0.1383
   51CHL1   C27 3771   1.767   4.686   8.638  0.3412  0.3349  0.7235
   51CHL1  H27A 3772   1.659   4.696   8.662  0.5266 -0.6443  2.1144
   51CHL1  H27B 3773   1.804   4.613   8.713  1.7148 -0.4373 -0.6351
   51CHL1  H27C 3774   1.828   4.777   8.656  1.4405  0.1283 -1.5758
   52CHL1    C3 3775   1.845   4.324   6.907 -0.4426 -0.9263  0.3438
   52CHL1    H3 3776   1.741   4.284   6.901 -0.4509 -0.8261 -0.2195
   52CHL1    O3 3777   1.875   4.401   6.785  0.3982 -0.1413 -0.4272
   52CHL1   H3' 3778   1.888   4.339   6.713  0.5092 -2.1609  1.2115
   52CHL1    C4 3779   1.854   4.427   7.024  0.3526  0.0905 -0.4094
   52CHL1   H4A 3780   1.955   4.473   7.013 -0.5597  2.4097  0.2880
   52CHL1   H4B 3781   1.778   4.508   7.015  1.5826  1.2197 -1.0852
   52CHL1    C5 3782   1.851   4.369   7.164  0.1352 -0.2529  0.9328
   52CHL1    C6 3783   1.765   4.412   7.256  0.1265  0.1145  0.0319
   52CHL1    H6 3784   1.696   4.498   7.251  0.0782  0.0604 -0.2598
   52CHL1    C7 3785   1.757   4.352   7.390  0.3956  0.1450 -0.4873
   52CHL1   H7A 3786   1.729   4.423   7.471  0.4787 -1.6357  1.1817
   52CHL1   H7B 3787   1.671   4.282   7.380  0.3189  0.0717  0.5412
   52CHL1    C8 3788   1.876   4.265   7.423  0.6805  0.4205 -0.7805
   52CHL1    H8 3789   1.960   4.337   7.436  0.2944  0.9651 -1.2591
   52CHL1   C14 3790   1.839   4.196   7.557 -0.3321 -0.6815  0.1335
   52CHL1   H14 3791   1.744   4.141   7.547 -0.4882 -0.5651  0.9116
   52CHL1   C15 3792   1.807   4.286   7.683  0.3748  0.0714  0.3822
   52CHL1  H15A 3793   1.880   4.367   7.704 -0.3736  1.1907 -1.0747
   52CHL1  H15B 3794   1.710   4.338   7.667  0.6632  0.1534 -1.3435
   52CHL1   C16 3795   1.797   4.177   7.792 -0.4167  0.2534  0.6020
   52CHL1  H16A 3796   1.842   4.208   7.889  0.0593 -2.4785  1.3201
   52CHL1  H16B 3797   1.687   4.162   7.803 -0.3438 -0.2020  0.7112
   52CHL1   C17 3798   1.878   4.052   7.738 -0.2542 -0.3144 -0.6336
   52CHL1   H17 3799   1.797   3.982   7.708 -2.1098  1.8035 -0.8264
   52CHL1   C13 3800   1.945   4.099   7.608  0.4383 -0.2646  0.4187
   52CHL1   C18 3801   2.078   4.177   7.632  0.4614  0.1026  1.0569
   52CHL1  H18A 3802   2.070   4.237   7.725 -2.0684  0.4515  0.6736
   52CHL1  H18B 3803   2.162   4.105   7.642  0.8901  0.1936 -1.3073
   52CHL1  H18C 3804   2.112   4.226   7.538  0.0610 -0.6883  0.4917
   52CHL1   C12 3805   1.965   3.995   7.498 -0.0351  0.2901 -0.6238
   52CHL1  H12A 3806   2.043   3.919   7.521 -2.4146 -1.8061  1.0390
   52CHL1  H12B 3807   1.868   3.941   7.497 -0.3991  0.9364 -0.8808
   52CHL1   C11 3808   1.997   4.064   7.363 -0.1730  0.6896  0.4610
   52CHL1  H11A 3809   2.099   4.104   7.387 -0.6570  1.4627  1.3279
   52CHL1  H11B 3810   2.014   3.989   7.284  0.7601 -1.5153  2.6083
   52CHL1    C9 3811   1.899   4.164   7.310 -0.3594 -0.6792  0.8220
   52CHL1    H9 3812   1.801   4.117   7.287  1.4625 -2.9759 -3.3316
   52CHL1   C10 3813   1.943   4.241   7.179 -0.2251  0.3761  0.7474
   52CHL1   C19 3814   2.091   4.289   7.198  0.2758 -0.2315 -0.3004
   52CHL1  H19A 3815   2.098   4.331   7.301  1.0977 -0.0808 -0.4137
   52CHL1  H19B 3816   2.163   4.205   7.187 -0.8968 -0.9855 -2.8919
   52CHL1  H19C 3817   2.101   4.377   7.131 -1.4931  0.9994  0.9611
   52CHL1    C1 3818   1.921   4.152   7.059 -0.4728  0.9903  0.0431
   52CHL1   H1A 3819   1.991   4.066   7.073  0.0147  1.5567  1.2201
   52CHL1   H1B 3820   1.818   4.112   7.054  0.2658 -0.8808 -1.2619
   52CHL1    C2 3821   1.948   4.211   6.923  0.0175 -0.1459 -0.7291
   52CHL1   H2A 3822   1.941   4.138   6.839  0.6480 -1.5174  0.3667
   52CHL1   H2B 3823   2.049   4.256   6.922 -0.1431  0.2996  0.7304
   52CHL1   C20 3824   1.951   3.973   7.848 -0.2149 -0.1878  0.2574
   52CHL1   H20 3825   2.027   4.044   7.887 -1.3752  0.7710  0.8441
   52CHL1   C21 3826   2.010   3.841   7.796  0.0442  0.3993  0.1229
   52CHL1  H21A 3827   2.052   3.769   7.869 -0.3651 -1.5255 -1.4690
   52CHL1  H21B 3828   2.096   3.864   7.730  1.0682  1.0839  1.6438
   52CHL1  H21C 3829   1.929   3.788   7.741 -0.7545  2.7054 -1.0574
   52CHL1   C22 3830   1.857   3.932   7.965  0.0101 -0.7227  0.0983
   52CHL1  H22A 3831   1.788   4.015   7.990  1.3375  1.0872 -1.8826
   52CHL1  H22B 3832   1.797   3.848   7.924 -1.0215 -1.2770  2.5576
   52CHL1   C23 3833   1.932   3.888   8.090 -1.3545  0.0474  0.1155
   52CHL1  H23A 3834   2.008   3.812   8.060 -2.9321 -1.7045  0.3778
   52CHL1  H23B 3835   1.988   3.971   8.138  1.3889 -0.4897 -1.9232
   52CHL1   C24 3836   1.840   3.836   8.194  0.7902  0.3885  0.2298
   52CHL1  H24A 3837   1.776   3.913   8.242  1.8562 -0.4151  3.1407
   52CHL1  H24B 3838   1.768   3.764   8.149 -0.1970  1.9379 -0.7963
   52CHL1   C25 3839   1.903   3.765   8.318 -0.3337  0.8537  0.8145
   52CHL1   H25 3840   1.928   3.664   8.279 -0.8543  0.8605  0.4453
   52CHL1   C26 3841   2.022   3.834   8.385 -0.5008  0.2524 -0.7126
   52CHL1  H26A 3842   2.110   3.844   8.318  0.3903  1.0370  0.5152
   52CHL1  H26B 3843   1.992   3.933   8.427  0.4244 -0.0231  0.6738
   52CHL1  H26C 3844   2.058   3.787   8.479  0.1738  3.0364  0.5429
   52CHL1   C27 3845   1.794   3.745   8.419 -0.2216 -1.2081 -0.4244
   52CHL1  H27A 3846   1.753   3.836   8.467 -1.4670 -0.9414 -1.9099
   52CHL1  H27B 3847   1.704   3.707   8.365 -0.5524 -0.8760 -0.1149
   52CHL1  H27C 3848   1.824   3.671   8.497 -0.1088  0.5408  1.2542
   53CHL1    C3 3849   4.371   0.552   6.921 -0.4227  0.3670  0.2360
   53CHL1    H3 3850   4.319   0.482   6.989 -0.4653  0.3591  0.1958
   53CHL1    O3 3851   4.310   0.567   6.792  0.3418 -0.3430 -0.4935
   53CHL1   H3' 3852   4.264   0.651   6.802 -1.0433 -1.0474 -0.6347
   53CHL1    C4 3853   4.389   0.688   6.983  0.7627 -0.2219 -0.8960
   53CHL1   H4A 3854   4.428   0.767   6.914 -0.1949 -0.4644 -1.7332
   53CHL1   H4B 3855   4.285   0.722   7.003  0.5994  0.3862 -2.6213
   53CHL1    C5 3856   4.476   0.692   7.107 -0.2179 -0.0156  0.2924
   53CHL1    C6 3857   4.429   0.756   7.214  0.5007  0.4008  0.1465
   53CHL1    H6 3858   4.325   0.792   7.213 -0.3267 -1.5550 -3.4022
   53CHL1    C7 3859   4.513   0.766   7.332  0.0107 -0.4972 -0.5974
   53CHL1   H7A 3860   4.482   0.860   7.384  0.8117  0.1720 -1.3001
   53CHL1   H7B 3861   4.490   0.689   7.409 -0.3043 -1.5435 -1.7250
   53CHL1    C8 3862   4.666   0.771   7.303 -0.0080 -0.2327  0.2288
   53CHL1    H8 3863   4.687   0.864   7.246  2.1688 -1.0934 -0.4846
   53CHL1   C14 3864   4.752   0.779   7.427 -0.3519 -0.5163  0.3845
   53CHL1   H14 3865   4.723   0.693   7.490 -0.0923  0.6757  2.2141
   53CHL1   C15 3866   4.734   0.903   7.520  0.2324 -0.1158 -0.8469
   53CHL1  H15A 3867   4.705   0.992   7.461 -1.3403 -0.8907 -1.3083
   53CHL1  H15B 3868   4.645   0.877   7.583  1.1662  2.3184  1.6865
   53CHL1   C16 3869   4.862   0.918   7.599 -0.4724 -0.5817 -0.0752
   53CHL1  H16A 3870   4.913   1.016   7.593 -2.4928  0.5963  1.0639
   53CHL1  H16B 3871   4.840   0.900   7.707 -1.3689 -0.2258 -0.1900
   53CHL1   C17 3872   4.955   0.798   7.548 -0.0113  0.2749 -0.5309
   53CHL1   H17 3873   4.927   0.708   7.607 -0.9185  0.3774 -0.7913
   53CHL1   C13 3874   4.905   0.772   7.405  0.0345  0.2279  1.7228
   53CHL1   C18 3875   4.953   0.888   7.315  0.7911 -0.8114  0.2835
   53CHL1  H18A 3876   4.911   0.983   7.355 -0.4465 -1.8490  1.5253
   53CHL1  H18B 3877   5.063   0.889   7.305  1.1185 -0.8755  3.1223
   53CHL1  H18C 3878   4.918   0.875   7.210  0.1892  0.6125  0.2735
   53CHL1   C12 3879   4.925   0.632   7.348  0.2933  0.3130  0.3295
   53CHL1  H12A 3880   5.032   0.602   7.340  0.2446  0.1356  0.3359
   53CHL1  H12B 3881   4.887   0.557   7.421  1.1583  0.2956  0.7815
   53CHL1   C11 3882   4.849   0.612   7.214 -0.0463 -0.4125  0.6353
   53CHL1  H11A 3883   4.896   0.673   7.134 -0.6682 -2.6911 -1.6080
   53CHL1  H11B 3884   4.863   0.505   7.188  2.3574  0.1972 -0.9104
   53CHL1    C9 3885   4.695   0.641   7.221 -0.3006  0.0536  0.4753
   53CHL1    H9 3886   4.652   0.560   7.283  0.3216  0.4114  1.3856
   53CHL1   C10 3887   4.622   0.642   7.079  0.2819 -0.2046 -0.5336
   53CHL1   C19 3888   4.701   0.738   6.990 -0.0512 -0.2949 -0.2734
   53CHL1  H19A 3889   4.730   0.825   7.052  2.0770 -1.7249  0.8746
   53CHL1  H19B 3890   4.792   0.686   6.953  0.8433  2.5638 -2.4506
   53CHL1  H19C 3891   4.644   0.773   6.901  1.7755 -0.6586 -1.6503
   53CHL1    C1 3892   4.598   0.500   7.023  0.5813  0.1912 -0.0406
   53CHL1   H1A 3893   4.700   0.466   6.996 -0.1875 -1.1308 -1.4089
   53CHL1   H1B 3894   4.558   0.425   7.094 -0.0325  0.4422 -0.1128
   53CHL1    C2 3895   4.512   0.493   6.891 -1.2219 -0.4287 -0.4664
   53CHL1   H2A 3896   4.511   0.385   6.864 -0.0533 -0.1384 -1.7535
   53CHL1   H2B 3897   4.559   0.558   6.815 -0.1533  2.4827  2.4438
   53CHL1   C20 3898   5.099   0.831   7.571 -0.3093 -0.6958 -0.3087
   53CHL1   H20 3899   5.131   0.913   7.504  1.2751 -1.5162 -0.6177
   53CHL1   C21 3900   5.184   0.705   7.535 -0.2243 -0.6126  0.2666
   53CHL1  H21A 3901   5.214   0.712   7.428  0.8799  0.6970  0.6288
   53CHL1  H21B 3902   5.123   0.613   7.546  1.1232 -1.5613  0.0663
   53CHL1  H21C 3903   5.266   0.683   7.607 -0.2194 -1.3645  0.0408
   53CHL1   C22 3904   5.126   0.881   7.714 -1.0338  0.3025 -0.3419
   53CHL1  H22A 3905   5.234   0.906   7.711 -0.6372 -1.3901 -2.0164
   53CHL1  H22B 3906   5.076   0.980   7.725  2.0326  2.0410 -0.9380
   53CHL1   C23 3907   5.111   0.781   7.828  0.2502  1.0973  0.3329
   53CHL1  H23A 3908   5.003   0.754   7.831  0.3707  0.6498  0.7409
   53CHL1  H23B 3909   5.170   0.693   7.795 -0.7929  0.1398  0.9454
   53CHL1   C24 3910   5.157   0.839   7.960 -0.3384 -0.6950  0.0415
   53CHL1  H24A 3911   5.268   0.836   7.958 -0.2175  0.0846  2.3826
   53CHL1  H24B 3912   5.116   0.942   7.967 -0.8116 -0.8999  0.3107
   53CHL1   C25 3913   5.126   0.752   8.080  0.0971  0.1310 -0.8087
   53CHL1   H25 3914   5.173   0.652   8.069 -2.9195 -1.6297  0.8139
   53CHL1   C26 3915   5.182   0.824   8.204 -0.2371  0.6720  0.1767
   53CHL1  H26A 3916   5.159   0.933   8.203 -1.3620  0.4394 -0.0488
   53CHL1  H26B 3917   5.137   0.783   8.297  1.2305 -1.1423  0.1480
   53CHL1  H26C 3918   5.293   0.813   8.201 -0.0851  2.0961 -2.4492
   53CHL1   C27 3919   4.975   0.729   8.106 -0.1696 -0.3512 -0.3032
   53CHL1  H27A 3920   4.975   0.647   8.182 -0.6556 -0.4313 -0.3875
   53CHL1  H27B 3921   4.924   0.822   8.138 -1.8881 -1.0055 -1.0737
   53CHL1  H27C 3922   4.914   0.698   8.019 -0.3939  2.3827 -1.2068
   54CHL1    C3 3923   2.142   1.900   6.962  0.2134  0.1970 -0.4408
   54CHL1    H3 3924   2.038   1.939   6.953 -0.0600  0.0535  1.5884
   54CHL1    O3 3925   2.185   1.872   6.828  0.6085  0.0354 -0.4877
   54CHL1   H3' 3926   2.275   1.838   6.833  1.3808  2.0897  0.7588
   54CHL1    C4 3927   2.234   2.010   7.023  0.0998  0.3704 -0.0618
   54CHL1   H4A 3928   2.342   1.985   7.021 -0.0867 -0.4420 -1.8055
   54CHL1   H4B 3929   2.240   2.096   6.954  1.2082  0.3194 -0.0474
   54CHL1    C5 3930   2.189   2.054   7.158 -0.0504 -0.0460  0.2056
   54CHL1    C6 3931   2.149   2.180   7.173  1.1609  0.2613 -0.5565
   54CHL1    H6 3932   2.160   2.258   7.096  1.2174  2.3691  1.4784
   54CHL1    C7 3933   2.111   2.229   7.312  0.0370  0.0302  0.5258
   54CHL1   H7A 3934   2.171   2.320   7.332  0.3105  0.1576 -0.7867
   54CHL1   H7B 3935   2.002   2.246   7.301  0.1032  1.2078  1.4671
   54CHL1    C8 3936   2.146   2.129   7.430  0.3075  0.3055 -0.0602
   54CHL1    H8 3937   2.254   2.137   7.457  0.2721  0.9819 -0.1104
   54CHL1   C14 3938   2.059   2.156   7.549 -0.4741  0.5455  0.3137
   54CHL1   H14 3939   1.959   2.125   7.511 -0.3237  0.1945  0.2028
   54CHL1   C15 3940   2.048   2.299   7.604 -0.0574 -0.0131  0.4727
   54CHL1  H15A 3941   2.149   2.346   7.599  1.0888 -2.4187 -2.0296
   54CHL1  H15B 3942   1.976   2.354   7.539 -1.4473 -2.5162 -0.2195
   54CHL1   C16 3943   1.996   2.285   7.751  0.0981 -0.2350  0.3431
   54CHL1  H16A 3944   2.080   2.319   7.815  0.7522  0.2288 -0.7317
   54CHL1  H16B 3945   1.905   2.343   7.774  0.1961  1.0774 -2.1539
   54CHL1   C17 3946   1.986   2.131   7.779  0.3106  0.0223 -0.6273
   54CHL1   H17 3947   1.882   2.106   7.749 -2.0253  1.5021  4.9863
   54CHL1   C13 3948   2.078   2.069   7.671 -0.0107  0.1568  0.2005
   54CHL1   C18 3949   2.225   2.086   7.721  0.5558  0.3675 -0.8778
   54CHL1  H18A 3950   2.306   2.060   7.649  0.9564 -1.5259  0.1803
   54CHL1  H18B 3951   2.248   2.187   7.761  0.0945 -0.3995  1.4579
   54CHL1  H18C 3952   2.241   2.006   7.797 -1.5344 -0.4455 -1.2131
   54CHL1   C12 3953   2.057   1.922   7.634 -0.2570  0.0706  0.3934
   54CHL1  H12A 3954   2.084   1.861   7.723 -0.0870  1.5742  1.4255
   54CHL1  H12B 3955   1.953   1.903   7.602  0.2353  0.0840 -1.2813
   54CHL1   C11 3956   2.142   1.887   7.515 -0.0963 -0.3486  0.4063
   54CHL1  H11A 3957   2.249   1.901   7.543 -1.0012  2.4887  2.9593
   54CHL1  H11B 3958   2.138   1.780   7.487 -1.3447 -0.4158  0.7967
   54CHL1    C9 3959   2.122   1.980   7.391 -0.4181  0.2005 -0.6170
   54CHL1    H9 3960   2.015   1.971   7.362 -0.8727 -0.4566  1.1670
   54CHL1   C10 3961   2.195   1.940   7.261 -0.5464  0.2109  0.1952
   54CHL1   C19 3962   2.343   1.890   7.284  0.0945 -0.4899  0.4449
   54CHL1  H19A 3963   2.391   1.864   7.188 -0.4810 -1.3187  0.3720
   54CHL1  H19B 3964   2.400   1.966   7.341 -0.6351  1.2311 -1.0392
   54CHL1  H19C 3965   2.336   1.802   7.352 -2.9264 -0.9188 -0.2684
   54CHL1    C1 3966   2.129   1.812   7.204  0.0050  0.2669  0.1892
   54CHL1   H1A 3967   2.175   1.728   7.261  0.8278  0.3199 -0.3754
   54CHL1   H1B 3968   2.019   1.809   7.215  0.0580 -2.9043  1.2096
   54CHL1    C2 3969   2.151   1.776   7.054 -0.0376  0.0698  0.3093
   54CHL1   H2A 3970   2.068   1.709   7.024 -0.7678  1.1581 -0.1634
   54CHL1   H2B 3971   2.250   1.728   7.038  1.1770  2.5872 -0.2953
   54CHL1   C20 3972   1.994   2.096   7.931 -0.5051  0.3712  0.3770
   54CHL1   H20 3973   2.101   2.096   7.962 -0.2564 -0.2960 -0.4526
   54CHL1   C21 3974   1.940   1.945   7.954  0.2422 -0.6229 -0.3640
   54CHL1  H21A 3975   2.008   1.868   7.913  0.9542 -0.7435  0.9823
   54CHL1  H21B 3976   1.838   1.925   7.913  0.9635 -1.0392 -2.0460
   54CHL1  H21C 3977   1.920   1.926   8.062 -1.1669  0.4417 -0.3953
   54CHL1   C22 3978   1.923   2.195   8.026  1.0885 -0.0221 -0.0355
   54CHL1  H22A 3979   1.952   2.301   8.013  0.0448  0.3847  0.7569
   54CHL1  H22B 3980   1.813   2.188   8.009  1.0098  0.1153  0.3964
   54CHL1   C23 3981   1.942   2.151   8.177 -0.3226 -0.6915 -0.4273
   54CHL1  H23A 3982   1.847   2.097   8.199 -1.3407  0.6859 -1.3077
   54CHL1  H23B 3983   2.030   2.083   8.186  0.6927  0.5224 -0.9451
   54CHL1   C24 3984   1.948   2.264   8.278 -0.5367 -0.7249  0.0255
   54CHL1  H24A 3985   2.030   2.335   8.256 -1.7264 -0.2263 -3.5156
   54CHL1  H24B 3986   1.853   2.319   8.261 -0.5787 -0.5271  0.8717
   54CHL1   C25 3987   1.932   2.219   8.426  0.2015 -0.1992 -0.0776
   54CHL1   H25 3988   2.016   2.151   8.452 -1.8884 -2.5721  0.8638
   54CHL1   C26 3989   1.947   2.336   8.515 -0.0590 -0.6173  0.2508
   54CHL1  H26A 3990   1.868   2.412   8.497  1.2744  1.0997  1.2593
   54CHL1  H26B 3991   1.930   2.300   8.619 -3.1298  4.2828  1.8095
   54CHL1  H26C 3992   2.051   2.372   8.501 -0.9220  1.5417 -0.9289
   54CHL1   C27 3993   1.801   2.148   8.456  0.5214 -0.1509 -0.6300
   54CHL1  H27A 3994   1.718   2.191   8.395  0.8765  1.0659 -0.2836
   54CHL1  H27B 3995   1.820   2.040   8.443 -2.3161 -0.9517  1.0198
   54CHL1  H27C 3996   1.770   2.153   8.563 -0.7948  1.4324 -1.0396
   55CHL1    C3 3997   5.340   4.554   7.161  0.7914 -0.2096  0.6179
   55CHL1    H3 3998   5.393   4.457   7.168  2.7918  0.8230  0.5909
   55CHL1    O3 3999   5.337   4.588   7.018 -0.0752 -0.8581  0.2163
   55CHL1   H3' 4000   5.286   4.523   6.970 -0.1935 -0.1800 -0.6226
   55CHL1    C4 4001   5.196   4.547   7.208  0.0579 -0.1411  0.5113
   55CHL1   H4A 4002   5.137   4.640   7.192  0.9114  0.5403  1.1725
   55CHL1   H4B 4003   5.138   4.467   7.157  1.1217  0.7721 -2.2998
   55CHL1    C5 4004   5.192   4.526   7.357 -0.0018 -0.1462  0.0296
   55CHL1    C6 4005   5.116   4.423   7.409  0.0738  0.5004  0.4868
   55CHL1    H6 4006   5.068   4.351   7.341  0.5685  2.1362 -1.7120
   55CHL1    C7 4007   5.101   4.402   7.561  0.0103  0.8385  0.5118
   55CHL1   H7A 4008   4.994   4.391   7.586 -0.3796  0.5518 -1.1606
   55CHL1   H7B 4009   5.158   4.312   7.592  2.0263  0.8216 -2.7910
   55CHL1    C8 4010   5.153   4.528   7.645 -0.9700 -0.2175 -0.3683
   55CHL1    H8 4011   5.080   4.610   7.624  0.3018  0.3413 -3.1084
   55CHL1   C14 4012   5.153   4.490   7.795  0.2847  0.3835 -1.0846
   55CHL1   H14 4013   5.216   4.399   7.795 -0.3560 -0.0668 -1.7382
   55CHL1   C15 4014   5.019   4.432   7.857  0.0373 -0.1330 -0.0758
   55CHL1  H15A 4015   4.935   4.496   7.823 -2.1195 -2.6996  0.0844
   55CHL1  H15B 4016   5.008   4.324   7.831  1.9086 -1.2235  3.1017
   55CHL1   C16 4017   5.048   4.447   8.007 -0.3564 -0.2688 -0.4789
   55CHL1  H16A 4018   4.977   4.525   8.043 -0.1811 -0.2470 -0.1863
   55CHL1  H16B 4019   5.022   4.351   8.056 -1.1757 -0.8070 -1.8832
   55CHL1   C17 4020   5.185   4.522   8.027  0.4982 -0.9116 -0.4132
   55CHL1   H17 4021   5.264   4.444   8.022  1.4407  0.0528 -1.3648
   55CHL1   C13 4022   5.204   4.594   7.890 -0.5026  0.4105  0.1365
   55CHL1   C18 4023   5.098   4.714   7.884  0.5648  0.1211  0.3378
   55CHL1  H18A 4024   5.136   4.807   7.931  0.4680  0.3872 -0.1039
   55CHL1  H18B 4025   5.089   4.744   7.777  0.4923  1.4390  0.6983
   55CHL1  H18C 4026   4.997   4.686   7.922  0.4716  1.9712  1.5526
   55CHL1   C12 4027   5.344   4.637   7.839 -0.1758  0.4492  0.0167
   55CHL1  H12A 4028   5.380   4.724   7.897 -1.0531  0.0279  1.2316
   55CHL1  H12B 4029   5.425   4.561   7.841 -0.1552  0.4713  0.0211
   55CHL1   C11 4030   5.346   4.686   7.696 -0.0645  0.0514 -0.1003
   55CHL1  H11A 4031   5.284   4.777   7.680 -1.1356 -0.6925 -0.3166
   55CHL1  H11B 4032   5.453   4.692   7.667  0.7072 -4.3569  1.0473
   55CHL1    C9 4033   5.285   4.581   7.594 -0.0130  0.3561 -0.3759
   55CHL1    H9 4034   5.348   4.489   7.591 -1.1764 -0.4504 -1.0597
   55CHL1   C10 4035   5.271   4.628   7.439  0.5237 -0.1582  0.3182
   55CHL1   C19 4036   5.194   4.767   7.426  0.2325  0.1622  0.0031
   55CHL1  H19A 4037   5.251   4.853   7.468 -1.1148  0.5207  1.1888
   55CHL1  H19B 4038   5.186   4.806   7.322  1.2072 -0.9689 -0.5133
   55CHL1  H19C 4039   5.101   4.764   7.487  0.0600 -0.6176 -0.2921
   55CHL1    C1 4040   5.414   4.623   7.383 -0.1342  0.5104  0.7485
   55CHL1   H1A 4041   5.482   4.689   7.440  1.2587 -0.0323 -0.2428
   55CHL1   H1B 4042   5.447   4.518   7.389 -2.4996 -0.7466 -3.9138
   55CHL1    C2 4043   5.422   4.655   7.237  0.8917 -0.2195 -0.4565
   55CHL1   H2A 4044   5.526   4.649   7.199  0.4341 -2.3201 -1.5578
   55CHL1   H2B 4045   5.384   4.758   7.224 -1.4042 -0.6599  1.9002
   55CHL1   C20 4046   5.194   4.612   8.159  0.7238  0.4433  0.0491
   55CHL1   H20 4047   5.110   4.683   8.154 -0.2458 -0.7398 -1.0033
   55CHL1   C21 4048   5.341   4.675   8.188  0.8642 -0.1938 -0.3268
   55CHL1  H21A 4049   5.361   4.758   8.116 -0.1242 -0.0255 -0.4171
   55CHL1  H21B 4050   5.416   4.594   8.177  0.5425 -0.6790  0.9089
   55CHL1  H21C 4051   5.355   4.730   8.283  0.1729  1.3115 -1.0670
   55CHL1   C22 4052   5.172   4.523   8.285  0.7552 -0.5429  0.0846
   55CHL1  H22A 4053   5.202   4.587   8.371 -0.5004  0.4283 -0.1646
   55CHL1  H22B 4054   5.062   4.513   8.289  0.4387  2.1263  0.0638
   55CHL1   C23 4055   5.240   4.385   8.285 -0.0782  0.1395 -0.4194
   55CHL1  H23A 4056   5.213   4.329   8.193 -1.1966  1.7655 -1.1274
   55CHL1  H23B 4057   5.347   4.414   8.281  0.1657 -0.7987 -1.2010
   55CHL1   C24 4058   5.201   4.314   8.419 -0.6283 -0.2895  0.2059
   55CHL1  H24A 4059   5.226   4.385   8.501  0.3506  0.1241 -0.4427
   55CHL1  H24B 4060   5.093   4.290   8.425 -0.8009  0.6782  4.0926
   55CHL1   C25 4061   5.265   4.182   8.433 -0.6065  0.9743 -0.1112
   55CHL1   H25 4062   5.245   4.124   8.340  1.2066 -1.0184  0.6399
   55CHL1   C26 4063   5.414   4.190   8.462  0.4094  0.4499 -0.3286
   55CHL1  H26A 4064   5.470   4.240   8.380 -0.2060 -0.4730 -1.3392
   55CHL1  H26B 4065   5.451   4.244   8.552  1.1759 -0.5086 -0.0516
   55CHL1  H26C 4066   5.463   4.091   8.469 -0.7212 -0.0150  2.2851
   55CHL1   C27 4067   5.197   4.103   8.550  0.2177  0.2317 -0.3758
   55CHL1  H27A 4068   5.248   4.006   8.566  2.5355  1.4573  0.0329
   55CHL1  H27B 4069   5.194   4.162   8.644 -1.1570  0.6704 -0.6646
   55CHL1  H27C 4070   5.093   4.091   8.511 -0.0945 -1.4330  0.8486
   56CHL1    C3 4071   3.611   2.951   7.025 -0.7909  0.0615  0.2156
   56CHL1    H3 4072   3.535   3.031   7.013 -1.5676 -0.9965 -2.9487
   56CHL1    O3 4073   3.653   2.925   6.895 -0.0773  0.8563  1.0849
   56CHL1   H3' 4074   3.723   2.859   6.891 -0.7343  0.1996 -0.1354
   56CHL1    C4 4075   3.727   2.989   7.109  0.2176  0.3781 -0.0418
   56CHL1   H4A 4076   3.800   2.906   7.099  1.1564  1.3484 -1.6309
   56CHL1   H4B 4077   3.776   3.074   7.058 -1.1121 -0.8423 -3.6338
   56CHL1    C5 4078   3.686   3.018   7.249 -0.0897 -0.2731 -0.3251
   56CHL1    C6 4079   3.712   3.133   7.308  0.2658  0.7596  0.5294
   56CHL1    H6 4080   3.783   3.197   7.254  0.3657  0.2186 -0.0009
   56CHL1    C7 4081   3.656   3.169   7.444  0.6778 -0.9641  0.0904
   56CHL1   H7A 4082   3.734   3.212   7.510 -0.2134  0.1363  0.4678
   56CHL1   H7B 4083   3.580   3.250   7.445  1.0738 -0.5987  0.7740
   56CHL1    C8 4084   3.609   3.052   7.520 -0.8610 -0.2732  0.2442
   56CHL1    H8 4085   3.703   3.004   7.554 -1.5425 -1.5680  0.3903
   56CHL1   C14 4086   3.515   3.103   7.634 -0.4523  0.0511 -0.3203
   56CHL1   H14 4087   3.425   3.148   7.587 -1.0966 -1.3001 -0.4369
   56CHL1   C15 4088   3.569   3.219   7.730  0.2935  0.1883  0.5846
   56CHL1  H15A 4089   3.674   3.195   7.760  0.6493 -1.1969 -1.5678
   56CHL1  H15B 4090   3.563   3.317   7.678  1.1924  0.5853  1.1842
   56CHL1   C16 4091   3.482   3.203   7.858 -0.5838 -0.4135  0.0136
   56CHL1  H16A 4092   3.547   3.189   7.947 -1.7830  0.3734  1.0483
   56CHL1  H16B 4093   3.432   3.301   7.871  0.2213  0.0787 -0.5121
   56CHL1   C17 4094   3.389   3.078   7.838 -0.5161  0.0750  0.6598
   56CHL1   H17 4095   3.301   3.118   7.784 -0.9568 -1.2460  0.3465
   56CHL1   C13 4096   3.461   2.996   7.729 -1.3672  0.1218  0.7090
   56CHL1   C18 4097   3.592   2.926   7.795  0.6370 -0.2596  0.3206
   56CHL1  H18A 4098   3.676   2.889   7.733  0.3871  0.9280 -0.7556
   56CHL1  H18B 4099   3.641   2.989   7.872 -1.1600  2.3696 -0.5549
   56CHL1  H18C 4100   3.560   2.832   7.847  0.7677 -1.3781 -1.5350
   56CHL1   C12 4101   3.382   2.894   7.641  0.1987 -0.0005  0.7171
   56CHL1  H12A 4102   3.347   2.804   7.696  2.4961 -0.8257  0.9522
   56CHL1  H12B 4103   3.302   2.962   7.604  0.4523  1.7281  3.1286
   56CHL1   C11 4104   3.470   2.844   7.521 -0.9366 -0.7519 -0.2864
   56CHL1  H11A 4105   3.553   2.783   7.562 -1.1118 -0.4833  0.4695
   56CHL1  H11B 4106   3.411   2.769   7.463  0.6405 -2.1570 -0.1266
   56CHL1    C9 4107   3.528   2.952   7.436 -0.1619 -0.7823 -0.2149
   56CHL1    H9 4108   3.434   3.003   7.405 -0.8540 -0.9838  1.4550
   56CHL1   C10 4109   3.602   2.903   7.306  0.9068  0.9533 -0.5818
   56CHL1   C19 4110   3.706   2.792   7.344 -0.7156  0.5642 -0.6662
   56CHL1  H19A 4111   3.753   2.744   7.255  1.0711 -0.4600  0.7587
   56CHL1  H19B 4112   3.792   2.827   7.406 -2.1177  1.0746  1.0669
   56CHL1  H19C 4113   3.654   2.717   7.407  1.3008  1.0980  1.7674
   56CHL1    C1 4114   3.493   2.837   7.217  0.1837  0.3694  0.4561
   56CHL1   H1A 4115   3.464   2.741   7.265  0.1324  0.3238  0.3333
   56CHL1   H1B 4116   3.401   2.897   7.205 -1.6066 -2.6670 -2.7092
   56CHL1    C2 4117   3.550   2.824   7.074 -0.3692  0.2655 -0.5102
   56CHL1   H2A 4118   3.465   2.816   7.003 -0.3398 -0.5896 -0.4589
   56CHL1   H2B 4119   3.625   2.744   7.059 -0.2948  0.3275 -0.4668
   56CHL1   C20 4120   3.336   2.990   7.958 -0.0847 -0.5797 -0.1565
   56CHL1   H20 4121   3.394   2.897   7.977 -0.8895 -0.8360  1.1889
   56CHL1   C21 4122   3.192   2.951   7.926  0.6470  0.1258 -0.2573
   56CHL1  H21A 4123   3.115   3.029   7.944 -0.1154 -0.6287 -0.1798
   56CHL1  H21B 4124   3.153   2.865   7.984  0.1593 -1.1153 -2.3345
   56CHL1  H21C 4125   3.184   2.916   7.821 -0.1344 -0.2667 -0.0728
   56CHL1   C22 4126   3.350   3.075   8.088 -0.0070  0.0685  0.0946
   56CHL1  H22A 4127   3.460   3.086   8.105 -0.0176 -1.0838  1.1023
   56CHL1  H22B 4128   3.309   3.177   8.075 -0.1324  0.3288  2.1193
   56CHL1   C23 4129   3.283   3.011   8.217  0.4801 -0.1026 -0.4672
   56CHL1  H23A 4130   3.178   3.043   8.230  1.4936  3.3909  0.1193
   56CHL1  H23B 4131   3.295   2.900   8.219 -1.1964 -0.3067 -0.2024
   56CHL1   C24 4132   3.353   3.068   8.343  0.3967 -0.2802 -0.4487
   56CHL1  H24A 4133   3.459   3.040   8.358  0.3082  0.2949  1.5164
   56CHL1  H24B 4134   3.363   3.177   8.323  1.0852 -0.4103 -0.8479
   56CHL1   C25 4135   3.279   3.046   8.467 -0.9753  1.0992  0.1472
   56CHL1   H25 4136   3.174   3.079   8.456 -0.7765  1.3932 -0.9697
   56CHL1   C26 4137   3.284   2.899   8.508 -0.4337 -0.5537  0.3025
   56CHL1  H26A 4138   3.383   2.871   8.549  0.0874 -0.3309 -0.7516
   56CHL1  H26B 4139   3.261   2.830   8.424 -1.5682  0.0722  0.0784
   56CHL1  H26C 4140   3.212   2.892   8.592 -0.1299  0.4868  0.6718
   56CHL1   C27 4141   3.353   3.132   8.578 -0.0274 -0.1289 -0.0277
   56CHL1  H27A 4142   3.451   3.085   8.605  1.3686  2.2746 -0.6134
   56CHL1  H27B 4143   3.371   3.231   8.530 -3.2674  0.1533 -0.8504
   56CHL1  H27C 4144   3.288   3.147   8.666 -0.7213  1.1499 -0.7293
   57SAPC     N 4145   5.965   4.392  10.845 -0.0801 -0.4956 -0.1417
   57SAPC   C12 4146   5.839   4.403  10.770  0.1988 -0.8422 -1.1156
   57SAPC  H12A 4147   5.850   4.486  10.702  2.2254  0.9655  1.2115
   57SAPC  H12B 4148   5.759   4.431  10.837  1.1173  0.6346 -0.6000
   57SAPC   C13 4149   5.975   4.280  10.945 -0.1693 -0.0421  0.2942
   57SAPC  H13A 4150   5.891   4.293  11.012  0.2160 -0.4093  0.8566
   57SAPC  H13B 4151   5.966   4.183  10.899  0.4704  0.4563 -0.9132
   57SAPC  H13C 4152   6.068   4.283  11.000 -0.6908  1.7575  1.1441
   57SAPC   C14 4153   6.075   4.374  10.749 -0.0935  0.5086 -0.3514
   57SAPC  H14A 4154   6.175   4.379  10.789 -0.2231 -0.6000  0.1479
   57SAPC  H14B 4155   6.068   4.274  10.711 -0.9219  1.0413 -1.6713
   57SAPC  H14C 4156   6.073   4.446  10.668  1.4739 -0.8148 -1.6263
   57SAPC   C15 4157   5.997   4.511  10.922 -0.3791  0.6367 -0.6170
   57SAPC  H15A 4158   5.915   4.549  10.981  0.0271  2.7845 -1.3273
   57SAPC  H15B 4159   6.087   4.496  10.980  0.1187 -1.3093 -1.8073
   57SAPC  H15C 4160   6.031   4.585  10.851  4.0837 -0.2793  0.2809
   57SAPC   C11 4161   5.796   4.284  10.686 -0.0480  0.6253 -0.4827
   57SAPC  H11A 4162   5.875   4.262  10.611 -0.0610  2.5624 -1.1352
   57SAPC  H11B 4163   5.712   4.313  10.618 -0.7076  0.6209  0.3134
   57SAPC     P 4164   5.618   4.155  10.809 -0.1786 -0.4023  0.2767
   57SAPC   O13 4165   5.619   4.046  10.910 -0.7368  1.0218 -0.1466
   57SAPC   O14 4166   5.546   4.280  10.839  0.1770 -0.1441  0.2436
   57SAPC   O12 4167   5.771   4.172  10.765  0.0664  0.7570 -0.2820
   57SAPC   O11 4168   5.550   4.103  10.679 -0.1988  0.3365 -0.3522
   57SAPC    C1 4169   5.606   3.996  10.596  0.2021 -1.0176  0.7530
   57SAPC    HA 4170   5.695   4.040  10.546 -0.1064 -0.6326  0.5454
   57SAPC    HB 4171   5.640   3.909  10.657 -2.4972 -1.7546  1.3247
   57SAPC    C2 4172   5.501   3.927  10.498 -0.3363 -1.2740  0.5773
   57SAPC    HS 4173   5.551   3.852  10.433  0.1464  0.5844 -1.3054
   57SAPC   O21 4174   5.436   4.030  10.411  0.4242  0.7321  0.3559
   57SAPC   C21 4175   5.514   4.091  10.322 -0.1536 -0.0090 -0.5042
   57SAPC   O22 4176   5.636   4.069  10.308 -0.2150 -0.3195  0.3924
   57SAPC   C22 4177   5.429   4.193  10.239 -0.4138 -0.1340 -0.3881
   57SAPC   H2R 4178   5.327   4.201  10.283  0.6156 -1.6814  2.5863
   57SAPC   H2S 4179   5.484   4.286  10.266  0.3153 -0.7579  0.3166
   57SAPC    C3 4180   5.393   3.844  10.576  0.1431  0.0246  0.7680
   57SAPC    HX 4181   5.348   3.926  10.637  2.1342  0.7760  1.3208
   57SAPC    HY 4182   5.441   3.775  10.649  0.4954 -0.6684 -0.1103
   57SAPC   O31 4183   5.302   3.767  10.494 -0.1817  0.0026  0.4360
   57SAPC   C31 4184   5.187   3.823  10.465 -0.3535 -0.3237 -0.1095
   57SAPC   O32 4185   5.130   3.920  10.507  0.1260  0.0683 -0.7219
   57SAPC   C32 4186   5.117   3.738  10.358  0.2371 -0.2819  0.0952
   57SAPC   H2X 4187   5.009   3.724  10.380  0.4198 -0.2319  1.0547
   57SAPC   H2Y 4188   5.170   3.641  10.365  1.4155  0.1638 -1.8953
   57SAPC   C23 4189   5.446   4.172  10.092 -0.6646 -0.4865  0.3539
   57SAPC   H3R 4190   5.552   4.145  10.072 -0.5318 -0.1777  0.6236
   57SAPC   H3S 4191   5.413   4.260  10.034  0.2242 -0.4340 -0.0925
   57SAPC   C24 4192   5.356   4.053  10.053  0.1923  0.2952  0.1091
   57SAPC   H4R 4193   5.255   4.092  10.074 -0.9147 -3.2169  2.0592
   57SAPC   H4S 4194   5.371   3.969  10.124 -1.4547  0.5806  0.8376
   57SAPC   C25 4195   5.372   4.007   9.909 -0.1504 -0.3143  0.0328
   57SAPC   H5R 4196   5.463   3.950   9.887 -0.7266 -0.9563 -0.7551
   57SAPC   C26 4197   5.307   4.059   9.805  0.4642 -0.4210 -0.0878
   57SAPC   H6R 4198   5.327   4.008   9.710 -2.7716 -1.7635 -0.1773
   57SAPC   C27 4199   5.187   4.152   9.816 -0.3167  0.1241 -0.3417
   57SAPC   H7R 4200   5.141   4.161   9.917  0.8354  2.8864  0.0282
   57SAPC   H7S 4201   5.109   4.095   9.763  0.3871 -0.9006 -0.3148
   57SAPC   C28 4202   5.193   4.287   9.735  0.8197 -0.0370 -0.0709
   57SAPC   H8R 4203   5.209   4.381   9.790 -1.1869  0.5613 -0.4521
   57SAPC   C29 4204   5.180   4.286   9.599  0.4142 -0.0510 -0.0495
   57SAPC   H9R 4205   5.191   4.383   9.548 -1.8462  1.7015  2.4461
   57SAPC  C210 4206   5.165   4.172   9.507 -0.6779  0.0908  0.3018
   57SAPC  H10R 4207   5.071   4.116   9.527 -0.4306 -1.0142 -1.3597
   57SAPC  H10S 4208   5.237   4.094   9.538 -0.2570 -0.2421 -1.4081
   57SAPC  C211 4209   5.194   4.195   9.358  0.0279  0.8667  0.0303
   57SAPC  H11R 4210   5.300   4.196   9.330 -0.4677 -1.8398 -2.3196
   57SAPC  C212 4211   5.116   4.226   9.255 -0.1447  0.5279 -0.3854
   57SAPC  H12R 4212   5.174   4.254   9.166  0.7392 -1.5159 -0.5114
   57SAPC  C213 4213   4.965   4.250   9.264 -0.3718  0.2104 -0.2432
   57SAPC  H13R 4214   4.932   4.332   9.197 -1.8314 -0.4373 -0.3751
   57SAPC  H13S 4215   4.938   4.299   9.360 -3.6998 -0.5533 -0.6551
   57SAPC  C214 4216   4.880   4.126   9.247  0.1341  0.8972  0.1811
   57SAPC  H14R 4217   4.844   4.087   9.344 -0.4254 -0.5552 -0.5814
   57SAPC  C215 4218   4.850   4.062   9.126  0.2379 -0.4727 -0.2939
   57SAPC  H15R 4219   4.779   3.978   9.134  0.0300 -0.5668 -2.5951
   57SAPC  C216 4220   4.885   4.092   8.983  0.6813  0.7198 -0.2379
   57SAPC  H16R 4221   4.976   4.039   8.949 -0.1248  0.1916 -1.6938
   57SAPC  H16S 4222   4.914   4.198   8.965 -2.2841  1.1789 -3.6981
   57SAPC  C217 4223   4.766   4.068   8.887  0.7829  0.7562 -0.7792
   57SAPC  H17R 4224   4.782   4.122   8.791 -1.5460  1.2275 -0.9710
   57SAPC  H17S 4225   4.685   4.129   8.932  1.7540  2.4445 -1.2253
   57SAPC  C218 4226   4.731   3.921   8.865 -0.7705 -0.2166  0.3695
   57SAPC  H18R 4227   4.706   3.876   8.964 -0.0485 -3.1507 -0.6864
   57SAPC  H18S 4228   4.813   3.872   8.809 -2.6344  0.3762 -3.1185
   57SAPC  C219 4229   4.606   3.899   8.782  0.3483  0.4357  0.2550
   57SAPC  H19R 4230   4.610   3.961   8.690 -0.5715 -1.4278 -1.1117
   57SAPC  H19S 4231   4.518   3.939   8.837  1.1725  1.6055  0.7595
   57SAPC  C220 4232   4.591   3.752   8.746  0.4983  0.3035 -0.0627
   57SAPC  H20R 4233   4.557   3.685   8.827 -0.6694  1.1484  0.1791
   57SAPC  H20S 4234   4.682   3.720   8.691  1.1573  1.7006  0.1661
   57SAPC  H20T 4235   4.514   3.746   8.666 -1.0550 -3.2051  1.4720
   57SAPC   C33 4236   5.144   3.797  10.226  0.3599 -0.9179  0.0261
   57SAPC   H3X 4237   5.250   3.788  10.194 -0.4509 -2.7798 -2.4900
   57SAPC   H3Y 4238   5.118   3.905  10.235  1.3377 -0.7676  1.2402
   57SAPC   C34 4239   5.053   3.741  10.116  0.6226 -0.2024  0.8671
   57SAPC   H4X 4240   4.946   3.738  10.146 -0.1536  1.2932 -1.4703
   57SAPC   H4Y 4241   5.083   3.636  10.099 -0.6055 -0.1084 -2.9488
   57SAPC   C35 4242   5.071   3.815   9.980 -0.4789  0.3402 -0.7457
   57SAPC   H5X 4243   5.175   3.836   9.948 -0.1735 -1.2666 -0.8846
   57SAPC   H5Y 4244   5.023   3.915   9.991 -0.5408  0.1748  0.7237
   57SAPC   C36 4245   4.996   3.738   9.873  0.3880 -0.2313 -0.4954
   57SAPC   H6X 4246   4.886   3.743   9.884  0.2756  2.4688 -1.9326
   57SAPC   H6Y 4247   5.019   3.630   9.882  0.2845 -0.2187 -0.0290
   57SAPC   C37 4248   5.036   3.780   9.733  0.0219  0.0043  0.8185
   57SAPC   H7X 4249   5.140   3.818   9.720 -0.4006  0.8783 -0.2221
   57SAPC   H7Y 4250   4.987   3.874   9.699 -0.3564 -0.3891  0.2644
   57SAPC   C38 4251   4.995   3.679   9.625  0.6537  0.2693  0.2770
   57SAPC   H8X 4252   4.891   3.648   9.647  0.3870  1.6999  1.1659
   57SAPC   H8Y 4253   5.052   3.584   9.631 -0.3696 -0.4463 -0.8500
   57SAPC   C39 4254   5.006   3.739   9.482 -0.0150  0.5406 -0.1213
   57SAPC   H9X 4255   5.110   3.769   9.459  0.5695 -2.4762 -2.1334
   57SAPC   H9Y 4256   4.943   3.829   9.468  1.6550  1.8422  0.4399
   57SAPC  C310 4257   4.985   3.640   9.360  0.6011 -1.0888 -0.3711
   57SAPC  H10X 4258   4.892   3.581   9.375  1.3755 -2.4013 -0.5933
   57SAPC  H10Y 4259   5.079   3.582   9.362  1.6864  0.5462 -1.3410
   57SAPC  C311 4260   4.963   3.721   9.236  0.5394 -0.5406  0.9544
   57SAPC  H11X 4261   5.038   3.802   9.223  0.2532 -0.3590  0.4469
   57SAPC  H11Y 4262   4.865   3.768   9.253  0.7362 -0.2878  1.4094
   57SAPC  C312 4263   4.990   3.655   9.099  0.3020 -0.6410  0.1462
   57SAPC  H12X 4264   4.987   3.739   9.026 -0.1049 -0.4968  0.3261
   57SAPC  H12Y 4265   4.896   3.605   9.068 -0.1969  0.9365 -1.0423
   57SAPC  C313 4266   5.124   3.585   9.082 -0.5280  0.3890 -0.6055
   57SAPC  H13X 4267   5.114   3.484   9.127 -0.2450 -0.5389 -2.4880
   57SAPC  H13Y 4268   5.208   3.637   9.131 -0.8983  0.1202  0.3276
   57SAPC  C314 4269   5.149   3.555   8.933 -1.4141  0.0631 -0.1175
   57SAPC  H14X 4270   5.047   3.531   8.896 -2.2464  1.0940  1.4439
   57SAPC  H14Y 4271   5.211   3.463   8.920 -1.2970 -0.0854  1.3940
   57SAPC  C315 4272   5.207   3.667   8.849 -0.0606  0.2791  0.2387
   57SAPC  H15X 4273   5.297   3.704   8.901 -1.5588 -0.0712  3.3061
   57SAPC  H15Y 4274   5.134   3.751   8.843 -0.2561  0.0252 -1.3959
   57SAPC  C316 4275   5.235   3.618   8.706  0.1394 -0.2651 -0.5898
   57SAPC  H16X 4276   5.303   3.531   8.718  1.7458  1.1550  1.3246
   57SAPC  H16Y 4277   5.296   3.698   8.659  1.9746 -0.2945  1.5616
   57SAPC  C317 4278   5.111   3.585   8.627  0.8102  0.0720 -0.1900
   57SAPC  H17X 4279   5.043   3.673   8.627  0.5782 -0.1044 -0.2756
   57SAPC  H17Y 4280   5.057   3.499   8.673 -2.0400  1.6619 -0.3046
   57SAPC  C318 4281   5.142   3.547   8.478  0.1201  0.6710  0.5482
   57SAPC  H18X 4282   5.066   3.483   8.428 -1.3381  2.0244  0.9661
   57SAPC  H18Y 4283   5.246   3.506   8.480 -0.5768 -1.2658 -0.1886
   57SAPC  H18Z 4284   5.146   3.635   8.411  0.8363  1.0038  1.0222
   58SAPC     N 4285   6.757   3.715  10.542 -0.1888  0.2319 -0.3162
   58SAPC   C12 4286   6.614   3.744  10.568  0.5876 -0.1447  0.2117
   58SAPC  H12A 4287   6.582   3.816  10.494  1.4107 -0.6297 -0.6275
   58SAPC  H12B 4288   6.615   3.806  10.656  0.9153 -1.0934  0.8864
   58SAPC   C13 4289   6.779   3.667  10.403 -0.0889  0.1086 -0.3509
   58SAPC  H13A 4290   6.886   3.650  10.401  0.0390  0.6940  0.5642
   58SAPC  H13B 4291   6.724   3.575  10.389  1.3519 -0.5868 -1.7615
   58SAPC  H13C 4292   6.764   3.740  10.325  0.8351  0.7361  0.0372
   58SAPC   C14 4293   6.839   3.844  10.563  0.1669  0.4558  0.2602
   58SAPC  H14A 4294   6.805   3.923  10.498  0.2634  0.6802  0.4808
   58SAPC  H14B 4295   6.822   3.877  10.665 -1.8711  1.5945 -0.3792
   58SAPC  H14C 4296   6.943   3.821  10.549  0.2852  0.4383  1.1047
   58SAPC   C15 4297   6.818   3.612  10.642 -0.0847 -0.5006 -0.2720
   58SAPC  H15A 4298   6.761   3.521  10.628  0.1194 -0.3464 -2.4952
   58SAPC  H15B 4299   6.921   3.594  10.618  0.5176  2.3753 -0.0915
   58SAPC  H15C 4300   6.799   3.633  10.746 -1.0096  0.9112 -0.7011
   58SAPC   C11 4301   6.510   3.626  10.585  0.0814 -0.3641  0.2779
   58SAPC  H11A 4302   6.512   3.555  10.500 -2.5494 -0.9285  0.6130
   58SAPC  H11B 4303   6.411   3.671  10.564  0.8604  1.0948 -0.4374
   58SAPC     P 4304   6.473   3.413  10.734 -0.1975  0.6195  0.2129
   58SAPC   O13 4305   6.561   3.313  10.669 -0.8927  0.0002  0.3050
   58SAPC   O14 4306   6.443   3.394  10.878  0.1412  0.4414  0.4788
   58SAPC   O12 4307   6.526   3.556  10.708  0.0027  0.7174 -0.1352
   58SAPC   O11 4308   6.331   3.406  10.665 -0.2692  0.4448  0.2358
   58SAPC    C1 4309   6.266   3.285  10.645  0.6574 -0.0668 -0.6721
   58SAPC    HA 4310   6.304   3.204  10.712  1.0463  0.9377  0.3613
   58SAPC    HB 4311   6.158   3.289  10.669  1.0487 -0.8890  1.4473
   58SAPC    C2 4312   6.279   3.240  10.493 -1.0046  0.3693 -0.2401
   58SAPC    HS 4313   6.380   3.271  10.459 -0.0054  0.0923  2.2412
   58SAPC   O21 4314   6.174   3.285  10.426 -0.5895 -0.0223  0.4954
   58SAPC   C21 4315   6.182   3.391  10.356 -0.1831 -0.0256 -0.0958
   58SAPC   O22 4316   6.286   3.444  10.325  0.5569  0.3041  0.3786
   58SAPC   C22 4317   6.040   3.439  10.302 -0.3127  0.2223  0.3040
   58SAPC   H2R 4318   6.002   3.369  10.225 -1.1984 -0.1227  1.0311
   58SAPC   H2S 4319   5.978   3.432  10.394  1.3326  1.7898  1.6134
   58SAPC    C3 4320   6.269   3.088  10.489  0.4926  0.1146  0.1348
   58SAPC    HX 4321   6.181   3.051  10.546  2.0520 -1.8229  1.3957
   58SAPC    HY 4322   6.355   3.041  10.540  1.0540  1.7059  0.7217
   58SAPC   O31 4323   6.246   3.033  10.354  0.1260 -0.4435 -0.2106
   58SAPC   C31 4324   6.354   3.053  10.278  0.0954  0.3716 -0.2046
   58SAPC   O32 4325   6.450   3.109  10.305 -0.4166  0.0932  0.1939
   58SAPC   C32 4326   6.334   2.992  10.139 -0.6695 -0.1300 -0.0188
   58SAPC   H2X 4327   6.262   2.908  10.151 -3.1798  1.9074 -0.1868
   58SAPC   H2Y 4328   6.436   2.956  10.113 -0.6857  0.1788 -0.5253
   58SAPC   C23 4329   6.051   3.580  10.240  0.0560  0.6669 -0.3469
   58SAPC   H3R 4330   6.097   3.588  10.140  0.8641 -1.2135 -0.1681
   58SAPC   H3S 4331   6.099   3.649  10.313 -0.5551 -0.0029  0.7162
   58SAPC   C24 4332   5.906   3.637  10.221 -0.0176  0.0108  0.2248
   58SAPC   H4R 4333   5.837   3.603  10.301  0.0376 -0.9959 -0.1404
   58SAPC   H4S 4334   5.864   3.593  10.128  2.7671  0.2933 -1.2919
   58SAPC   C25 4335   5.910   3.779  10.211  0.8616 -0.5956  0.0739
   58SAPC   H5R 4336   5.912   3.835  10.306 -0.6141 -2.3679  1.2240
   58SAPC   C26 4337   5.885   3.853  10.101  0.2591  0.2685 -0.6442
   58SAPC   H6R 4338   5.859   3.959  10.114 -1.9434 -0.3314  0.4025
   58SAPC   C27 4339   5.870   3.816   9.956  0.1198 -0.2166 -0.8413
   58SAPC   H7R 4340   5.762   3.820   9.930 -0.0841 -0.4039 -0.0403
   58SAPC   H7S 4341   5.890   3.707   9.954 -0.6878 -0.3801 -0.3866
   58SAPC   C28 4342   5.953   3.898   9.859  0.7501  0.0577  0.0599
   58SAPC   H8R 4343   6.028   3.966   9.902  1.0163 -0.8752  1.0928
   58SAPC   C29 4344   5.954   3.887   9.726  0.1460  0.0389 -0.0524
   58SAPC   H9R 4345   6.018   3.953   9.666  1.9702 -0.6318  1.0818
   58SAPC  C210 4346   5.858   3.797   9.648  0.1852  0.1631 -0.1796
   58SAPC  H10R 4347   5.792   3.744   9.720  0.9734 -0.7665 -0.1295
   58SAPC  H10S 4348   5.923   3.718   9.606  0.1146 -0.2877  0.5496
   58SAPC  C211 4349   5.772   3.873   9.545  0.3746  0.5083  0.6485
   58SAPC  H11R 4350   5.682   3.926   9.577 -1.0532 -0.2518 -1.9072
   58SAPC  C212 4351   5.798   3.891   9.417 -0.3299  0.6687 -0.5390
   58SAPC  H12R 4352   5.735   3.962   9.362 -0.8087 -0.3723 -1.3784
   58SAPC  C213 4353   5.919   3.853   9.341  0.1729  0.6516  0.0337
   58SAPC  H13R 4354   5.887   3.780   9.263  0.4627  0.0206  0.4904
   58SAPC  H13S 4355   6.002   3.812   9.404 -0.5629  0.2664  0.7748
   58SAPC  C214 4356   5.978   3.973   9.270 -0.1134  0.1781 -0.5593
   58SAPC  H14R 4357   5.993   4.070   9.320  1.0610  0.5644 -1.6163
   58SAPC  C215 4358   6.030   3.962   9.145  0.5889 -0.3374  0.4026
   58SAPC  H15R 4359   6.075   4.054   9.106  1.5159  0.7949  3.8272
   58SAPC  C216 4360   6.041   3.852   9.048 -0.1474 -0.0549 -0.6934
   58SAPC  H16R 4361   5.969   3.772   9.078 -0.5155  0.8158  0.8416
   58SAPC  H16S 4362   6.140   3.802   9.050 -1.0230 -1.8837 -0.6977
   58SAPC  C217 4363   6.007   3.894   8.909  0.2006  0.0345  1.1786
   58SAPC  H17R 4364   6.081   3.968   8.873 -1.3584  0.3547 -1.5931
   58SAPC  H17S 4365   5.906   3.938   8.894  0.7600  1.5168  1.5618
   58SAPC  C218 4366   6.012   3.786   8.804 -0.2387  0.4024  0.5436
   58SAPC  H18R 4367   5.943   3.701   8.821  2.2004 -1.9142 -0.3559
   58SAPC  H18S 4368   6.111   3.736   8.793 -0.2557  0.6835 -1.1481
   58SAPC  C219 4369   5.992   3.849   8.664 -0.6701 -0.5415 -0.4805
   58SAPC  H19R 4370   6.054   3.938   8.640 -0.6202 -0.7347 -1.1033
   58SAPC  H19S 4371   5.886   3.879   8.651  0.1094  2.5167 -0.6197
   58SAPC  C220 4372   6.008   3.748   8.553 -0.0155 -0.0695 -0.1973
   58SAPC  H20R 4373   6.109   3.711   8.523 -0.6317 -1.5414 -0.5668
   58SAPC  H20S 4374   5.968   3.803   8.465  1.4120  1.8741  0.3090
   58SAPC  H20T 4375   5.952   3.654   8.572  1.2025 -0.9123 -0.6331
   58SAPC   C33 4376   6.284   3.096  10.043  0.7153  0.1050 -0.0782
   58SAPC   H3X 4377   6.357   3.179  10.028 -0.1419  0.9226  0.1834
   58SAPC   H3Y 4378   6.185   3.130  10.081  1.6121  1.0276  1.5392
   58SAPC   C34 4379   6.267   3.034   9.904  0.6070 -0.0857 -0.2539
   58SAPC   H4X 4380   6.201   2.945   9.907  0.6592 -0.2468 -2.2536
   58SAPC   H4Y 4381   6.363   2.990   9.869  1.4606  1.9300 -0.6204
   58SAPC   C35 4382   6.231   3.144   9.800  0.0194  0.3868  0.3241
   58SAPC   H5X 4383   6.307   3.223   9.784  0.0025  0.0768 -1.4724
   58SAPC   H5Y 4384   6.149   3.197   9.853 -0.5999 -0.6529  0.4440
   58SAPC   C36 4385   6.205   3.084   9.659  0.4084  0.1760  0.5076
   58SAPC   H6X 4386   6.250   2.983   9.656 -0.1115 -0.0738  1.0657
   58SAPC   H6Y 4387   6.259   3.144   9.582  0.1715 -1.5444 -1.0656
   58SAPC   C37 4388   6.055   3.079   9.629  0.5480 -0.4153  0.5828
   58SAPC   H7X 4389   6.033   3.188   9.626 -1.3354 -0.7844 -0.7297
   58SAPC   H7Y 4390   5.987   3.033   9.704 -1.1128  2.3352  0.8865
   58SAPC   C38 4391   6.031   3.023   9.488  0.3979 -0.5230  0.3021
   58SAPC   H8X 4392   5.926   2.988   9.477  0.0522  0.7981 -0.8282
   58SAPC   H8Y 4393   6.103   2.940   9.471  1.6250  0.8525 -1.5378
   58SAPC   C39 4394   6.062   3.135   9.378  0.2663  0.1953  0.3418
   58SAPC   H9X 4395   6.167   3.172   9.370 -0.2264  1.2980 -2.0113
   58SAPC   H9Y 4396   6.006   3.230   9.395 -1.4244 -0.9501  1.4622
   58SAPC  C310 4397   6.025   3.085   9.238  0.0757  0.8042 -1.1190
   58SAPC  H10X 4398   5.918   3.053   9.236 -0.0117  0.2549  3.0699
   58SAPC  H10Y 4399   6.089   2.999   9.211  0.7937  1.3875 -1.3039
   58SAPC  C311 4400   6.045   3.194   9.131  0.3100  0.0120 -1.3539
   58SAPC  H11X 4401   6.150   3.226   9.148  0.1755 -0.2171 -0.0024
   58SAPC  H11Y 4402   5.976   3.278   9.156  0.1173 -0.4832 -0.1470
   58SAPC  C312 4403   6.030   3.159   8.987 -0.0296  0.1371  0.5348
   58SAPC  H12X 4404   5.924   3.141   8.962  0.4842 -1.1374 -0.9169
   58SAPC  H12Y 4405   6.083   3.069   8.949 -0.9474 -0.3561  0.3941
   58SAPC  C313 4406   6.073   3.284   8.907  0.1013 -0.6129  0.0587
   58SAPC  H13X 4407   6.183   3.276   8.897  0.2607 -0.1158  1.2400
   58SAPC  H13Y 4408   6.054   3.367   8.978 -3.1851 -0.2489 -1.0552
   58SAPC  C314 4409   6.010   3.295   8.767 -0.2476  0.1845  0.0911
   58SAPC  H14X 4410   6.016   3.200   8.709 -1.3399  0.4135 -0.4283
   58SAPC  H14Y 4411   6.069   3.362   8.701  1.7040 -2.1807 -0.7460
   58SAPC  C315 4412   5.865   3.356   8.776 -0.1430  0.2593  0.1108
   58SAPC  H15X 4413   5.871   3.440   8.849  2.0188 -0.3952  0.7603
   58SAPC  H15Y 4414   5.800   3.281   8.824  0.8657 -0.4255  0.4476
   58SAPC  C316 4415   5.815   3.391   8.641 -0.0019 -0.5150  0.0120
   58SAPC  H16X 4416   5.809   3.294   8.586  0.8614 -1.0176  0.7672
   58SAPC  H16Y 4417   5.891   3.452   8.587 -0.2291  1.3758  1.7369
   58SAPC  C317 4418   5.680   3.457   8.639  0.0676 -0.1903  0.5131
   58SAPC  H17X 4419   5.606   3.412   8.709  1.0516 -0.8125  1.1873
   58SAPC  H17Y 4420   5.642   3.450   8.534 -0.7116 -0.6034  0.8088
   58SAPC  C318 4421   5.676   3.602   8.669  0.5080 -0.2576  0.2093
   58SAPC  H18X 4422   5.732   3.622   8.763  0.6962  0.6238 -0.0795
   58SAPC  H18Y 4423   5.572   3.639   8.680  0.6893 -0.1646  1.7391
   58SAPC  H18Z 4424   5.740   3.658   8.596  1.5031 -2.2242 -0.4850
   59SAPC     N 4425   1.894   6.319  11.419 -0.2442 -0.8217  0.4699
   59SAPC   C12 4426   1.827   6.399  11.318 -0.2551 -0.3264 -0.1875
   59SAPC  H12A 4427   1.782   6.485  11.365 -3.9097 -2.2466  0.2592
   59SAPC  H12B 4428   1.738   6.351  11.278 -1.1364 -0.0606  1.3740
   59SAPC   C13 4429   1.987   6.216  11.359  0.1512  0.2781  0.1256
   59SAPC  H13A 4430   2.028   6.151  11.435 -0.4981 -1.0575 -0.6291
   59SAPC  H13B 4431   1.936   6.152  11.288  1.4431 -1.6486  0.8684
   59SAPC  H13C 4432   2.060   6.263  11.294 -1.0750  0.9449 -0.8203
   59SAPC   C14 4433   1.968   6.413  11.511 -0.0660 -0.2178  0.0454
   59SAPC  H14A 4434   2.017   6.357  11.589  0.8781  1.1849  0.4840
   59SAPC  H14B 4435   2.040   6.466  11.450 -0.2404 -0.9767 -0.8604
   59SAPC  H14C 4436   1.901   6.483  11.558  0.1471 -0.1142  0.1911
   59SAPC   C15 4437   1.796   6.246  11.500  1.0219  0.4599 -0.0823
   59SAPC  H15A 4438   1.843   6.169  11.560  0.4950 -1.0506 -1.5225
   59SAPC  H15B 4439   1.744   6.300  11.577  0.1118 -1.7044  0.9002
   59SAPC  H15C 4440   1.720   6.194  11.444  1.3233  0.7749 -0.7995
   59SAPC   C11 4441   1.907   6.437  11.195  0.8096  0.3202 -0.3260
   59SAPC  H11A 4442   1.996   6.502  11.210  0.3157  0.5781  1.7856
   59SAPC  H11B 4443   1.844   6.510  11.138 -0.9354 -0.0183  1.0781
   59SAPC     P 4444   1.836   6.290  10.990 -0.4306 -0.3592  0.4791
   59SAPC   O13 4445   1.860   6.161  10.917  0.3296 -0.7156  0.6635
   59SAPC   O14 4446   1.696   6.313  11.025  0.8607  0.2857 -0.1874
   59SAPC   O12 4447   1.941   6.324  11.109 -0.0504  0.0265 -0.1810
   59SAPC   O11 4448   1.876   6.408  10.898  0.1120 -0.3122  0.2864
   59SAPC    C1 4449   1.793   6.513  10.858  0.1193 -0.2071  0.4436
   59SAPC    HA 4450   1.718   6.546  10.933 -1.5931  1.4249 -1.8290
   59SAPC    HB 4451   1.862   6.599  10.839 -0.7520  0.3382 -0.3605
   59SAPC    C2 4452   1.725   6.479  10.716  0.3912 -0.7762  0.1885
   59SAPC    HS 4453   1.657   6.393  10.733 -0.4428 -0.1697  0.0118
   59SAPC   O21 4454   1.818   6.450  10.607  0.4530 -0.7123 -0.6557
   59SAPC   C21 4455   1.765   6.384  10.498 -0.6308 -1.1655 -0.0999
   59SAPC   O22 4456   1.652   6.334  10.489 -0.3322 -0.2915 -0.1752
   59SAPC   C22 4457   1.862   6.389  10.381  0.3251  0.7207  0.0648
   59SAPC   H2R 4458   1.861   6.482  10.320  3.1594 -0.0675 -1.3746
   59SAPC   H2S 4459   1.962   6.383  10.427  0.4460 -1.6713 -0.4050
   59SAPC    C3 4460   1.641   6.606  10.691  0.6306 -0.2588  0.5941
   59SAPC    HX 4461   1.709   6.694  10.683  2.0725 -1.2274  1.7281
   59SAPC    HY 4462   1.569   6.620  10.774 -1.2769 -0.3763 -0.9513
   59SAPC   O31 4463   1.565   6.592  10.572 -0.0476  0.2891 -0.5293
   59SAPC   C31 4464   1.460   6.516  10.589  0.0942 -0.4080  0.0810
   59SAPC   O32 4465   1.428   6.466  10.694  0.3676  0.1674  0.3700
   59SAPC   C32 4466   1.392   6.488  10.454 -0.0977 -0.6743  0.1037
   59SAPC   H2X 4467   1.298   6.547  10.448  0.7110  0.7512  0.9827
   59SAPC   H2Y 4468   1.363   6.382  10.439  1.5513 -0.8170 -3.2591
   59SAPC   C23 4469   1.856   6.259  10.290  0.0022 -0.3486  0.2184
   59SAPC   H3R 4470   1.755   6.245  10.246 -0.5005 -0.9337  1.4953
   59SAPC   H3S 4471   1.878   6.180  10.365  1.4663  0.2177  0.4171
   59SAPC   C24 4472   1.963   6.255  10.174 -0.1792 -0.2071 -0.1764
   59SAPC   H4R 4473   1.958   6.154  10.127  2.1061  1.0249 -3.4092
   59SAPC   H4S 4474   2.061   6.282  10.218 -0.1655 -1.3282  0.5318
   59SAPC   C25 4475   1.934   6.367  10.077 -0.4333  0.1112 -0.1607
   59SAPC   H5R 4476   1.957   6.466  10.118  2.2059 -0.2202 -0.6122
   59SAPC   C26 4477   1.896   6.368   9.950 -0.1630 -0.0529 -0.1391
   59SAPC   H6R 4478   1.895   6.465   9.899  1.6105  1.0197  1.7085
   59SAPC   C27 4479   1.867   6.246   9.859  0.1788 -0.3862  0.3441
   59SAPC   H7R 4480   1.769   6.253   9.809 -0.4768 -1.0352  1.4972
   59SAPC   H7S 4481   1.870   6.148   9.913 -0.8079  0.4290  1.9404
   59SAPC   C28 4482   1.977   6.247   9.751 -0.5067  0.7906 -0.2911
   59SAPC   H8R 4483   2.054   6.177   9.787 -1.2877  0.3014  0.4509
   59SAPC   C29 4484   1.998   6.318   9.639  0.4898  0.6844 -0.6497
   59SAPC   H9R 4485   2.088   6.289   9.584 -0.9541 -3.1633 -1.2852
   59SAPC  C210 4486   1.913   6.430   9.586 -0.7013 -0.5349 -0.5528
   59SAPC  H10R 4487   1.861   6.489   9.664  1.5409  0.4822  0.2316
   59SAPC  H10S 4488   1.830   6.377   9.533 -0.6944  1.0507 -2.2589
   59SAPC  C211 4489   1.990   6.518   9.490 -0.5245  0.1237  0.2616
   59SAPC  H11R 4490   2.051   6.599   9.532 -2.6488  2.2398 -0.4977
   59SAPC  C212 4491   1.987   6.517   9.355 -0.4760  0.3427  0.4187
   59SAPC  H12R 4492   2.032   6.604   9.305  0.0118  1.8234  3.2369
   59SAPC  C213 4493   1.906   6.428   9.266 -0.1616  0.0270  0.1740
   59SAPC  H13R 4494   1.822   6.496   9.239 -0.5832 -0.2024  0.8871
   59SAPC  H13S 4495   1.862   6.344   9.323  0.2015  0.3703  0.9682
   59SAPC  C214 4496   2.001   6.378   9.160 -0.0208  0.2775  0.4283
   59SAPC  H14R 4497   2.055   6.286   9.185  2.4299  1.3421 -0.5775
   59SAPC  C215 4498   2.008   6.438   9.042 -0.6279 -0.4228 -0.1364
   59SAPC  H15R 4499   2.078   6.394   8.969  0.7724  0.2584  0.7500
   59SAPC  C216 4500   1.930   6.559   8.990 -0.1922 -0.0261  0.1199
   59SAPC  H16R 4501   1.892   6.630   9.066  0.9973  0.4354  0.3073
   59SAPC  H16S 4502   1.842   6.523   8.932  0.5839 -1.6979 -0.0719
   59SAPC  C217 4503   2.014   6.643   8.888 -0.5444  0.2799  0.0543
   59SAPC  H17R 4504   2.041   6.567   8.812  0.3607 -1.0301  1.6363
   59SAPC  H17S 4505   2.110   6.676   8.933  0.3299 -3.6085  1.4762
   59SAPC  C218 4506   1.933   6.768   8.849  0.1257 -0.3298 -0.1171
   59SAPC  H18R 4507   1.961   6.852   8.917 -0.2440 -0.6720  0.4618
   59SAPC  H18S 4508   1.823   6.762   8.859 -0.2230  3.1473 -0.3705
   59SAPC  C219 4509   1.973   6.819   8.707  0.2769  0.5300  0.5046
   59SAPC  H19R 4510   1.903   6.904   8.697 -1.0673 -0.5236  0.6681
   59SAPC  H19S 4511   1.936   6.736   8.642  2.0715  0.8619 -1.0460
   59SAPC  C220 4512   2.116   6.847   8.679  0.3133 -0.3686 -0.5738
   59SAPC  H20R 4513   2.140   6.871   8.574 -0.4251 -0.1630 -0.7030
   59SAPC  H20S 4514   2.173   6.753   8.693  1.0532  0.4207  2.4515
   59SAPC  H20T 4515   2.158   6.923   8.748 -2.3810  3.8468 -3.0985
   59SAPC   C33 4516   1.490   6.519  10.334  0.3898  0.0290  0.3938
   59SAPC   H3X 4517   1.573   6.446  10.325 -0.2612 -0.5439 -1.5620
   59SAPC   H3Y 4518   1.520   6.626  10.331  3.2617 -0.7013  0.5259
   59SAPC   C34 4519   1.423   6.510  10.199 -0.3020 -0.5682  0.0056
   59SAPC   H4X 4520   1.343   6.587  10.195 -1.5057 -1.8205 -1.1037
   59SAPC   H4Y 4521   1.368   6.415  10.184 -0.3229 -0.6086  0.3205
   59SAPC   C35 4522   1.509   6.512  10.075  0.1395 -0.5031 -0.4921
   59SAPC   H5X 4523   1.594   6.440  10.080 -0.4219 -1.6107 -3.9811
   59SAPC   H5Y 4524   1.552   6.614  10.065  0.7269 -0.1091  4.0481
   59SAPC   C36 4525   1.430   6.470   9.948  0.7938  0.1059  0.5296
   59SAPC   H6X 4526   1.339   6.534   9.948  0.2766 -0.5319  2.7752
   59SAPC   H6Y 4527   1.379   6.371   9.955 -0.8016  0.9750  2.1788
   59SAPC   C37 4528   1.501   6.498   9.812 -0.5256  0.3787  0.3736
   59SAPC   H7X 4529   1.600   6.448   9.809 -0.9221 -0.4010  0.1526
   59SAPC   H7Y 4530   1.521   6.607   9.815  0.2324  0.3156 -1.3165
   59SAPC   C38 4531   1.419   6.474   9.684  0.1378 -0.8178  0.1204
   59SAPC   H8X 4532   1.328   6.538   9.689 -1.1523 -2.5563 -0.1333
   59SAPC   H8Y 4533   1.370   6.374   9.685 -1.7279  0.0054 -1.9041
   59SAPC   C39 4534   1.496   6.493   9.560  0.0617  0.3237 -0.3636
   59SAPC   H9X 4535   1.562   6.407   9.538 -0.7366 -0.9336  1.8603
   59SAPC   H9Y 4536   1.558   6.585   9.571  0.6314 -0.1466  0.3700
   59SAPC  C310 4537   1.407   6.507   9.433 -0.5846 -0.6053  0.3035
   59SAPC  H10X 4538   1.349   6.598   9.457 -0.1648  0.6215 -2.8328
   59SAPC  H10Y 4539   1.339   6.419   9.424 -0.3504 -0.7732  0.1440
   59SAPC  C311 4540   1.492   6.547   9.303 -0.1009  0.3660 -0.4059
   59SAPC  H11X 4541   1.585   6.487   9.310  0.3492  1.0363 -0.5108
   59SAPC  H11Y 4542   1.516   6.655   9.312  1.4906  0.1654 -1.8500
   59SAPC  C312 4543   1.419   6.502   9.173  0.4653 -0.3138 -0.1913
   59SAPC  H12X 4544   1.320   6.553   9.171  1.6373  2.1050 -2.5713
   59SAPC  H12Y 4545   1.386   6.396   9.164  0.2953 -0.1154 -2.6106
   59SAPC  C313 4546   1.500   6.527   9.049 -0.5576 -0.5651  0.4172
   59SAPC  H13X 4547   1.599   6.478   9.063  0.0795  0.9665  1.5882
   59SAPC  H13Y 4548   1.509   6.638   9.048  2.4033 -0.7085  1.5534
   59SAPC  C314 4549   1.440   6.486   8.911  0.3530 -0.4832  0.5323
   59SAPC  H14X 4550   1.343   6.535   8.889  0.1128 -0.7707  0.9330
   59SAPC  H14Y 4551   1.418   6.378   8.921 -1.4595 -0.3872 -1.7439
   59SAPC  C315 4552   1.534   6.517   8.789  0.7220  0.4689  0.0900
   59SAPC  H15X 4553   1.601   6.602   8.813 -0.0413  0.6723  1.6159
   59SAPC  H15Y 4554   1.468   6.554   8.708 -0.1132  3.2477  1.9234
   59SAPC  C316 4555   1.618   6.402   8.735 -0.2536 -1.0009  0.3022
   59SAPC  H16X 4556   1.558   6.321   8.689 -2.7118  1.9514 -2.0982
   59SAPC  H16Y 4557   1.682   6.364   8.818  1.1512  0.1916 -0.1863
   59SAPC  C317 4558   1.720   6.450   8.624 -0.1899  0.3916 -0.3625
   59SAPC  H17X 4559   1.768   6.542   8.664 -0.1343 -0.2647  1.1380
   59SAPC  H17Y 4560   1.659   6.467   8.533  1.0436 -1.3963 -1.5901
   59SAPC  C318 4561   1.819   6.339   8.588 -0.6208  0.4365 -0.3638
   59SAPC  H18X 4562   1.914   6.374   8.543  0.8486 -1.9744  0.6656
   59SAPC  H18Y 4563   1.781   6.262   8.518  1.1489  2.3564 -3.6699
   59SAPC  H18Z 4564   1.863   6.290   8.677  0.2082 -0.9587 -1.5023
   60SAPC     N 4565   4.072   4.010  10.759 -0.4318  0.4341  0.0986
   60SAPC   C12 4566   3.958   4.113  10.766  0.5148 -1.0074  0.8787
   60SAPC  H12A 4567   4.001   4.203  10.806  2.0442 -0.7798 -1.1252
   60SAPC  H12B 4568   3.885   4.091  10.843  1.2287 -2.2206  1.2335
   60SAPC   C13 4569   4.171   4.048  10.656 -0.0296  0.3061 -0.3581
   60SAPC  H13A 4570   4.251   3.976  10.652 -0.0007  0.1585  1.6980
   60SAPC  H13B 4571   4.131   4.041  10.556  0.9801  0.0703 -0.7511
   60SAPC  H13C 4572   4.211   4.148  10.666  3.4179 -0.9908  0.0482
   60SAPC   C14 4573   4.135   4.008  10.892  0.1340  0.1631  0.6564
   60SAPC  H14A 4574   4.196   3.919  10.897 -0.5072 -0.3807 -0.8409
   60SAPC  H14B 4575   4.200   4.093  10.907  2.0502 -1.4343  1.9706
   60SAPC  H14C 4576   4.061   4.004  10.971 -0.7427  1.9246 -0.0281
   60SAPC   C15 4577   4.019   3.875  10.728 -0.4529  0.5275 -0.0192
   60SAPC  H15A 4578   4.099   3.805  10.707 -1.3115  0.0857 -2.1287
   60SAPC  H15B 4579   3.953   3.837  10.804  0.2328 -2.1544 -0.6570
   60SAPC  H15C 4580   3.968   3.867  10.633  3.5680 -2.4586 -2.2211
   60SAPC   C11 4581   3.893   4.139  10.629 -0.5438  0.2123 -0.3638
   60SAPC  H11A 4582   3.793   4.183  10.649 -0.1475  1.0073 -0.1012
   60SAPC  H11B 4583   3.876   4.043  10.575  1.6100 -2.2160  2.9050
   60SAPC     P 4584   3.985   4.375  10.589 -0.0853  0.3333 -0.3056
   60SAPC   O13 4585   3.913   4.390  10.718 -0.4221  0.5196 -0.4500
   60SAPC   O14 4586   4.125   4.414  10.588  0.1180  0.0310 -0.5367
   60SAPC   O12 4587   3.974   4.224  10.544  0.2407  0.0491  0.4323
   60SAPC   O11 4588   3.919   4.452  10.471  0.3490 -0.0132 -0.6668
   60SAPC    C1 4589   3.815   4.401  10.393  0.1043  0.0328  0.6215
   60SAPC    HA 4590   3.766   4.306  10.423  2.1009 -1.1734  0.2024
   60SAPC    HB 4591   3.736   4.473  10.362 -0.4819 -0.7949  0.1577
   60SAPC    C2 4592   3.876   4.383  10.247 -0.3363 -0.6260  0.8065
   60SAPC    HS 4593   3.799   4.355  10.173  0.5956  0.0941 -0.4773
   60SAPC   O21 4594   3.985   4.287  10.254  0.7521  0.2369  0.1034
   60SAPC   C21 4595   3.949   4.158  10.249 -1.0107  0.2461  0.1790
   60SAPC   O22 4596   3.839   4.124  10.209 -0.2043  0.7076 -0.1806
   60SAPC   C22 4597   4.064   4.063  10.298  0.8472 -0.2134 -0.0899
   60SAPC   H2R 4598   4.133   4.132  10.352 -0.8256  1.4796 -0.0110
   60SAPC   H2S 4599   4.003   4.007  10.372  0.5284  0.3119  0.0481
   60SAPC    C3 4600   3.929   4.522  10.194  0.3884  0.2010 -0.1928
   60SAPC    HX 4601   4.023   4.548  10.246  1.9649 -2.8680 -1.2560
   60SAPC    HY 4602   3.853   4.599  10.222  1.0910  0.3929  1.2865
   60SAPC   O31 4603   3.943   4.528  10.054  0.1342 -0.2714  0.3252
   60SAPC   C31 4604   3.996   4.631  10.000 -1.0355  0.1973 -0.0968
   60SAPC   O32 4605   4.022   4.733  10.060  0.6300 -0.3236  0.0512
   60SAPC   C32 4606   4.025   4.613   9.857 -0.2191  0.7013  0.0720
   60SAPC   H2X 4607   4.023   4.506   9.825 -0.3435  0.4423  0.9207
   60SAPC   H2Y 4608   4.127   4.653   9.839  0.0781  1.0215  2.2239
   60SAPC   C23 4609   4.133   3.976  10.191 -0.4145  0.0061  0.4877
   60SAPC   H3R 4610   4.050   3.934  10.132  0.4354 -0.8595 -0.1188
   60SAPC   H3S 4611   4.176   3.884  10.237 -3.4715 -1.5519  0.4523
   60SAPC   C24 4612   4.241   4.051  10.102  0.1103 -0.3466 -0.2933
   60SAPC   H4R 4613   4.338   4.044  10.156 -1.1947 -1.1210  2.1445
   60SAPC   H4S 4614   4.221   4.159  10.121  0.5825 -0.5784  1.8459
   60SAPC   C25 4615   4.237   3.997   9.964 -0.1816 -0.4502  0.5950
   60SAPC   H5R 4616   4.231   3.888   9.955  0.4284 -0.3183 -2.8159
   60SAPC   C26 4617   4.233   4.066   9.849  0.7631  0.1932  0.2941
   60SAPC   H6R 4618   4.223   4.015   9.752 -0.0573 -0.6022  0.7804
   60SAPC   C27 4619   4.239   4.216   9.840  0.4194 -0.6374 -0.2331
   60SAPC   H7R 4620   4.266   4.259   9.938 -0.4381  0.7523 -0.5854
   60SAPC   H7S 4621   4.137   4.254   9.820  1.1146  0.6397 -1.5399
   60SAPC   C28 4622   4.319   4.274   9.725  0.0880  0.3348  0.5822
   60SAPC   H8R 4623   4.423   4.282   9.760  0.4339  1.7448 -0.6679
   60SAPC   C29 4624   4.285   4.291   9.593 -0.3701  0.1125 -0.9350
   60SAPC   H9R 4625   4.356   4.339   9.524 -0.7110  0.7136 -0.8762
   60SAPC  C210 4626   4.146   4.278   9.526  0.2026 -0.1577  0.2714
   60SAPC  H10R 4627   4.077   4.218   9.591  2.1010 -4.4581 -1.3218
   60SAPC  H10S 4628   4.165   4.220   9.434  0.2319  1.9068 -1.0834
   60SAPC  C211 4629   4.102   4.420   9.501 -0.1956  0.4596 -0.5033
   60SAPC  H11R 4630   4.133   4.496   9.575 -1.3434  0.4417  0.0090
   60SAPC  C212 4631   4.018   4.466   9.407  1.1424  0.3756 -0.3986
   60SAPC  H12R 4632   3.995   4.574   9.402 -1.5508 -0.1151 -0.1083
   60SAPC  C213 4633   3.953   4.376   9.297  0.3467 -0.4077 -0.0310
   60SAPC  H13R 4634   4.005   4.278   9.291  2.3679  0.6986 -2.3923
   60SAPC  H13S 4635   3.959   4.422   9.196  0.1621  0.5547  0.3867
   60SAPC  C214 4636   3.807   4.348   9.321 -0.2289  0.0594  0.6307
   60SAPC  H14R 4637   3.765   4.375   9.419 -0.3307 -2.0454  1.2367
   60SAPC  C215 4638   3.736   4.262   9.244 -0.9024 -0.2574 -0.4591
   60SAPC  H15R 4639   3.634   4.232   9.273 -0.2508 -1.4436  0.7061
   60SAPC  C216 4640   3.794   4.193   9.120  0.5004  0.5402  0.0037
   60SAPC  H16R 4641   3.742   4.095   9.113  0.9869  0.1276  1.5959
   60SAPC  H16S 4642   3.895   4.151   9.139 -0.3046 -0.8793  1.5096
   60SAPC  C217 4643   3.780   4.262   8.982 -0.2496  0.1854  0.1514
   60SAPC  H17R 4644   3.820   4.191   8.907 -0.3085  0.5118 -0.1912
   60SAPC  H17S 4645   3.843   4.353   8.995 -0.1243 -0.0393  1.1913
   60SAPC  C218 4646   3.640   4.312   8.942  0.0006 -0.1101 -0.2258
   60SAPC  H18R 4647   3.604   4.377   9.025  3.2120  0.3773  0.9267
   60SAPC  H18S 4648   3.571   4.226   8.950  1.7824 -1.6224 -0.3696
   60SAPC  C219 4649   3.647   4.395   8.807 -0.5101 -0.2527 -0.6695
   60SAPC  H19R 4650   3.687   4.496   8.834  2.1995 -1.2791 -0.5113
   60SAPC  H19S 4651   3.543   4.400   8.769  1.0549  0.2703 -5.6076
   60SAPC  C220 4652   3.725   4.328   8.697 -0.0215  0.1517  0.0237
   60SAPC  H20R 4653   3.732   4.401   8.613  0.0409  2.5740  1.9968
   60SAPC  H20S 4654   3.680   4.230   8.671 -0.6099  0.0032  1.5169
   60SAPC  H20T 4655   3.828   4.302   8.730 -0.2946 -1.6454 -0.4311
   60SAPC   C33 4656   3.940   4.699   9.755  0.0183  0.9716  0.6823
   60SAPC   H3X 4657   3.984   4.684   9.654  1.3076 -0.6767  1.4565
   60SAPC   H3Y 4658   3.938   4.804   9.792  0.7109  1.0563  0.4894
   60SAPC   C34 4659   3.795   4.643   9.764 -0.3094  0.3440  0.2852
   60SAPC   H4X 4660   3.756   4.657   9.867 -0.9876  0.0652  0.0708
   60SAPC   H4Y 4661   3.791   4.535   9.738 -2.4233 -0.0836  2.0776
   60SAPC   C35 4662   3.703   4.708   9.656 -0.2851  0.3974 -0.7273
   60SAPC   H5X 4663   3.613   4.643   9.662 -0.0118  0.1405  1.5836
   60SAPC   H5Y 4664   3.756   4.702   9.558 -1.2310  2.3658 -1.4108
   60SAPC   C36 4665   3.665   4.855   9.676  0.1819  0.9133 -0.0280
   60SAPC   H6X 4666   3.760   4.908   9.697  0.4104  0.2828  0.5693
   60SAPC   H6Y 4667   3.601   4.861   9.767 -3.0789 -1.7360 -1.9133
   60SAPC   C37 4668   3.595   4.917   9.560  0.4689 -0.3698 -0.0504
   60SAPC   H7X 4669   3.555   5.013   9.600  0.2453 -0.6719  0.4584
   60SAPC   H7Y 4670   3.504   4.858   9.534  2.1854 -1.9865 -2.8560
   60SAPC   C38 4671   3.684   4.923   9.436 -0.0012 -0.4062 -0.3673
   60SAPC   H8X 4672   3.709   4.821   9.402  1.6003 -0.6257  1.2988
   60SAPC   H8Y 4673   3.772   4.980   9.475 -0.0357 -1.6073  1.5717
   60SAPC   C39 4674   3.621   5.002   9.318  0.0766  0.3451 -0.5495
   60SAPC   H9X 4675   3.607   5.104   9.359 -1.5029  0.0722 -0.3539
   60SAPC   H9Y 4676   3.528   4.945   9.297  2.0799 -3.2894 -0.4216
   60SAPC  C310 4677   3.717   4.994   9.200  0.4952 -0.9120  0.1914
   60SAPC  H10X 4678   3.738   4.886   9.187 -4.0290 -2.1513  1.4054
   60SAPC  H10Y 4679   3.803   5.064   9.211  1.3379 -1.9132  0.1121
   60SAPC  C311 4680   3.645   5.036   9.067  0.1788 -0.0090 -0.2998
   60SAPC  H11X 4681   3.553   4.974   9.064 -0.6457  1.1010  1.2771
   60SAPC  H11Y 4682   3.707   5.001   8.982 -0.2196 -0.3599 -0.4494
   60SAPC  C312 4683   3.614   5.187   9.035 -0.2569 -0.1490 -1.1212
   60SAPC  H12X 4684   3.565   5.241   9.119  1.1942 -0.0172 -0.3323
   60SAPC  H12Y 4685   3.561   5.205   8.939 -2.7371  1.8235  0.4631
   60SAPC  C313 4686   3.752   5.261   9.028 -0.3423 -0.1494  0.1606
   60SAPC  H13X 4687   3.823   5.243   9.112  2.4062  0.3291 -1.8904
   60SAPC  H13Y 4688   3.732   5.369   9.011 -1.9251 -0.1584  1.7556
   60SAPC  C314 4689   3.841   5.206   8.911  0.5439 -0.1380  0.2804
   60SAPC  H14X 4690   3.784   5.187   8.817 -0.4418 -2.1398  1.2337
   60SAPC  H14Y 4691   3.887   5.113   8.949  1.7831 -0.4507 -1.8666
   60SAPC  C315 4692   3.964   5.297   8.874 -0.4058 -0.2664 -0.4742
   60SAPC  H15X 4693   4.005   5.339   8.968 -2.4919 -1.1595  0.9201
   60SAPC  H15Y 4694   3.939   5.396   8.832  0.2988  0.1560  0.0810
   60SAPC  C316 4695   4.071   5.217   8.796  0.1444 -0.0849 -0.1077
   60SAPC  H16X 4696   4.032   5.184   8.697 -0.3034  0.0788  0.0100
   60SAPC  H16Y 4697   4.093   5.126   8.855  0.5715  0.4899  0.6312
   60SAPC  C317 4698   4.195   5.291   8.774  0.2299  0.0751 -0.2495
   60SAPC  H17X 4699   4.224   5.344   8.867  1.2048 -0.1589 -0.4060
   60SAPC  H17Y 4700   4.200   5.372   8.698 -1.3715  1.1420  0.7091
   60SAPC  C318 4701   4.320   5.197   8.753  0.3522  0.3196 -0.7195
   60SAPC  H18X 4702   4.354   5.155   8.850  3.3501  0.7487 -1.4968
   60SAPC  H18Y 4703   4.404   5.258   8.715  2.3333  0.2784  3.1295
   60SAPC  H18Z 4704   4.294   5.119   8.678  1.8990 -0.2529 -0.6881
   61SAPC     N 4705   4.548   2.798  11.144 -0.0587 -0.5596 -0.1897
   61SAPC   C12 4706   4.628   2.898  11.058 -0.2049 -0.5279  0.5166
   61SAPC  H12A 4707   4.727   2.857  11.058 -0.0548 -0.1820 -0.0382
   61SAPC  H12B 4708   4.635   2.997  11.100  0.0279 -0.7399  0.9792
   61SAPC   C13 4709   4.523   2.672  11.067  0.3447 -0.4107 -0.6812
   61SAPC  H13A 4710   4.459   2.685  10.981 -0.5386 -0.3226 -0.0326
   61SAPC  H13B 4711   4.611   2.628  11.023  0.4823  1.0025 -1.8853
   61SAPC  H13C 4712   4.470   2.596  11.124  1.9823 -0.7444  0.4557
   61SAPC   C14 4713   4.619   2.764  11.273  0.6623 -0.1425  0.6735
   61SAPC  H14A 4714   4.637   2.851  11.335 -2.2077  0.5417  0.7165
   61SAPC  H14B 4715   4.554   2.698  11.329 -0.2353  2.7497  3.3611
   61SAPC  H14C 4716   4.715   2.720  11.251  2.2482  2.6551  1.4465
   61SAPC   C15 4717   4.409   2.850  11.185  0.1532 -0.0737  0.2442
   61SAPC  H15A 4718   4.359   2.897  11.101  1.0280 -1.5196 -1.1352
   61SAPC  H15B 4719   4.346   2.766  11.210  1.2898 -1.0756 -0.1942
   61SAPC  H15C 4720   4.406   2.926  11.262 -0.2162  1.1606 -0.9450
   61SAPC   C11 4721   4.583   2.905  10.907  0.4936  0.1327 -0.5843
   61SAPC  H11A 4722   4.583   2.802  10.865 -0.7209 -1.0670  2.1396
   61SAPC  H11B 4723   4.667   2.949  10.849  1.4534 -0.5118  0.2847
   61SAPC     P 4724   4.436   3.117  10.888 -0.5097  0.4475  0.1362
   61SAPC   O13 4725   4.298   3.142  10.868 -0.0992 -0.7072 -0.0493
   61SAPC   O14 4726   4.499   3.170  11.013 -0.5556 -0.1099 -0.6329
   61SAPC   O12 4727   4.458   2.959  10.882 -0.4609  0.2043 -0.0372
   61SAPC   O11 4728   4.512   3.163  10.765 -0.3271 -0.4031  0.3601
   61SAPC    C1 4729   4.500   3.122  10.632 -0.0141  0.4476  0.5647
   61SAPC    HA 4730   4.514   3.013  10.620 -2.9062 -0.0318  0.8117
   61SAPC    HB 4731   4.398   3.143  10.592 -0.4046 -1.5091  0.4743
   61SAPC    C2 4732   4.612   3.195  10.554  0.2681  0.5146 -0.5458
   61SAPC    HS 4733   4.602   3.305  10.558  0.4299  0.6257 -2.3789
   61SAPC   O21 4734   4.608   3.151  10.421  0.2151 -0.0550 -0.3469
   61SAPC   C21 4735   4.523   3.205  10.332 -0.2756  0.2308  0.0982
   61SAPC   O22 4736   4.426   3.277  10.356 -0.0614 -0.0267  0.4378
   61SAPC   C22 4737   4.565   3.157  10.186 -0.0790  0.0834 -0.3657
   61SAPC   H2R 4738   4.672   3.132  10.199 -0.3573 -0.8165  0.2372
   61SAPC   H2S 4739   4.507   3.064  10.167 -1.9748  1.2218 -0.4223
   61SAPC    C3 4740   4.759   3.165  10.610 -0.2324  0.1825  0.5227
   61SAPC    HX 4741   4.759   3.056  10.631 -2.5825 -0.0806 -0.5246
   61SAPC    HY 4742   4.760   3.219  10.707  0.7318 -0.6057  0.9680
   61SAPC   O31 4743   4.864   3.201  10.517  0.1390 -0.5541 -0.1578
   61SAPC   C31 4744   4.876   3.336  10.488  1.0023 -0.0025 -0.1108
   61SAPC   O32 4745   4.805   3.420  10.548 -0.2446 -0.2238  0.0903
   61SAPC   C32 4746   4.970   3.372  10.372 -0.2112 -0.2977 -0.2535
   61SAPC   H2X 4747   5.076   3.361  10.404 -0.6015 -1.7175  0.6304
   61SAPC   H2Y 4748   4.940   3.475  10.344 -0.9448  0.3555  2.5917
   61SAPC   C23 4749   4.523   3.256  10.064 -0.9042  0.7929 -0.6757
   61SAPC   H3R 4750   4.606   3.327  10.044 -0.9357  0.6819 -1.2008
   61SAPC   H3S 4751   4.439   3.320  10.099 -2.0097 -0.5426 -0.7764
   61SAPC   C24 4752   4.478   3.177   9.937 -0.2336  0.4256  0.2607
   61SAPC   H4R 4753   4.437   3.261   9.877  0.3464  0.0194 -0.7357
   61SAPC   H4S 4754   4.398   3.104   9.965  1.3698 -1.6420 -0.2454
   61SAPC   C25 4755   4.601   3.105   9.878 -0.4141 -0.8145  0.2631
   61SAPC   H5R 4756   4.691   3.164   9.855  0.5518 -3.4514 -3.8818
   61SAPC   C26 4757   4.614   2.975   9.845 -0.3484  0.3257  0.4259
   61SAPC   H6R 4758   4.709   2.941   9.802 -0.1783 -0.4717  1.3899
   61SAPC   C27 4759   4.516   2.862   9.865 -0.0978 -0.2860  0.3717
   61SAPC   H7R 4760   4.410   2.895   9.877 -0.1263  0.3709 -1.4107
   61SAPC   H7S 4761   4.540   2.814   9.962 -0.1306  0.1670  0.6043
   61SAPC   C28 4762   4.515   2.755   9.760 -0.5334  0.7253 -0.1028
   61SAPC   H8R 4763   4.453   2.778   9.672 -1.4699  1.7554  0.7901
   61SAPC   C29 4764   4.593   2.644   9.762 -0.3953 -0.5745  0.1056
   61SAPC   H9R 4765   4.607   2.571   9.681 -3.0914 -1.3074  0.2201
   61SAPC  C210 4766   4.688   2.620   9.877 -0.1408  0.0046  0.6118
   61SAPC  H10R 4767   4.717   2.712   9.932 -1.7885  1.9137 -1.4993
   61SAPC  H10S 4768   4.784   2.587   9.833 -0.6528  0.5825 -1.0079
   61SAPC  C211 4769   4.626   2.510   9.957  0.8935  0.6100 -0.1357
   61SAPC  H11R 4770   4.563   2.434   9.908  0.4150  0.9281 -0.0103
   61SAPC  C212 4771   4.633   2.504  10.089 -0.5324 -0.2949  1.0748
   61SAPC  H12R 4772   4.577   2.419  10.131 -1.7382 -0.0478  0.0326
   61SAPC  C213 4773   4.704   2.606  10.183 -0.0798 -0.3865  0.3164
   61SAPC  H13R 4774   4.683   2.704  10.136 -0.4863 -0.7341 -0.2512
   61SAPC  H13S 4775   4.812   2.600  10.158 -0.3222 -1.7167 -0.5598
   61SAPC  C214 4776   4.690   2.606  10.335  0.0147  0.5971 -0.5729
   61SAPC  H14R 4777   4.735   2.517  10.382  0.5163  0.3073 -1.5644
   61SAPC  C215 4778   4.643   2.702  10.413 -0.3338  0.4360 -0.1992
   61SAPC  H15R 4779   4.656   2.682  10.520 -1.9184  1.5264  0.2284
   61SAPC  C216 4780   4.593   2.830  10.366  0.1049 -0.2871 -0.6063
   61SAPC  H16R 4781   4.656   2.870  10.284  0.5751  1.5982  0.6174
   61SAPC  H16S 4782   4.593   2.899  10.453  0.2328  0.5183 -1.2387
   61SAPC  C217 4783   4.446   2.811  10.327  0.0267  0.4712 -1.0445
   61SAPC  H17R 4784   4.430   2.739  10.244  0.6812  0.2087 -0.9496
   61SAPC  H17S 4785   4.424   2.910  10.282  2.0981  0.5240 -2.0606
   61SAPC  C218 4786   4.351   2.777  10.441  0.5158  0.4680 -0.1141
   61SAPC  H18R 4787   4.375   2.833  10.534  2.0320  0.3647 -0.4215
   61SAPC  H18S 4788   4.368   2.672  10.474 -1.9252 -0.4132 -1.4332
   61SAPC  C219 4789   4.205   2.780  10.398 -0.3357 -0.0041  0.0086
   61SAPC  H19R 4790   4.147   2.734  10.481  0.2714 -0.7944  0.0115
   61SAPC  H19S 4791   4.190   2.721  10.305  0.4940  0.3498 -0.3573
   61SAPC  C220 4792   4.165   2.928  10.381 -0.6113  0.0805  0.2100
   61SAPC  H20R 4793   4.209   2.998  10.456 -2.1905  0.4926  0.7798
   61SAPC  H20S 4794   4.056   2.946  10.384 -0.9014 -1.3124 -1.1554
   61SAPC  H20T 4795   4.204   2.960  10.283  0.5492 -1.7992  0.0038
   61SAPC   C33 4796   4.962   3.269  10.247 -0.8054  0.2101 -0.9057
   61SAPC   H3X 4797   4.862   3.220  10.254 -1.0367  0.8598  1.0870
   61SAPC   H3Y 4798   5.042   3.194  10.259 -0.4887  0.8535  1.7093
   61SAPC   C34 4799   4.982   3.345  10.121  0.3908  0.2828 -0.3783
   61SAPC   H4X 4800   5.087   3.378  10.114 -0.2379  2.5556  0.1121
   61SAPC   H4Y 4801   4.914   3.433  10.116  0.9783  0.7097 -0.9120
   61SAPC   C35 4802   4.962   3.258   9.994 -0.5593 -0.4642  0.4778
   61SAPC   H5X 4803   4.859   3.215   9.988  0.7520 -3.8121 -4.3896
   61SAPC   H5Y 4804   5.012   3.159  10.007 -0.0297 -0.4373 -1.1745
   61SAPC   C36 4805   5.001   3.317   9.853  0.0358 -0.6686 -0.2751
   61SAPC   H6X 4806   5.094   3.377   9.860 -1.6898  2.1013  0.4835
   61SAPC   H6Y 4807   4.933   3.403   9.835 -0.7766 -1.0817  0.7394
   61SAPC   C37 4808   5.000   3.225   9.731 -0.2911 -0.0561 -0.0106
   61SAPC   H7X 4809   4.914   3.154   9.725 -0.1588 -0.1593 -0.8886
   61SAPC   H7Y 4810   5.085   3.153   9.731 -0.8540 -0.7496 -0.9777
   61SAPC   C38 4811   4.998   3.292   9.590 -0.4030  0.1025 -0.7076
   61SAPC   H8X 4812   5.082   3.365   9.585 -0.6876  0.3968 -1.1773
   61SAPC   H8Y 4813   4.902   3.348   9.586 -1.3974 -1.5801 -0.9295
   61SAPC   C39 4814   5.001   3.190   9.479 -0.3345  0.2086 -0.0984
   61SAPC   H9X 4815   4.922   3.116   9.504 -3.5971  3.0020 -1.4861
   61SAPC   H9Y 4816   5.095   3.131   9.484 -1.7614 -2.1431  0.8852
   61SAPC  C310 4817   4.997   3.240   9.330 -0.5520  0.3653  0.2259
   61SAPC  H10X 4818   5.093   3.291   9.305 -0.8943  0.5831 -0.6648
   61SAPC  H10Y 4819   4.912   3.308   9.311 -1.5794 -0.5439  1.3727
   61SAPC  C311 4820   4.989   3.130   9.223  0.8057  0.3274 -0.0101
   61SAPC  H11X 4821   4.910   3.059   9.254  0.1419 -0.3957 -3.0328
   61SAPC  H11Y 4822   5.083   3.071   9.219 -0.1306 -1.2256  0.3400
   61SAPC  C312 4823   4.955   3.193   9.082  0.3159  0.4036 -0.2642
   61SAPC  H12X 4824   5.048   3.236   9.039  1.3339  1.1811  2.4659
   61SAPC  H12Y 4825   4.879   3.273   9.088 -1.1956 -0.8734 -1.5732
   61SAPC  C313 4826   4.912   3.083   8.980  0.2123  0.2030 -0.6473
   61SAPC  H13X 4827   4.868   2.992   9.026  0.5789  1.2925  2.1034
   61SAPC  H13Y 4828   5.006   3.052   8.930 -0.0449 -0.3307 -0.8008
   61SAPC  C314 4829   4.805   3.147   8.888  0.6009  0.6107  0.0795
   61SAPC  H14X 4830   4.715   3.171   8.949  1.5626 -1.1318  2.3367
   61SAPC  H14Y 4831   4.768   3.065   8.823  0.3559  0.0710  0.8740
   61SAPC  C315 4832   4.852   3.258   8.797  0.0290 -0.0230  0.2350
   61SAPC  H15X 4833   4.943   3.227   8.741 -1.4511 -1.5192 -1.4768
   61SAPC  H15Y 4834   4.868   3.355   8.847 -0.7983  1.6928 -2.5997
   61SAPC  C316 4835   4.753   3.299   8.681  0.5617  0.0851 -0.3906
   61SAPC  H16X 4836   4.652   3.293   8.725  0.7649 -2.3029 -0.0714
   61SAPC  H16Y 4837   4.761   3.217   8.606  2.0864 -0.3779  0.2233
   61SAPC  C317 4838   4.785   3.426   8.610  0.5484  0.3219 -0.1396
   61SAPC  H17X 4839   4.892   3.423   8.580  0.6844 -0.5716  0.3741
   61SAPC  H17Y 4840   4.779   3.509   8.684  0.2773 -0.6897  1.0091
   61SAPC  C318 4841   4.704   3.454   8.488  0.7816 -0.5549  0.7104
   61SAPC  H18X 4842   4.752   3.541   8.437  1.5345 -1.4154 -0.0734
   61SAPC  H18Y 4843   4.600   3.484   8.514  1.4281  3.0189 -0.2314
   61SAPC  H18Z 4844   4.700   3.364   8.424 -0.9126  0.3982 -0.6159
   62SAPC     N 4845   1.352   2.342  10.567  0.0586 -0.1750 -0.1521
   62SAPC   C12 4846   1.322   2.487  10.546  0.1964  0.0157  0.4650
   62SAPC  H12A 4847   1.278   2.491  10.448  0.0970 -2.2435  0.3718
   62SAPC  H12B 4848   1.412   2.544  10.528 -0.7204  0.3001 -4.6957
   62SAPC   C13 4849   1.438   2.290  10.459  0.7130  0.4804 -0.3106
   62SAPC  H13A 4850   1.538   2.330  10.451  0.9591  0.1265  0.8034
   62SAPC  H13B 4851   1.459   2.187  10.483  0.4513  0.2692 -0.9768
   62SAPC  H13C 4852   1.387   2.302  10.365  0.4904 -0.5617 -0.3330
   62SAPC   C14 4853   1.422   2.323  10.703  0.5946  0.0696 -0.2623
   62SAPC  H14A 4854   1.363   2.389  10.765 -0.7083  1.7445 -3.0917
   62SAPC  H14B 4855   1.424   2.223  10.745  2.0311  0.9048  1.8122
   62SAPC  H14C 4856   1.523   2.361  10.693  1.2224 -1.7392 -1.3356
   62SAPC   C15 4857   1.221   2.261  10.566 -0.3613  0.1707 -0.5450
   62SAPC  H15A 4858   1.184   2.241  10.467 -0.7462 -1.3964 -0.1144
   62SAPC  H15B 4859   1.236   2.157  10.594  1.7814  1.0746  2.2276
   62SAPC  H15C 4860   1.154   2.303  10.639 -0.3996  0.0137 -0.4893
   62SAPC   C11 4861   1.237   2.566  10.643 -0.0271 -0.0288  0.3573
   62SAPC  H11A 4862   1.143   2.510  10.664  0.1880 -0.2791  0.6541
   62SAPC  H11B 4863   1.188   2.656  10.600 -0.6931  0.0477  1.2427
   62SAPC     P 4864   1.407   2.699  10.774 -0.1298 -0.5132 -0.0508
   62SAPC   O13 4865   1.322   2.822  10.796 -0.1203  0.1675  0.0286
   62SAPC   O14 4866   1.505   2.667  10.871 -0.1066  0.0053 -0.6101
   62SAPC   O12 4867   1.308   2.585  10.771  0.5462  0.4996 -0.1385
   62SAPC   O11 4868   1.471   2.699  10.627 -0.6845 -0.6521 -0.1530
   62SAPC    C1 4869   1.567   2.784  10.587 -0.1181 -0.0819 -0.0735
   62SAPC    HA 4870   1.626   2.826  10.670 -2.4804  2.6723  0.3663
   62SAPC    HB 4871   1.638   2.728  10.522 -2.1426 -0.7888 -1.8278
   62SAPC    C2 4872   1.507   2.901  10.505 -0.2913 -0.2911 -0.3397
   62SAPC    HS 4873   1.438   2.961  10.569  3.1734  1.0204  2.5489
   62SAPC   O21 4874   1.455   2.850  10.376 -0.2763 -0.0955 -0.1379
   62SAPC   C21 4875   1.335   2.892  10.349  0.0636 -0.6592 -0.0155
   62SAPC   O22 4876   1.270   2.977  10.410 -0.1882  0.4931 -0.0708
   62SAPC   C22 4877   1.284   2.813  10.231  0.7980  0.1210  0.6096
   62SAPC   H2R 4878   1.309   2.706  10.248 -0.6232 -0.2568  0.4939
   62SAPC   H2S 4879   1.174   2.823  10.244  0.5919 -0.4982 -0.5362
   62SAPC    C3 4880   1.609   3.017  10.475 -0.2461 -0.0825  0.2914
   62SAPC    HX 4881   1.646   3.074  10.563 -0.9170  2.3271 -0.9135
   62SAPC    HY 4882   1.551   3.094  10.420 -0.7296 -1.9173 -1.9684
   62SAPC   O31 4883   1.722   2.970  10.389 -0.1321  0.8759 -0.0727
   62SAPC   C31 4884   1.762   3.038  10.288  0.0562  0.1433 -0.8650
   62SAPC   O32 4885   1.718   3.152  10.260 -0.2099 -0.0086 -0.1791
   62SAPC   C32 4886   1.859   2.964  10.206  0.6548  0.4484 -0.3823
   62SAPC   H2X 4887   1.806   2.946  10.110 -0.2766 -2.3482  0.5491
   62SAPC   H2Y 4888   1.885   2.867  10.254  2.0642  2.0933  2.4304
   62SAPC   C23 4889   1.320   2.869  10.096  0.5649 -0.5867  0.3642
   62SAPC   H3R 4890   1.275   2.970  10.092 -1.9253 -1.5493  1.6976
   62SAPC   H3S 4891   1.271   2.810  10.016  2.1883  0.9129 -1.8579
   62SAPC   C24 4892   1.471   2.865  10.059  0.0226  0.1746  0.2133
   62SAPC   H4R 4893   1.493   2.760  10.030 -0.8303 -0.1565  0.7397
   62SAPC   H4S 4894   1.524   2.872  10.157  1.2248 -1.2494 -0.2979
   62SAPC   C25 4895   1.536   2.960   9.959  0.1698  0.6438 -0.5912
   62SAPC   H5R 4896   1.588   3.047  10.001  2.6457  0.7603 -3.5735
   62SAPC   C26 4897   1.519   2.952   9.829 -0.5073  0.5382 -0.9194
   62SAPC   H6R 4898   1.583   3.019   9.770  0.3130 -0.6301 -1.3893
   62SAPC   C27 4899   1.430   2.855   9.757 -0.3912 -0.0609  0.4298
   62SAPC   H7R 4900   1.380   2.784   9.826 -1.4132  0.6576  0.4396
   62SAPC   H7S 4901   1.496   2.790   9.695 -0.0367  0.4719  0.2421
   62SAPC   C28 4902   1.329   2.934   9.676  0.3281 -0.5051 -0.6189
   62SAPC   H8R 4903   1.257   2.997   9.730  0.9068 -0.2006 -0.1901
   62SAPC   C29 4904   1.327   2.940   9.546 -0.7280  0.4432  0.4816
   62SAPC   H9R 4905   1.245   3.001   9.505 -0.5465 -0.3305 -1.1303
   62SAPC  C210 4906   1.418   2.866   9.451  0.7529  0.0864 -0.1273
   62SAPC  H10R 4907   1.349   2.808   9.386  0.8665 -1.0971  0.7911
   62SAPC  H10S 4908   1.478   2.795   9.511 -3.0881 -2.3856  1.1334
   62SAPC  C211 4909   1.483   2.971   9.366 -0.2546  0.2765 -0.6753
   62SAPC  H11R 4910   1.575   3.015   9.409 -1.7152  2.0155  0.8061
   62SAPC  C212 4911   1.445   3.026   9.246 -0.7170  0.5693  0.6089
   62SAPC  H12R 4912   1.516   3.092   9.194 -2.2122 -1.1351 -4.1272
   62SAPC  C213 4913   1.332   2.990   9.153 -0.4437  0.5047  0.1614
   62SAPC  H13R 4914   1.274   2.899   9.178 -0.8945  0.4707 -0.9366
   62SAPC  H13S 4915   1.373   2.973   9.051 -2.6124 -0.9484 -0.5401
   62SAPC  C214 4916   1.236   3.100   9.150  0.4790 -0.4694 -0.1718
   62SAPC  H14R 4917   1.207   3.135   9.250  0.5509 -1.3820  0.1808
   62SAPC  C215 4918   1.180   3.173   9.047 -0.0980 -0.5352  0.0361
   62SAPC  H15R 4919   1.091   3.233   9.073  0.7723  1.4102 -1.2100
   62SAPC  C216 4920   1.213   3.135   8.907 -0.0038  0.1689  0.0039
   62SAPC  H16R 4921   1.132   3.170   8.839  0.7458 -0.3285 -1.1813
   62SAPC  H16S 4922   1.209   3.024   8.905 -0.0549  0.1399  1.0225
   62SAPC  C217 4923   1.345   3.190   8.865  0.0547  0.0855  0.0535
   62SAPC  H17R 4924   1.428   3.136   8.916 -0.4320 -1.3087 -0.5821
   62SAPC  H17S 4925   1.345   3.301   8.870 -1.9499  0.2752 -2.3179
   62SAPC  C218 4926   1.361   3.157   8.717 -0.2933  0.0515 -0.0313
   62SAPC  H18R 4927   1.280   3.210   8.663  1.6187 -0.9367 -4.2116
   62SAPC  H18S 4928   1.343   3.048   8.710 -0.4920 -0.0528  1.6372
   62SAPC  C219 4929   1.494   3.197   8.655  0.9436 -0.0630 -0.2760
   62SAPC  H19R 4930   1.498   3.305   8.683  0.2635  0.1851 -1.0914
   62SAPC  H19S 4931   1.479   3.197   8.545 -0.0427  0.7336 -0.1607
   62SAPC  C220 4932   1.619   3.131   8.702 -0.1466  0.7736  0.3734
   62SAPC  H20R 4933   1.616   3.024   8.673 -0.8046  0.6290  0.9667
   62SAPC  H20S 4934   1.634   3.139   8.811 -0.5670 -0.6894  0.5564
   62SAPC  H20T 4935   1.704   3.179   8.649  0.9863 -1.9928 -0.4917
   62SAPC   C33 4936   1.988   3.045  10.180  0.7841 -0.5509  0.4135
   62SAPC   H3X 4937   2.051   3.032  10.270 -0.7315 -1.5682  1.3830
   62SAPC   H3Y 4938   1.968   3.153  10.164  2.8676 -0.3653 -1.3838
   62SAPC   C34 4939   2.049   2.999  10.050  0.1895  0.6349  0.6103
   62SAPC   H4X 4940   1.966   2.998   9.977 -1.5537 -1.5443  2.4638
   62SAPC   H4Y 4941   2.075   2.892  10.066  0.3338  0.5786  0.0095
   62SAPC   C35 4942   2.176   3.089  10.017  0.3052  0.0135  0.0377
   62SAPC   H5X 4943   2.246   3.089  10.103  1.0706  0.1115 -0.5718
   62SAPC   H5Y 4944   2.147   3.196  10.007  0.1331 -0.1327 -1.1546
   62SAPC   C36 4945   2.242   3.051   9.891 -0.1557  0.1028  0.2206
   62SAPC   H6X 4946   2.167   3.032   9.811  1.6910  0.6948 -1.7410
   62SAPC   H6Y 4947   2.305   2.961   9.905  0.1377  0.1596 -0.6482
   62SAPC   C37 4948   2.329   3.157   9.826  0.0685 -0.0473  0.9336
   62SAPC   H7X 4949   2.408   3.191   9.896  1.3391 -0.9527 -0.0056
   62SAPC   H7Y 4950   2.272   3.250   9.807  0.9790  0.2430 -0.4814
   62SAPC   C38 4951   2.382   3.115   9.689 -0.2279  0.1863 -0.4446
   62SAPC   H8X 4952   2.440   3.020   9.686  0.3151  0.5135 -0.5118
   62SAPC   H8Y 4953   2.446   3.199   9.655  0.0702  0.4479  0.7129
   62SAPC   C39 4954   2.273   3.095   9.578 -0.2790  0.0768 -1.1340
   62SAPC   H9X 4955   2.210   3.187   9.578 -1.0558 -0.1782  3.8984
   62SAPC   H9Y 4956   2.206   3.011   9.605  0.4214 -0.8228 -2.1379
   62SAPC  C310 4957   2.336   3.086   9.436  0.0150 -0.4889 -0.1364
   62SAPC  H10X 4958   2.412   3.006   9.439  1.5944  0.9833  1.8434
   62SAPC  H10Y 4959   2.393   3.180   9.420 -1.6083  0.2250 -2.3191
   62SAPC  C311 4960   2.239   3.047   9.321 -0.0426  0.7644  0.0536
   62SAPC  H11X 4961   2.149   3.100   9.359 -0.1950 -1.3606  3.0304
   62SAPC  H11Y 4962   2.216   2.938   9.320  1.7618  0.2645  2.5815
   62SAPC  C312 4963   2.283   3.090   9.179 -0.1544 -0.1227  0.1617
   62SAPC  H12X 4964   2.199   3.066   9.111  0.9039  2.4517 -2.2529
   62SAPC  H12Y 4965   2.368   3.030   9.139 -0.7537  1.1475 -3.4166
   62SAPC  C313 4966   2.316   3.241   9.169  0.0864 -0.1241  0.3098
   62SAPC  H13X 4967   2.401   3.286   9.225 -0.3605  2.0819 -0.6856
   62SAPC  H13Y 4968   2.230   3.302   9.201 -0.4457 -0.9274  0.4339
   62SAPC  C314 4969   2.354   3.285   9.025 -0.3945 -0.6636  0.3457
   62SAPC  H14X 4970   2.299   3.225   8.949  0.0935  0.1520 -0.6708
   62SAPC  H14Y 4971   2.465   3.273   9.018 -0.4478 -1.1693  0.3353
   62SAPC  C315 4972   2.310   3.431   9.002 -0.2208 -0.2042 -0.2939
   62SAPC  H15X 4973   2.376   3.498   9.061 -1.3964 -0.0848  0.9226
   62SAPC  H15Y 4974   2.206   3.444   9.040 -0.5444  0.2814 -1.2956
   62SAPC  C316 4975   2.296   3.477   8.855 -0.1869 -0.4929  0.1954
   62SAPC  H16X 4976   2.195   3.440   8.825 -0.5732  0.6114  0.0849
   62SAPC  H16Y 4977   2.374   3.436   8.788  0.3187  1.4306 -0.4422
   62SAPC  C317 4978   2.291   3.632   8.835 -0.3019  0.3292 -0.2237
   62SAPC  H17X 4979   2.389   3.669   8.871  0.5019 -0.3470 -1.6402
   62SAPC  H17Y 4980   2.214   3.674   8.903 -3.0979 -1.3080 -2.1826
   62SAPC  C318 4981   2.260   3.678   8.694  0.3466  0.4116  0.6172
   62SAPC  H18X 4982   2.228   3.785   8.692  0.3707  0.4095  0.0119
   62SAPC  H18Y 4983   2.188   3.625   8.629  2.0197  0.4004 -1.3002
   62SAPC  H18Z 4984   2.353   3.675   8.634 -0.1143 -0.3666 -0.0786
   63SAPC     N 4985   4.972   0.709   5.820 -0.5681  0.0667  0.0921
   63SAPC   C12 4986   4.945   0.710   5.973  0.1562 -0.1365 -0.0746
   63SAPC  H12A 4987   4.962   0.607   6.002 -0.3718 -0.1158  0.3251
   63SAPC  H12B 4988   4.840   0.730   5.989 -0.1072 -1.4313 -0.0750
   63SAPC   C13 4989   4.872   0.638   5.735  0.1155  0.1629 -0.7355
   63SAPC  H13A 4990   4.875   0.532   5.755 -0.1882 -0.1056 -2.0541
   63SAPC  H13B 4991   4.773   0.673   5.759  0.1020  0.1888 -0.8278
   63SAPC  H13C 4992   4.898   0.656   5.632  2.1116 -0.3322 -0.3624
   63SAPC   C14 4993   4.981   0.846   5.773 -0.6395 -0.4448 -0.7232
   63SAPC  H14A 4994   5.056   0.905   5.824 -1.6467  0.6562 -0.4767
   63SAPC  H14B 4995   5.014   0.850   5.670  0.1152 -0.7099 -0.4988
   63SAPC  H14C 4996   4.889   0.902   5.781  1.1124  2.4880  0.3071
   63SAPC   C15 4997   5.102   0.640   5.795 -0.1737  0.4628  0.8752
   63SAPC  H15A 4998   5.123   0.656   5.691  0.5508  0.4437  1.0124
   63SAPC  H15B 4999   5.184   0.686   5.848  3.0657  0.7694 -3.8680
   63SAPC  H15C 5000   5.108   0.535   5.820  1.7152 -0.3664 -2.4781
   63SAPC   C11 5001   5.039   0.791   6.058 -0.0007  0.3028  0.2121
   63SAPC  H11A 5002   5.138   0.790   6.008 -1.7698  1.5099 -3.6519
   63SAPC  H11B 5003   5.054   0.757   6.163  0.7458  0.5882  0.2057
   63SAPC     P 5004   4.855   0.947   6.153  0.0501 -0.2392  0.4151
   63SAPC   O13 5005   4.798   1.082   6.126  0.2498  0.3583  0.3885
   63SAPC   O14 5006   4.758   0.834   6.151 -0.3678 -0.0131 -0.3304
   63SAPC   O12 5007   4.982   0.925   6.057 -0.1168 -0.1771 -0.4534
   63SAPC   O11 5008   4.929   0.957   6.292  0.3025 -0.7044  0.1954
   63SAPC    C1 5009   5.042   1.041   6.301  0.3903 -0.2499 -0.4480
   63SAPC    HA 5010   5.118   1.028   6.221  2.5025 -0.0490  1.4103
   63SAPC    HB 5011   5.003   1.144   6.289  0.2066 -0.1376  0.9105
   63SAPC    C2 5012   5.111   1.038   6.443 -0.5179  0.4425 -0.3525
   63SAPC    HS 5013   5.152   0.935   6.455  0.2572  0.8111  0.2512
   63SAPC   O21 5014   5.008   1.059   6.547  0.4343 -0.4023  0.7044
   63SAPC   C21 5015   5.023   1.004   6.665 -0.0788  0.1221  0.4849
   63SAPC   O22 5016   5.106   0.922   6.694 -0.0221 -0.3471 -0.0831
   63SAPC   C22 5017   4.935   1.090   6.760 -0.8805 -0.0535 -0.8057
   63SAPC   H2R 5018   4.953   1.199   6.746 -2.6223  0.7902  2.4195
   63SAPC   H2S 5019   4.831   1.079   6.724 -1.0887  0.6735 -0.4437
   63SAPC    C3 5020   5.222   1.148   6.455  0.2548  0.5406 -0.2155
   63SAPC    HX 5021   5.157   1.238   6.462  0.5415  0.6837  0.7528
   63SAPC    HY 5022   5.294   1.166   6.372 -0.0405 -0.8890 -0.8038
   63SAPC   O31 5023   5.285   1.139   6.586  0.3444 -0.3541 -0.1917
   63SAPC   C31 5024   5.400   1.079   6.587  0.2357  0.1765  0.0736
   63SAPC   O32 5025   5.456   1.037   6.492 -0.3902 -0.1292 -0.5396
   63SAPC   C32 5026   5.459   1.079   6.720 -0.2340 -0.4357 -0.0830
   63SAPC   H2X 5027   5.532   1.164   6.718 -1.7487  0.9442  1.0917
   63SAPC   H2Y 5028   5.523   0.988   6.729 -0.0557 -0.1651  1.6271
   63SAPC   C23 5029   4.942   1.049   6.906 -0.6075  0.0974  0.3080
   63SAPC   H3R 5030   4.982   0.946   6.913 -1.4071 -0.3093 -0.7654
   63SAPC   H3S 5031   4.837   1.049   6.944 -0.1876  4.0007  1.9261
   63SAPC   C24 5032   5.017   1.156   6.983  0.4968 -0.0078 -0.5255
   63SAPC   H4R 5033   5.114   1.185   6.936  1.4424 -1.6332  0.3128
   63SAPC   H4S 5034   5.055   1.107   7.075 -0.7413 -1.9122 -0.9612
   63SAPC   C25 5035   4.943   1.287   6.998 -0.0731  0.1176 -0.7102
   63SAPC   H5R 5036   4.935   1.350   6.908  0.7274 -1.0474 -1.6390
   63SAPC   C26 5037   4.892   1.340   7.109  0.9309  0.0065  0.9164
   63SAPC   H6R 5038   4.843   1.439   7.102  0.3970 -0.3936 -2.5973
   63SAPC   C27 5039   4.900   1.267   7.246 -0.5262  0.4694 -0.6475
   63SAPC   H7R 5040   4.916   1.157   7.244 -0.9093  0.3478  0.9739
   63SAPC   H7S 5041   4.804   1.282   7.300 -0.5840  0.0375 -0.6259
   63SAPC   C28 5042   5.012   1.310   7.334  0.0567 -0.4391  0.9544
   63SAPC   H8R 5043   5.108   1.330   7.284 -0.9718 -2.3859 -1.9879
   63SAPC   C29 5044   5.009   1.343   7.461  0.0185  0.7787 -0.4443
   63SAPC   H9R 5045   5.105   1.368   7.508 -1.0293 -0.3227  2.5228
   63SAPC  C210 5046   4.888   1.337   7.558 -0.5353  0.2305  0.1174
   63SAPC  H10R 5047   4.927   1.316   7.660 -1.1444 -0.1114  0.2837
   63SAPC  H10S 5048   4.825   1.250   7.527 -1.7216  0.6986  1.1432
   63SAPC  C211 5049   4.810   1.467   7.566 -0.3591  0.3232  0.6155
   63SAPC  H11R 5050   4.809   1.516   7.468 -1.4903 -0.6714  0.1048
   63SAPC  C212 5051   4.751   1.540   7.665 -0.3439  0.1985 -0.1795
   63SAPC  H12R 5052   4.699   1.633   7.640 -0.8704  0.1311  0.6183
   63SAPC  C213 5053   4.741   1.499   7.804 -0.3476 -0.0463 -0.4957
   63SAPC  H13R 5054   4.803   1.408   7.820  0.1699 -0.1442 -2.7477
   63SAPC  H13S 5055   4.639   1.471   7.837 -0.0588 -1.7440 -0.9588
   63SAPC  C214 5056   4.788   1.599   7.902 -0.2376  0.5942  0.2598
   63SAPC  H14R 5057   4.808   1.697   7.855  1.1907 -0.0667 -0.5919
   63SAPC  C215 5058   4.827   1.567   8.028 -0.0931  0.2598 -0.8861
   63SAPC  H15R 5059   4.847   1.638   8.111 -0.3071 -0.5294 -0.1448
   63SAPC  C216 5060   4.809   1.426   8.088 -0.2696  0.0066  0.4446
   63SAPC  H16R 5061   4.791   1.349   8.010  3.3957  0.4440 -1.0351
   63SAPC  H16S 5062   4.715   1.429   8.147  0.8730  1.8807  2.3098
   63SAPC  C217 5063   4.920   1.390   8.182  0.3877 -0.0642 -0.2565
   63SAPC  H17R 5064   4.939   1.468   8.259 -1.0857 -2.3285  2.5914
   63SAPC  H17S 5065   5.021   1.388   8.137  0.6917  0.5189  0.3826
   63SAPC  C218 5066   4.894   1.257   8.259  0.4073  0.5945  0.8365
   63SAPC  H18R 5067   4.896   1.181   8.178 -2.2646  3.2092 -1.9525
   63SAPC  H18S 5068   4.792   1.271   8.300  0.3574  5.6123 -0.3369
   63SAPC  C219 5069   5.007   1.222   8.355 -0.2743 -0.2317 -0.1221
   63SAPC  H19R 5070   5.033   1.307   8.421 -0.1152  1.1370 -1.8595
   63SAPC  H19S 5071   5.094   1.206   8.288 -0.0048  2.0813 -0.3768
   63SAPC  C220 5072   4.978   1.095   8.432 -0.5655 -0.2940 -0.7846
   63SAPC  H20R 5073   4.964   1.008   8.365 -0.9016 -1.3582  0.6059
   63SAPC  H20S 5074   4.888   1.086   8.497 -2.0623 -1.3672 -2.8870
   63SAPC  H20T 5075   5.071   1.073   8.489 -1.0376 -1.4583 -0.4097
   63SAPC   C33 5076   5.369   1.101   6.841 -0.3997  0.3121  0.3520
   63SAPC   H3X 5077   5.302   1.018   6.871 -1.0593  1.2867  1.6862
   63SAPC   H3Y 5078   5.308   1.193   6.831  2.1805  2.2063  0.8893
   63SAPC   C34 5079   5.452   1.114   6.974  0.4026  0.1235  0.5886
   63SAPC   H4X 5080   5.519   1.201   6.958 -0.8814  1.2413  1.0142
   63SAPC   H4Y 5081   5.519   1.026   6.981  0.8557  0.5273  1.4222
   63SAPC   C35 5082   5.377   1.156   7.103  0.2427  0.1482 -0.5834
   63SAPC   H5X 5083   5.300   1.078   7.119 -0.5373  1.1320  0.6399
   63SAPC   H5Y 5084   5.318   1.245   7.074 -1.6807 -1.1684 -0.8855
   63SAPC   C36 5085   5.470   1.172   7.219 -0.5265  0.1626 -0.1539
   63SAPC   H6X 5086   5.543   1.255   7.213  0.2288 -0.3652  1.3387
   63SAPC   H6Y 5087   5.529   1.078   7.225 -0.5777 -0.1667 -3.0390
   63SAPC   C37 5088   5.410   1.190   7.356 -0.1796 -0.6647  0.1133
   63SAPC   H7X 5089   5.324   1.125   7.384  2.0716 -2.4869  3.5544
   63SAPC   H7Y 5090   5.375   1.295   7.361  4.1647  0.9215  2.3467
   63SAPC   C38 5091   5.513   1.175   7.470  0.0449 -0.1122  1.4923
   63SAPC   H8X 5092   5.601   1.239   7.450  0.0242 -0.7700 -0.9508
   63SAPC   H8Y 5093   5.538   1.067   7.472 -0.7241 -0.4186 -1.3355
   63SAPC   C39 5094   5.449   1.230   7.593  0.2887  0.2089 -0.6224
   63SAPC   H9X 5095   5.401   1.328   7.577 -0.3401 -0.0892 -0.5856
   63SAPC   H9Y 5096   5.525   1.251   7.672  3.2926 -2.6146 -2.4636
   63SAPC  C310 5097   5.356   1.131   7.669  0.0215 -0.6372 -0.0646
   63SAPC  H10X 5098   5.411   1.047   7.717  1.4723 -1.4256 -2.9080
   63SAPC  H10Y 5099   5.283   1.105   7.590 -0.8451  1.1593  0.0879
   63SAPC  C311 5100   5.276   1.208   7.777 -0.1122  0.0658 -0.2039
   63SAPC  H11X 5101   5.187   1.145   7.799  0.4339 -0.4761  0.4855
   63SAPC  H11Y 5102   5.228   1.302   7.743 -0.6796  0.9074  2.6695
   63SAPC  C312 5103   5.346   1.248   7.908 -0.2387  0.6700 -0.6135
   63SAPC  H12X 5104   5.411   1.337   7.900  1.0378 -0.1025  0.6822
   63SAPC  H12Y 5105   5.405   1.159   7.939 -0.0408  0.6560 -1.0171
   63SAPC  C313 5106   5.250   1.283   8.015  0.2083  0.2891  0.4840
   63SAPC  H13X 5107   5.185   1.199   8.047  0.9673 -0.1018  1.0472
   63SAPC  H13Y 5108   5.177   1.360   7.983 -0.2517 -0.3375  0.0179
   63SAPC  C314 5109   5.326   1.319   8.144 -0.0389  0.0956 -0.4879
   63SAPC  H14X 5110   5.256   1.388   8.196  0.8075  1.8734 -1.6053
   63SAPC  H14Y 5111   5.422   1.372   8.125  0.4520 -0.6685 -0.1886
   63SAPC  C315 5112   5.362   1.195   8.215  0.8322 -0.1393  0.3354
   63SAPC  H15X 5113   5.440   1.131   8.169 -0.1056 -1.7263  0.8959
   63SAPC  H15Y 5114   5.275   1.126   8.228 -0.2960  0.9570 -0.9823
   63SAPC  C316 5115   5.416   1.212   8.349 -0.2505 -0.1416 -0.3153
   63SAPC  H16X 5116   5.361   1.291   8.405 -0.9869 -1.1736  0.4653
   63SAPC  H16Y 5117   5.522   1.245   8.354 -1.0204  2.9032 -1.4446
   63SAPC  C317 5118   5.407   1.078   8.434  0.0059 -0.2966  0.5917
   63SAPC  H17X 5119   5.301   1.044   8.434  0.0311 -0.3764  0.3820
   63SAPC  H17Y 5120   5.439   1.103   8.538 -1.4690  0.6528  0.8568
   63SAPC  C318 5121   5.492   0.961   8.386 -0.8094  0.2162 -0.1108
   63SAPC  H18X 5122   5.448   0.923   8.291  2.1189 -0.2841 -1.3964
   63SAPC  H18Y 5123   5.490   0.879   8.461 -0.0323 -1.6092 -1.9616
   63SAPC  H18Z 5124   5.594   1.005   8.381  0.2411 -1.7247  2.0328
   64SAPC     N 5125   3.341   2.405   6.051 -0.2906  0.1335 -0.2937
   64SAPC   C12 5126   3.207   2.333   6.061 -0.2037  0.0852  0.0996
   64SAPC  H12A 5127   3.221   2.252   6.131  0.3124  1.6913  1.9472
   64SAPC  H12B 5128   3.192   2.292   5.963  0.0100  1.5509 -0.5707
   64SAPC   C13 5129   3.338   2.486   5.924  0.2165 -0.0402 -0.4174
   64SAPC  H13A 5130   3.332   2.417   5.841  1.3011  0.3533 -0.8531
   64SAPC  H13B 5131   3.253   2.551   5.918  1.5850  1.7787 -0.8825
   64SAPC  H13C 5132   3.429   2.543   5.914  0.9302 -0.5035  2.5062
   64SAPC   C14 5133   3.339   2.495   6.169  0.0702 -0.5550 -0.1711
   64SAPC  H14A 5134   3.417   2.570   6.169  1.0940 -1.5919  0.6491
   64SAPC  H14B 5135   3.246   2.550   6.170  0.9003  1.0201 -1.9383
   64SAPC  H14C 5136   3.349   2.437   6.259 -1.5411  0.3613  0.6485
   64SAPC   C15 5137   3.454   2.311   6.046 -0.1484 -0.1541 -0.0391
   64SAPC  H15A 5138   3.470   2.268   5.948 -0.1248 -0.7938  0.2481
   64SAPC  H15B 5139   3.543   2.367   6.070  1.6554 -2.5574 -0.7765
   64SAPC  H15C 5140   3.444   2.234   6.120 -1.7151 -0.4704 -0.5264
   64SAPC   C11 5141   3.083   2.411   6.111 -0.6468  0.3232  0.2099
   64SAPC  H11A 5142   3.094   2.412   6.221  1.2536 -0.2135  0.0692
   64SAPC  H11B 5143   2.998   2.343   6.092 -0.8056  0.3398  0.8518
   64SAPC     P 5144   3.001   2.660   6.124 -0.2999 -0.0231 -0.0944
   64SAPC   O13 5145   3.007   2.779   6.035 -0.3407 -0.0185 -0.0306
   64SAPC   O14 5146   2.871   2.612   6.176 -0.0189 -0.3050 -0.5755
   64SAPC   O12 5147   3.070   2.536   6.052  0.4016  0.2661  0.2103
   64SAPC   O11 5148   3.095   2.686   6.249  0.5096 -0.6018 -0.5302
   64SAPC    C1 5149   3.034   2.754   6.359 -0.3133 -0.0105  0.0294
   64SAPC    HA 5150   3.009   2.859   6.333 -0.7141 -0.0480  0.2683
   64SAPC    HB 5151   2.956   2.694   6.410 -0.0473 -0.3360  0.0584
   64SAPC    C2 5152   3.139   2.783   6.470  0.4379 -0.8208  0.6166
   64SAPC    HS 5153   3.220   2.843   6.422 -1.6653 -0.0435 -2.2793
   64SAPC   O21 5154   3.190   2.661   6.536  0.6684 -0.2929  0.3721
   64SAPC   C21 5155   3.294   2.686   6.606 -0.1854 -0.0201 -0.4471
   64SAPC   O22 5156   3.348   2.792   6.631 -0.3082  0.1436 -0.1045
   64SAPC   C22 5157   3.346   2.563   6.679 -0.1966 -0.0443 -0.7144
   64SAPC   H2R 5158   3.264   2.508   6.728  1.1230  0.0295  1.7213
   64SAPC   H2S 5159   3.385   2.490   6.605  1.5047 -0.1298  0.2040
   64SAPC    C3 5160   3.065   2.861   6.580  0.6107 -0.0616  0.0717
   64SAPC    HX 5161   3.023   2.958   6.544  1.5035  1.1912  2.1972
   64SAPC    HY 5162   3.126   2.889   6.668 -0.1758  0.4838  0.4592
   64SAPC   O31 5163   2.946   2.788   6.617 -0.8841  0.3202 -0.3045
   64SAPC   C31 5164   2.958   2.710   6.725 -0.0057 -0.1122 -0.9004
   64SAPC   O32 5165   3.059   2.693   6.792  0.2692  0.0224 -0.5018
   64SAPC   C32 5166   2.817   2.658   6.762 -0.1809 -0.0557 -0.0700
   64SAPC   H2X 5167   2.818   2.556   6.719  2.9634  0.6359 -1.9861
   64SAPC   H2Y 5168   2.747   2.723   6.706  0.1261  0.1267 -0.2478
   64SAPC   C23 5169   3.458   2.591   6.783 -0.4377  0.1553 -0.1198
   64SAPC   H3R 5170   3.431   2.669   6.856 -0.0937  0.1692 -0.0051
   64SAPC   H3S 5171   3.537   2.650   6.731 -1.3735  1.1990 -0.3881
   64SAPC   C24 5172   3.536   2.467   6.844  0.5695  0.1827 -0.1335
   64SAPC   H4R 5173   3.632   2.511   6.879 -0.8582  2.8523  0.7269
   64SAPC   H4S 5174   3.568   2.402   6.760 -0.6413 -0.2337 -0.2936
   64SAPC   C25 5175   3.458   2.383   6.950  0.5457 -0.7288  0.1437
   64SAPC   H5R 5176   3.357   2.362   6.912 -0.0974 -1.0074  1.8769
   64SAPC   C26 5177   3.487   2.365   7.077 -0.2467  0.2028  0.0241
   64SAPC   H6R 5178   3.414   2.308   7.137  0.5920  0.1066  0.9694
   64SAPC   C27 5179   3.601   2.420   7.159 -0.8115  0.5242  0.1645
   64SAPC   H7R 5180   3.571   2.515   7.208 -2.4374  0.0148  0.2394
   64SAPC   H7S 5181   3.687   2.447   7.095 -2.1729 -0.7030 -2.3237
   64SAPC   C28 5182   3.660   2.341   7.271 -0.6769  0.2915  0.0860
   64SAPC   H8R 5183   3.748   2.277   7.253  0.0368  0.1979  3.3637
   64SAPC   C29 5184   3.628   2.335   7.401 -0.2499 -0.6060  0.6248
   64SAPC   H9R 5185   3.670   2.250   7.456 -0.9011 -0.7434  0.9269
   64SAPC  C210 5186   3.517   2.407   7.478 -0.3392 -0.2985 -0.0114
   64SAPC  H10R 5187   3.484   2.496   7.421 -0.8183 -1.0962 -1.0104
   64SAPC  H10S 5188   3.556   2.436   7.578  0.7739 -1.2732 -0.1335
   64SAPC  C211 5189   3.407   2.305   7.496  0.1303 -0.0267 -0.2223
   64SAPC  H11R 5190   3.362   2.276   7.399  1.6139  0.6744 -1.1590
   64SAPC  C212 5191   3.355   2.251   7.606 -0.0816  0.7258  0.2686
   64SAPC  H12R 5192   3.269   2.183   7.599  0.4576 -0.1062  1.4048
   64SAPC  C213 5193   3.397   2.267   7.749 -0.3111  0.1756  0.1657
   64SAPC  H13R 5194   3.350   2.188   7.812  2.7599 -0.9521  1.2924
   64SAPC  H13S 5195   3.358   2.368   7.773 -0.7688  0.9483 -3.3654
   64SAPC  C214 5196   3.542   2.257   7.788 -0.3969 -0.8664  0.5751
   64SAPC  H14R 5197   3.624   2.247   7.715  0.2005 -4.2411  1.5404
   64SAPC  C215 5198   3.569   2.268   7.914  0.6381  0.3992  0.0736
   64SAPC  H15R 5199   3.674   2.243   7.939  0.8357  0.7420 -0.4083
   64SAPC  C216 5200   3.482   2.279   8.041  0.2761 -0.1917 -0.1547
   64SAPC  H16R 5201   3.375   2.307   8.028 -0.5645 -2.3189  1.5529
   64SAPC  H16S 5202   3.524   2.352   8.114  2.9196 -1.3477 -0.4380
   64SAPC  C217 5203   3.471   2.136   8.100  0.0504 -0.9532  0.1470
   64SAPC  H17R 5204   3.569   2.087   8.121 -0.5319 -2.1325  0.1254
   64SAPC  H17S 5205   3.426   2.081   8.016 -1.7566  1.1176 -0.3316
   64SAPC  C218 5206   3.366   2.131   8.215 -0.1160  0.3348 -0.7095
   64SAPC  H18R 5207   3.272   2.183   8.185 -1.8853 -1.7546  0.9158
   64SAPC  H18S 5208   3.405   2.195   8.298 -3.1572  0.5800  0.6495
   64SAPC  C219 5209   3.343   2.003   8.291  0.1116 -0.1780  0.1194
   64SAPC  H19R 5210   3.447   1.978   8.323  0.4702 -1.3085 -1.7685
   64SAPC  H19S 5211   3.295   1.919   8.238 -3.5683  1.4004  0.6405
   64SAPC  C220 5212   3.269   2.036   8.416  0.2752 -0.0078 -0.2652
   64SAPC  H20R 5213   3.259   1.947   8.483 -1.5992 -0.7847 -1.4872
   64SAPC  H20S 5214   3.167   2.064   8.383  0.1701  1.0984  0.9080
   64SAPC  H20T 5215   3.315   2.125   8.464  1.2403 -0.2233 -0.7695
   64SAPC   C33 5216   2.798   2.628   6.913 -0.5083  0.5584  0.6104
   64SAPC   H3X 5217   2.889   2.573   6.944 -0.3056  0.8186  0.4907
   64SAPC   H3Y 5218   2.707   2.571   6.938 -0.5842  0.9764  1.3180
   64SAPC   C34 5219   2.794   2.756   6.987  0.3729 -0.1086  0.4462
   64SAPC   H4X 5220   2.711   2.822   6.952 -1.3794 -1.5502  1.6320
   64SAPC   H4Y 5221   2.889   2.813   6.988  1.2918 -1.5255 -0.8715
   64SAPC   C35 5222   2.758   2.735   7.135 -0.1431 -0.3771  0.1099
   64SAPC   H5X 5223   2.838   2.691   7.198 -0.9792  0.6907  2.0057
   64SAPC   H5Y 5224   2.676   2.660   7.130  1.3622 -2.0871  0.0918
   64SAPC   C36 5225   2.696   2.866   7.195  0.5457  0.1588  0.2411
   64SAPC   H6X 5226   2.612   2.881   7.124 -0.9527  0.2053  1.9674
   64SAPC   H6Y 5227   2.766   2.952   7.196 -2.4836  2.7798  0.0141
   64SAPC   C37 5228   2.643   2.845   7.345 -0.6045 -0.5559 -0.2771
   64SAPC   H7X 5229   2.581   2.754   7.360 -0.8808 -0.4481 -0.7647
   64SAPC   H7Y 5230   2.582   2.932   7.378  0.0148 -0.6460  1.1975
   64SAPC   C38 5231   2.757   2.826   7.446 -0.3370 -0.3087  0.2702
   64SAPC   H8X 5232   2.819   2.918   7.447 -1.0976  0.3064 -2.2181
   64SAPC   H8Y 5233   2.821   2.739   7.419  0.0205  0.6168 -2.1507
   64SAPC   C39 5234   2.707   2.792   7.587 -0.2588  0.1812  0.0140
   64SAPC   H9X 5235   2.676   2.686   7.584  0.1396  0.0693 -0.1552
   64SAPC   H9Y 5236   2.618   2.858   7.599 -0.3783  0.1734 -0.7839
   64SAPC  C310 5237   2.804   2.817   7.709 -0.1336 -0.8910  0.0052
   64SAPC  H10X 5238   2.851   2.917   7.701 -0.1368 -1.0074 -1.9781
   64SAPC  H10Y 5239   2.879   2.735   7.701  0.9274 -0.0805  1.2259
   64SAPC  C311 5240   2.734   2.791   7.847  0.7459  0.0071 -0.4227
   64SAPC  H11X 5241   2.686   2.692   7.859 -0.5321  0.7638  1.1982
   64SAPC  H11Y 5242   2.641   2.851   7.844  1.0645  0.8163  2.6281
   64SAPC  C312 5243   2.821   2.833   7.969 -0.0628  0.4151  0.1155
   64SAPC  H12X 5244   2.789   2.935   7.997 -2.1992  0.3254 -1.7341
   64SAPC  H12Y 5245   2.927   2.830   7.936  0.0817 -2.2050  0.6231
   64SAPC  C313 5246   2.802   2.739   8.096  0.8394 -0.2974  0.1884
   64SAPC  H13X 5247   2.829   2.641   8.052 -1.3242 -0.7107 -0.3201
   64SAPC  H13Y 5248   2.697   2.731   8.129  0.2181  1.0891 -1.3329
   64SAPC  C314 5249   2.898   2.781   8.208 -0.3849  0.0764 -0.5716
   64SAPC  H14X 5250   2.885   2.886   8.241  0.3152  0.0707 -0.2584
   64SAPC  H14Y 5251   3.002   2.782   8.168 -0.4264 -0.3030 -0.6965
   64SAPC  C315 5252   2.892   2.689   8.333  0.3034 -0.7020  0.7140
   64SAPC  H15X 5253   2.924   2.590   8.295  3.2110  0.5526 -0.3209
   64SAPC  H15Y 5254   2.789   2.691   8.376 -0.0609  1.7195 -0.1116
   64SAPC  C316 5255   2.973   2.743   8.446 -0.0779  0.3152  0.0131
   64SAPC  H16X 5256   2.908   2.828   8.476 -0.4677  0.6808 -1.7623
   64SAPC  H16Y 5257   3.064   2.785   8.398 -0.4843  0.8336 -0.3230
   64SAPC  C317 5258   3.004   2.642   8.561 -0.3049  0.3397 -0.6074
   64SAPC  H17X 5259   2.916   2.589   8.603 -0.4902  1.1061  0.0031
   64SAPC  H17Y 5260   3.045   2.710   8.639 -0.8406  0.8788 -0.7856
   64SAPC  C318 5261   3.119   2.553   8.531  0.0811 -0.5533  0.2631
   64SAPC  H18X 5262   3.167   2.518   8.624 -0.5897 -0.2845  0.7183
   64SAPC  H18Y 5263   3.210   2.602   8.488 -0.2373 -1.1355 -1.1366
   64SAPC  H18Z 5264   3.101   2.460   8.473  2.8342 -0.5377 -0.8134
   65SAPC     N 5265   2.713   3.101   6.180  0.0907  1.0228 -0.1130
   65SAPC   C12 5266   2.637   3.110   6.042 -0.5416 -0.5177 -0.5597
   65SAPC  H12A 5267   2.706   3.080   5.964 -1.1513  2.0459 -2.1970
   65SAPC  H12B 5268   2.612   3.213   6.026 -0.1720 -0.3189  0.1027
   65SAPC   C13 5269   2.826   3.196   6.183  0.2272  0.4799 -0.0406
   65SAPC  H13A 5270   2.802   3.301   6.189  4.7008  1.6957 -0.3481
   65SAPC  H13B 5271   2.885   3.189   6.273 -1.2774  0.7768  1.0173
   65SAPC  H13C 5272   2.894   3.176   6.102  1.6429  1.5797  0.8372
   65SAPC   C14 5273   2.620   3.127   6.292  0.7132  0.3855  0.0207
   65SAPC  H14A 5274   2.604   3.234   6.303  1.9915  0.4877  1.1025
   65SAPC  H14B 5275   2.527   3.085   6.255 -0.2828  1.7127  0.9114
   65SAPC  H14C 5276   2.650   3.074   6.381 -1.2857  0.4492  0.7860
   65SAPC   C15 5277   2.777   2.965   6.183 -0.2194 -0.7677 -0.2937
   65SAPC  H15A 5278   2.817   2.937   6.280 -1.9010 -1.3441  0.2774
   65SAPC  H15B 5279   2.697   2.895   6.168 -1.3049  0.4065 -0.1111
   65SAPC  H15C 5280   2.846   2.959   6.100 -0.0746  1.0991 -0.3437
   65SAPC   C11 5281   2.507   3.037   6.028 -0.2097 -0.2032  0.5742
   65SAPC  H11A 5282   2.511   2.932   6.063 -1.2067 -1.5174 -2.9023
   65SAPC  H11B 5283   2.488   3.026   5.919 -2.4555 -0.7257  0.9706
   65SAPC     P 5284   2.255   3.046   6.121  0.1623 -0.5904 -0.1806
   65SAPC   O13 5285   2.151   3.147   6.111  0.5043  0.3414 -0.0073
   65SAPC   O14 5286   2.243   2.920   6.047 -0.0639  0.1594  0.6495
   65SAPC   O12 5287   2.393   3.118   6.087  0.5218  0.0880 -0.1488
   65SAPC   O11 5288   2.284   3.011   6.271  0.3452  0.0090  0.4234
   65SAPC    C1 5289   2.293   3.126   6.367  0.1157  0.0762  0.0683
   65SAPC    HA 5290   2.385   3.104   6.425 -1.7375 -3.8591  1.8995
   65SAPC    HB 5291   2.281   3.223   6.315 -0.2581 -0.2223 -0.4148
   65SAPC    C2 5292   2.171   3.119   6.464 -0.4529  0.1747 -0.1520
   65SAPC    HS 5293   2.186   3.192   6.547  0.8305 -0.4796  0.2192
   65SAPC   O21 5294   2.163   2.978   6.504  0.1068  0.1698  0.3357
   65SAPC   C21 5295   2.245   2.935   6.590 -0.4265  0.3359 -0.7053
   65SAPC   O22 5296   2.337   3.004   6.638  0.0251  0.4122  0.0181
   65SAPC   C22 5297   2.227   2.786   6.623  0.7269 -0.2389  0.0665
   65SAPC   H2R 5298   2.117   2.770   6.628  0.8516 -0.7918  1.9184
   65SAPC   H2S 5299   2.273   2.733   6.537  0.7877  0.8799 -0.6142
   65SAPC    C3 5300   2.040   3.160   6.389  0.3247  0.0291 -0.6938
   65SAPC    HX 5301   2.005   3.073   6.329 -1.6363  1.2031 -1.3758
   65SAPC    HY 5302   2.068   3.249   6.329 -0.3760  2.8814  2.8853
   65SAPC   O31 5303   1.937   3.195   6.480 -0.3630 -0.1574  0.0817
   65SAPC   C31 5304   1.934   3.323   6.529  0.4742  0.0278 -0.2393
   65SAPC   O32 5305   2.002   3.413   6.488 -0.0884  0.3801  0.0493
   65SAPC   C32 5306   1.824   3.328   6.631 -0.1614  0.5833  0.0815
   65SAPC   H2X 5307   1.833   3.243   6.702 -0.0460 -0.0080 -0.6195
   65SAPC   H2Y 5308   1.733   3.321   6.567 -0.5745  0.7102  0.6494
   65SAPC   C23 5309   2.291   2.753   6.759  0.2124  0.4601  0.3096
   65SAPC   H3R 5310   2.240   2.827   6.824 -0.3171  0.3787 -0.0072
   65SAPC   H3S 5311   2.399   2.780   6.754  0.4352 -0.5976 -2.1827
   65SAPC   C24 5312   2.273   2.607   6.801 -0.0620  0.0617 -1.2021
   65SAPC   H4R 5313   2.351   2.570   6.872 -1.8170 -2.3417 -0.4106
   65SAPC   H4S 5314   2.264   2.544   6.710 -0.8451 -0.7853 -0.5654
   65SAPC   C25 5315   2.138   2.598   6.874  0.8156  0.3749  0.2519
   65SAPC   H5R 5316   2.055   2.613   6.803  0.4069 -0.5586  0.5163
   65SAPC   C26 5317   2.117   2.563   7.004 -0.1866 -0.5895  0.3546
   65SAPC   H6R 5318   2.012   2.552   7.033 -1.1058 -0.4480 -2.5639
   65SAPC   C27 5319   2.216   2.544   7.116  0.0076 -0.3826  0.5173
   65SAPC   H7R 5320   2.291   2.470   7.081  0.6393  0.6697 -0.3946
   65SAPC   H7S 5321   2.165   2.494   7.202 -1.6371  2.1778  1.1371
   65SAPC   C28 5322   2.278   2.667   7.169 -0.2039 -0.3711 -0.8234
   65SAPC   H8R 5323   2.282   2.750   7.096 -0.6179 -0.8246 -1.3687
   65SAPC   C29 5324   2.325   2.688   7.299 -0.7235  0.3311 -0.6708
   65SAPC   H9R 5325   2.371   2.785   7.325 -0.3045 -0.3653  1.3549
   65SAPC  C210 5326   2.343   2.589   7.414 -0.1335  0.0760 -0.0866
   65SAPC  H10R 5327   2.242   2.563   7.454  1.1796 -0.8150  2.9407
   65SAPC  H10S 5328   2.400   2.644   7.493  0.5799  0.5124 -0.8960
   65SAPC  C211 5329   2.416   2.459   7.373 -0.2489 -0.6381  0.1644
   65SAPC  H11R 5330   2.397   2.416   7.274 -0.6078 -1.4745  0.5870
   65SAPC  C212 5331   2.493   2.385   7.453 -0.1193  0.2859  0.5500
   65SAPC  H12R 5332   2.545   2.301   7.405 -1.3003  1.4985 -3.2825
   65SAPC  C213 5333   2.519   2.401   7.601  0.0293  0.0529  0.0163
   65SAPC  H13R 5334   2.425   2.421   7.657  1.2250  0.3265  2.0110
   65SAPC  H13S 5335   2.585   2.489   7.614  1.0843 -0.7199 -0.0197
   65SAPC  C214 5336   2.599   2.287   7.669 -0.3355  0.7780  0.2444
   65SAPC  H14R 5337   2.651   2.218   7.601 -0.9814  0.4097  0.1184
   65SAPC  C215 5338   2.613   2.268   7.800 -0.1942  0.0772  1.2895
   65SAPC  H15R 5339   2.683   2.193   7.839  2.3643  1.8411  0.3244
   65SAPC  C216 5340   2.550   2.350   7.904 -0.4167  0.4493  0.1098
   65SAPC  H16R 5341   2.441   2.361   7.889 -0.5697  0.9845  1.4964
   65SAPC  H16S 5342   2.594   2.452   7.914  0.8516 -0.1548  0.8891
   65SAPC  C217 5343   2.593   2.286   8.041  0.0491 -0.1990 -0.1383
   65SAPC  H17R 5344   2.704   2.291   8.042  0.0528 -0.1464 -0.5247
   65SAPC  H17S 5345   2.556   2.182   8.048  0.5633 -0.2740  1.9829
   65SAPC  C218 5346   2.513   2.356   8.154 -0.6936  0.0137  0.3596
   65SAPC  H18R 5347   2.409   2.369   8.117 -0.5084 -1.8979 -1.0014
   65SAPC  H18S 5348   2.549   2.458   8.178 -0.9593  0.3194 -0.5015
   65SAPC  C219 5349   2.495   2.279   8.292  0.0938 -0.1347  0.4045
   65SAPC  H19R 5350   2.538   2.342   8.373 -0.0978 -0.2921  0.6270
   65SAPC  H19S 5351   2.553   2.185   8.286 -0.9591 -0.7258 -1.2385
   65SAPC  C220 5352   2.349   2.241   8.321  0.0599  0.4671  0.5115
   65SAPC  H20R 5353   2.342   2.185   8.417  2.1249 -1.3879 -0.3388
   65SAPC  H20S 5354   2.308   2.177   8.241 -1.5226  1.6903  0.2850
   65SAPC  H20T 5355   2.271   2.319   8.338  0.4099  0.8117  0.5661
   65SAPC   C33 5356   1.823   3.458   6.719  0.5309 -0.0687  0.3025
   65SAPC   H3X 5357   1.840   3.546   6.652  1.0213 -1.0486 -0.9165
   65SAPC   H3Y 5358   1.912   3.450   6.786  1.6000 -0.5166 -1.1040
   65SAPC   C34 5359   1.693   3.453   6.802 -1.2407  0.6470 -0.4390
   65SAPC   H4X 5360   1.605   3.450   6.734  0.0433 -1.3285 -2.1381
   65SAPC   H4Y 5361   1.686   3.553   6.850 -0.2679  0.9078 -0.8110
   65SAPC   C35 5362   1.700   3.338   6.905  0.3022 -0.0516 -0.3572
   65SAPC   H5X 5363   1.798   3.289   6.926  1.5220  2.2374 -0.3780
   65SAPC   H5Y 5364   1.640   3.258   6.856 -0.6827  0.4723 -0.0345
   65SAPC   C36 5365   1.636   3.373   7.043  0.4072  0.2631 -0.1195
   65SAPC   H6X 5366   1.526   3.385   7.027  0.5434  0.6215 -0.8112
   65SAPC   H6Y 5367   1.683   3.463   7.089  0.8903 -0.2117  0.3339
   65SAPC   C37 5368   1.658   3.246   7.134  0.0916  0.3801 -0.5168
   65SAPC   H7X 5369   1.764   3.222   7.152 -0.0285  0.5683  0.5021
   65SAPC   H7Y 5370   1.602   3.158   7.096 -0.7822 -0.1367  1.7890
   65SAPC   C38 5371   1.611   3.287   7.271  0.0122  0.0761 -0.0816
   65SAPC   H8X 5372   1.501   3.293   7.266 -0.3615 -3.5995  0.6217
   65SAPC   H8Y 5373   1.660   3.385   7.291  3.0403 -1.4344  0.4844
   65SAPC   C39 5374   1.648   3.193   7.387  0.3029 -0.3837  0.0100
   65SAPC   H9X 5375   1.758   3.178   7.394  0.1356 -1.8214  0.0222
   65SAPC   H9Y 5376   1.601   3.094   7.367 -0.0750 -0.1505 -0.2628
   65SAPC  C310 5377   1.600   3.241   7.528  0.0100 -0.0653 -0.4523
   65SAPC  H10X 5378   1.503   3.296   7.521  0.1055  0.1294 -0.2346
   65SAPC  H10Y 5379   1.673   3.316   7.564 -1.3906  0.7261  0.8563
   65SAPC  C311 5380   1.596   3.128   7.635 -0.6457 -0.1048 -0.2925
   65SAPC  H11X 5381   1.703   3.110   7.656 -0.0255  0.5643 -2.5679
   65SAPC  H11Y 5382   1.551   3.038   7.587  0.4667  0.9995 -3.7809
   65SAPC  C312 5383   1.517   3.159   7.756 -0.0428  0.0205 -0.0973
   65SAPC  H12X 5384   1.411   3.182   7.732 -0.8555 -1.1652  2.0941
   65SAPC  H12Y 5385   1.562   3.241   7.817  1.3697  0.4806 -1.6840
   65SAPC  C313 5386   1.510   3.025   7.840  0.0275 -0.2947  0.1470
   65SAPC  H13X 5387   1.603   2.964   7.843  1.4639  1.6644 -1.5158
   65SAPC  H13Y 5388   1.444   2.959   7.781  0.1879  0.4794 -0.9199
   65SAPC  C314 5389   1.441   3.041   7.972  0.0007 -0.2642 -0.0319
   65SAPC  H14X 5390   1.345   3.098   7.967 -0.7248 -1.4935 -0.5433
   65SAPC  H14Y 5391   1.511   3.080   8.049  0.0596  0.1979 -0.3126
   65SAPC  C315 5392   1.395   2.901   8.014 -0.4633 -0.1468  0.0900
   65SAPC  H15X 5393   1.482   2.834   7.998 -2.5485 -3.1450  0.5340
   65SAPC  H15Y 5394   1.317   2.865   7.943  0.9583 -0.1341 -1.5401
   65SAPC  C316 5395   1.340   2.880   8.157 -0.2936  0.6948 -0.3469
   65SAPC  H16X 5396   1.291   2.780   8.157  2.2742 -0.6696 -1.1672
   65SAPC  H16Y 5397   1.268   2.959   8.187  0.5542  1.5729 -0.5502
   65SAPC  C317 5398   1.462   2.861   8.259  0.1671  0.0897  0.0678
   65SAPC  H17X 5399   1.528   2.950   8.254 -0.9811  0.9129 -0.9604
   65SAPC  H17Y 5400   1.519   2.769   8.237 -1.5708 -1.3566  1.3359
   65SAPC  C318 5401   1.409   2.856   8.398 -0.0662 -0.4776  1.1042
   65SAPC  H18X 5402   1.495   2.877   8.466 -0.0465  1.6634  0.4953
   65SAPC  H18Y 5403   1.357   2.760   8.417  2.2783 -1.6667  1.8367
   65SAPC  H18Z 5404   1.328   2.928   8.424 -0.3026 -0.5019  0.4569
   66SAPC     N 5405   6.224   0.794   5.692 -0.2760  0.1655  0.2932
   66SAPC   C12 5406   6.216   0.645   5.723 -0.2713  0.2335 -0.0712
   66SAPC  H12A 5407   6.316   0.620   5.755  0.2339  2.6029  0.3377
   66SAPC  H12B 5408   6.182   0.590   5.636 -1.4351 -0.5223  0.8251
   66SAPC   C13 5409   6.328   0.816   5.599  0.2464 -0.7285 -0.1833
   66SAPC  H13A 5410   6.421   0.790   5.647 -0.1956  0.8623  1.6749
   66SAPC  H13B 5411   6.307   0.768   5.505  0.8012  0.8165 -1.1306
   66SAPC  H13C 5412   6.339   0.920   5.571 -1.7312  0.5521  3.2172
   66SAPC   C14 5413   6.100   0.847   5.636 -0.2680 -0.7320 -0.3301
   66SAPC  H14A 5414   6.117   0.948   5.599  0.8774 -0.1178  1.7221
   66SAPC  H14B 5415   6.078   0.785   5.551  2.1050 -1.5557 -0.4242
   66SAPC  H14C 5416   6.024   0.852   5.712  1.3999 -1.4051  1.4775
   66SAPC   C15 5417   6.268   0.879   5.813  0.0405  0.1115  0.1114
   66SAPC  H15A 5418   6.266   0.982   5.782 -2.6263  0.6387  1.6588
   66SAPC  H15B 5419   6.204   0.870   5.900 -0.1407  0.0015 -0.0345
   66SAPC  H15C 5420   6.365   0.849   5.849 -0.0568  0.0045  0.2872
   66SAPC   C11 5421   6.125   0.602   5.843  0.1491  0.5923  0.7402
   66SAPC  H11A 5422   6.147   0.494   5.856  1.1530  0.5267 -1.0493
   66SAPC  H11B 5423   6.020   0.609   5.808  0.6539 -1.8807 -1.6183
   66SAPC     P 5424   6.260   0.619   6.059 -0.1182 -0.0362  0.5407
   66SAPC   O13 5425   6.373   0.564   5.982 -0.4660 -0.3946 -0.7194
   66SAPC   O14 5426   6.289   0.730   6.155  0.0860 -0.4135 -0.3385
   66SAPC   O12 5427   6.147   0.673   5.967 -0.0340  0.1747  0.2482
   66SAPC   O11 5428   6.194   0.494   6.126 -0.9659  0.3403  0.2331
   66SAPC    C1 5429   6.055   0.469   6.148 -0.0305 -0.4243 -0.5890
   66SAPC    HA 5430   5.992   0.486   6.058  2.3567 -1.1877 -2.4995
   66SAPC    HB 5431   6.036   0.361   6.161  0.0665 -0.3592  0.1322
   66SAPC    C2 5432   5.993   0.539   6.265  1.0171  0.0923 -0.9867
   66SAPC    HS 5433   5.954   0.639   6.236 -2.1243 -0.1137  1.9465
   66SAPC   O21 5434   6.095   0.541   6.366  0.4880  0.0032 -0.0081
   66SAPC   C21 5435   6.105   0.648   6.439  0.0865 -0.1918 -0.2658
   66SAPC   O22 5436   6.030   0.745   6.436  0.2148  0.0760  0.1191
   66SAPC   C22 5437   6.238   0.627   6.508 -0.0095 -0.4511 -0.6410
   66SAPC   H2R 5438   6.223   0.534   6.568  2.3943  0.4359  1.5463
   66SAPC   H2S 5439   6.319   0.610   6.434  0.6863 -0.7218  0.1636
   66SAPC    C3 5440   5.870   0.466   6.323 -0.0216 -0.2587  0.1458
   66SAPC    HX 5441   5.914   0.369   6.351  2.2684  0.5550 -0.4624
   66SAPC    HY 5442   5.804   0.446   6.236 -1.2738 -1.1207  1.2500
   66SAPC   O31 5443   5.809   0.528   6.442 -0.2892 -0.3118  0.0557
   66SAPC   C31 5444   5.682   0.567   6.433 -0.1082 -1.1564 -0.0244
   66SAPC   O32 5445   5.614   0.576   6.334  0.2640 -0.0856  0.3480
   66SAPC   C32 5446   5.633   0.622   6.565 -0.5626 -0.9973 -0.6461
   66SAPC   H2X 5447   5.524   0.637   6.548 -0.7127 -3.5848 -2.4504
   66SAPC   H2Y 5448   5.667   0.724   6.594  0.3204 -1.8762  1.6651
   66SAPC   C23 5449   6.282   0.732   6.607  0.2293 -0.0149  0.3061
   66SAPC   H3R 5450   6.195   0.765   6.667  0.7334  1.5185  0.2440
   66SAPC   H3S 5451   6.305   0.829   6.558  0.0813  0.2524  0.7610
   66SAPC   C24 5452   6.393   0.698   6.701  0.2164  0.2015 -0.5389
   66SAPC   H4R 5453   6.424   0.787   6.760  1.1842 -0.0587 -0.6273
   66SAPC   H4S 5454   6.485   0.670   6.645  0.5378  1.6792 -0.8021
   66SAPC   C25 5455   6.335   0.590   6.787  0.0270  0.8307  0.2940
   66SAPC   H5R 5456   6.320   0.502   6.723 -0.6928  1.4515 -0.4242
   66SAPC   C26 5457   6.278   0.599   6.904  0.1165 -0.3085 -0.0751
   66SAPC   H6R 5458   6.260   0.509   6.964 -2.8520  0.0255 -0.3159
   66SAPC   C27 5459   6.261   0.730   6.981  0.7707  0.6070 -0.6618
   66SAPC   H7R 5460   6.193   0.708   7.066 -0.9925  0.7330 -1.9812
   66SAPC   H7S 5461   6.213   0.804   6.913 -1.6682 -0.0437  0.2361
   66SAPC   C28 5462   6.391   0.781   7.033 -0.0440  0.3954 -0.5250
   66SAPC   H8R 5463   6.439   0.848   6.961  0.0487 -0.5360 -1.3432
   66SAPC   C29 5464   6.443   0.766   7.158 -0.1210  0.5894 -0.2430
   66SAPC   H9R 5465   6.540   0.813   7.176  0.1717  0.6306 -1.7903
   66SAPC  C210 5466   6.388   0.688   7.277 -0.7578  0.3164  0.4957
   66SAPC  H10R 5467   6.321   0.607   7.242  1.6155 -2.2274  1.5070
   66SAPC  H10S 5468   6.324   0.753   7.340 -2.5692 -0.1720 -0.7526
   66SAPC  C211 5469   6.503   0.635   7.357 -0.3104  1.2250  0.3819
   66SAPC  H11R 5470   6.558   0.704   7.423  0.6560  1.2360 -0.4085
   66SAPC  C212 5471   6.554   0.510   7.350  0.4500 -0.2008  0.0445
   66SAPC  H12R 5472   6.634   0.481   7.419 -1.0261 -0.8452  1.5701
   66SAPC  C213 5473   6.499   0.412   7.259  0.6218 -0.2961  0.9066
   66SAPC  H13R 5474   6.565   0.327   7.233 -1.9009 -2.4480  1.0251
   66SAPC  H13S 5475   6.489   0.447   7.154 -0.3299 -0.9940  0.7448
   66SAPC  C214 5476   6.365   0.352   7.295 -0.4783 -0.0465  0.0111
   66SAPC  H14R 5477   6.282   0.405   7.246  0.2978  1.1913  0.0048
   66SAPC  C215 5478   6.336   0.253   7.382 -0.5164  0.4855  0.3014
   66SAPC  H15R 5479   6.234   0.218   7.402 -0.3425 -0.7925 -0.9294
   66SAPC  C216 5480   6.442   0.173   7.454  0.6753  0.2702  0.4691
   66SAPC  H16R 5481   6.533   0.171   7.390  0.7735 -1.1404  0.6240
   66SAPC  H16S 5482   6.405   0.069   7.469  2.0890 -0.8122 -2.6395
   66SAPC  C217 5483   6.474   0.247   7.582 -0.7547 -0.1060  0.0434
   66SAPC  H17R 5484   6.498   0.354   7.566 -0.3071  0.0633  1.6663
   66SAPC  H17S 5485   6.570   0.199   7.610  0.1832  1.1776 -0.8436
   66SAPC  C218 5486   6.365   0.225   7.687 -0.0654 -0.5787 -0.1372
   66SAPC  H18R 5487   6.337   0.120   7.712 -0.7103 -0.1759  0.9285
   66SAPC  H18S 5488   6.271   0.268   7.647 -0.4382 -2.5948 -1.5769
   66SAPC  C219 5489   6.401   0.281   7.832  0.0428  0.1412 -0.3096
   66SAPC  H19R 5490   6.498   0.238   7.866 -0.4019  1.0821  2.4655
   66SAPC  H19S 5491   6.318   0.247   7.898  1.4424 -1.1595  0.8532
   66SAPC  C220 5492   6.407   0.429   7.850 -0.1109 -0.1619 -0.0926
   66SAPC  H20R 5493   6.453   0.476   7.761  3.1427 -0.4712  1.2683
   66SAPC  H20S 5494   6.474   0.457   7.935  1.6096 -0.5566 -1.2721
   66SAPC  H20T 5495   6.305   0.469   7.870  0.2748  1.5888 -1.3519
   66SAPC   C33 5496   5.651   0.528   6.689  0.0314  0.6459  0.7309
   66SAPC   H3X 5497   5.659   0.421   6.659 -1.5324  0.5093  0.7450
   66SAPC   H3Y 5498   5.560   0.531   6.753 -0.4023  0.9989  0.0997
   66SAPC   C34 5499   5.773   0.563   6.772  0.2585  0.3228 -0.5674
   66SAPC   H4X 5500   5.765   0.668   6.807  1.8332 -0.3087  1.9473
   66SAPC   H4Y 5501   5.862   0.546   6.709 -1.1673 -1.9895 -2.1129
   66SAPC   C35 5502   5.779   0.475   6.902 -0.2652 -0.7681 -0.5294
   66SAPC   H5X 5503   5.799   0.370   6.873  0.4502 -0.6486 -0.4804
   66SAPC   H5Y 5504   5.685   0.491   6.959  1.0576  3.0027  0.9416
   66SAPC   C36 5505   5.895   0.526   6.992  0.5447  0.0466 -0.8847
   66SAPC   H6X 5506   5.901   0.636   6.999  1.1932  0.0061 -0.7473
   66SAPC   H6Y 5507   5.995   0.505   6.946  0.4142  0.1166 -1.2021
   66SAPC   C37 5508   5.886   0.456   7.124  0.0730  0.3230 -0.9884
   66SAPC   H7X 5509   5.895   0.346   7.110 -2.2183 -0.3468  1.7080
   66SAPC   H7Y 5510   5.786   0.482   7.165  0.4588 -0.7670  0.7372
   66SAPC   C38 5511   5.990   0.499   7.228 -0.4116  0.4351  0.1708
   66SAPC   H8X 5512   6.021   0.603   7.208  1.4687  0.0310  0.7738
   66SAPC   H8Y 5513   6.083   0.440   7.215 -0.8553 -0.3197  0.3541
   66SAPC   C39 5514   5.931   0.471   7.372 -0.0434 -1.0391 -0.0907
   66SAPC   H9X 5515   5.913   0.362   7.383 -1.4547 -0.8133  0.0615
   66SAPC   H9Y 5516   5.830   0.513   7.391  0.1578 -0.9428  0.8364
   66SAPC  C310 5517   6.017   0.520   7.487 -0.6823 -0.1795  0.5804
   66SAPC  H10X 5518   6.025   0.630   7.477 -0.8136 -0.1649  0.6353
   66SAPC  H10Y 5519   6.117   0.471   7.481 -0.1719  1.0009 -3.0387
   66SAPC  C311 5520   5.952   0.492   7.623  0.4596  0.2453  0.1853
   66SAPC  H11X 5521   5.934   0.385   7.644  0.2856  0.6400  2.2318
   66SAPC  H11Y 5522   5.852   0.542   7.619  0.0213 -0.6680 -0.8133
   66SAPC  C312 5523   6.032   0.557   7.729 -0.6458 -0.1210  0.6367
   66SAPC  H12X 5524   6.035   0.667   7.709  0.3426 -0.1141  0.7911
   66SAPC  H12Y 5525   6.133   0.518   7.705 -1.1990 -1.1499 -0.0598
   66SAPC  C313 5526   5.977   0.518   7.869 -0.9491  0.1612  0.1678
   66SAPC  H13X 5527   6.047   0.440   7.906  1.1366  0.9054 -1.9825
   66SAPC  H13Y 5528   5.873   0.479   7.861 -1.0548  0.5959 -0.6245
   66SAPC  C314 5529   5.980   0.627   7.974 -0.0296  0.3229  0.0292
   66SAPC  H14X 5530   5.917   0.709   7.933 -0.1461 -0.3522 -1.1550
   66SAPC  H14Y 5531   6.089   0.641   7.989 -0.2658 -0.4166  3.2755
   66SAPC  C315 5532   5.934   0.576   8.112 -0.2573 -0.4351  0.3327
   66SAPC  H15X 5533   6.007   0.499   8.145 -0.7869 -0.4206  1.6365
   66SAPC  H15Y 5534   5.835   0.524   8.111 -0.1286 -0.6835  0.4606
   66SAPC  C316 5535   5.941   0.670   8.236 -0.3470 -0.0237  0.7918
   66SAPC  H16X 5536   5.856   0.741   8.243  1.6350  2.6012 -0.1929
   66SAPC  H16Y 5537   6.031   0.735   8.228  1.8360 -2.4375  3.4436
   66SAPC  C317 5538   5.953   0.595   8.363  0.1553 -0.9771 -0.5326
   66SAPC  H17X 5539   6.050   0.541   8.368  1.6099  1.5994  0.5871
   66SAPC  H17Y 5540   5.872   0.519   8.374  0.0626 -0.7728  0.2558
   66SAPC  C318 5541   5.957   0.688   8.486  0.1523  0.2804  0.0415
   66SAPC  H18X 5542   6.013   0.782   8.467 -1.1544  0.8061 -1.4021
   66SAPC  H18Y 5543   6.014   0.636   8.565 -0.7365 -1.1309 -0.2172
   66SAPC  H18Z 5544   5.856   0.715   8.526 -0.5885 -1.8938 -0.2327
   67SAPC     N 5545   5.314   4.712   6.620  0.2465 -0.0247  0.3261
   67SAPC   C12 5546   5.162   4.726   6.648 -0.9671  0.3701 -0.2254
   67SAPC  H12A 5547   5.148   4.764   6.748 -0.8318 -1.3376  0.4841
   67SAPC  H12B 5548   5.126   4.625   6.661 -0.4331 -0.0833 -1.9149
   67SAPC   C13 5549   5.381   4.621   6.723  0.0786  0.0820 -0.4735
   67SAPC  H13A 5550   5.486   4.600   6.711  0.4110  1.1422  0.3762
   67SAPC  H13B 5551   5.366   4.674   6.816  0.0386 -1.4194  0.3906
   67SAPC  H13C 5552   5.323   4.531   6.727 -1.2666  0.8458 -1.6532
   67SAPC   C14 5553   5.321   4.639   6.481 -0.6656  0.4227 -0.1022
   67SAPC  H14A 5554   5.273   4.543   6.491  1.8293 -0.7789  1.3264
   67SAPC  H14B 5555   5.264   4.698   6.411 -3.3965  1.4762  2.7268
   67SAPC  H14C 5556   5.423   4.618   6.452 -0.3394 -1.9266  2.3196
   67SAPC   C15 5557   5.384   4.842   6.617  0.9854 -0.2049 -0.1082
   67SAPC  H15A 5558   5.370   4.895   6.711  2.2923 -0.9822  0.5535
   67SAPC  H15B 5559   5.490   4.824   6.603  1.8179 -0.9617  5.0835
   67SAPC  H15C 5560   5.346   4.907   6.540 -0.4744 -2.6712 -1.5651
   67SAPC   C11 5561   5.082   4.799   6.543  0.3648 -0.1875  0.2768
   67SAPC  H11A 5562   4.982   4.810   6.589 -0.3113 -0.1595 -1.1570
   67SAPC  H11B 5563   5.064   4.740   6.450  2.0844  1.6488 -1.3187
   67SAPC     P 5564   5.097   5.064   6.583 -0.4427 -0.0879  0.2456
   67SAPC   O13 5565   5.216   5.115   6.648  0.2770  0.4139  0.0072
   67SAPC   O14 5566   5.026   5.150   6.485 -0.0647 -0.1458  0.6162
   67SAPC   O12 5567   5.133   4.927   6.504 -0.5390  0.4595 -0.5436
   67SAPC   O11 5568   4.987   5.021   6.682 -0.1345 -0.0856  0.3696
   67SAPC    C1 5569   4.912   5.125   6.749 -0.0917  0.0812  0.0296
   67SAPC    HA 5570   4.963   5.222   6.769 -2.1851  1.4265 -0.8598
   67SAPC    HB 5571   4.822   5.147   6.688  0.0409  0.0150 -0.1896
   67SAPC    C2 5572   4.875   5.079   6.893  0.3661  0.1558 -0.1410
   67SAPC    HS 5573   4.808   5.151   6.944 -0.2638 -1.5545  1.5639
   67SAPC   O21 5574   4.993   5.061   6.965  0.4059  0.7809 -0.0423
   67SAPC   C21 5575   5.034   5.164   7.034  0.0932  0.9802  0.8257
   67SAPC   O22 5576   4.993   5.281   7.027 -0.0905  0.2154  0.1571
   67SAPC   C22 5577   5.117   5.109   7.153 -0.0581 -0.1531  0.9059
   67SAPC   H2R 5578   5.102   5.000   7.169  1.5110 -0.5700 -0.2840
   67SAPC   H2S 5579   5.225   5.125   7.132  0.3962 -0.5918  2.6778
   67SAPC    C3 5580   4.791   4.946   6.880 -0.0646 -1.1554  0.9550
   67SAPC    HX 5581   4.846   4.871   6.820 -1.0358  1.0334 -3.0407
   67SAPC    HY 5582   4.705   4.975   6.815  2.1943  2.4782 -0.7179
   67SAPC   O31 5583   4.751   4.909   7.006  0.0825 -0.0752 -0.0021
   67SAPC   C31 5584   4.799   4.797   7.068 -0.0569 -0.2719 -1.1175
   67SAPC   O32 5585   4.877   4.725   7.015  0.0778  0.1484  0.1640
   67SAPC   C32 5586   4.762   4.808   7.218  0.0719 -0.2174 -0.8057
   67SAPC   H2X 5587   4.658   4.768   7.213 -0.4345  1.1843 -2.7310
   67SAPC   H2Y 5588   4.751   4.915   7.247 -2.1120 -0.3284 -1.0324
   67SAPC   C23 5589   5.068   5.183   7.280  0.8858 -0.2795 -0.5612
   67SAPC   H3R 5590   5.068   5.292   7.259  1.1810  0.4148  2.5646
   67SAPC   H3S 5591   5.134   5.179   7.369 -0.8679  1.2311  0.8996
   67SAPC   C24 5592   4.935   5.128   7.320 -0.1373  0.4483  0.3807
   67SAPC   H4R 5593   4.942   5.018   7.328  2.5042  0.5907  1.0342
   67SAPC   H4S 5594   4.858   5.146   7.241  0.5281 -0.2421 -0.4439
   67SAPC   C25 5595   4.882   5.181   7.449  0.1750 -0.5937 -1.0662
   67SAPC   H5R 5596   4.795   5.247   7.451 -0.1762 -0.8460  3.9421
   67SAPC   C26 5597   4.923   5.154   7.574 -0.5713  0.0852 -0.2368
   67SAPC   H6R 5598   4.883   5.216   7.656  0.1382 -0.2406  0.3586
   67SAPC   C27 5599   5.037   5.059   7.621  0.0693  0.2004  0.3661
   67SAPC   H7R 5600   5.062   4.983   7.544  0.0482  0.4364  0.1220
   67SAPC   H7S 5601   4.994   4.997   7.702 -2.9337  0.8559 -0.6154
   67SAPC   C28 5602   5.171   5.124   7.653 -0.3760  0.2962 -0.1759
   67SAPC   H8R 5603   5.244   5.136   7.572  0.5772 -1.1255  0.4368
   67SAPC   C29 5604   5.201   5.182   7.772 -0.3133  1.2491 -0.3797
   67SAPC   H9R 5605   5.301   5.226   7.785  0.5996 -0.9937  0.7948
   67SAPC  C210 5606   5.123   5.170   7.897  1.2296  0.1501 -0.1216
   67SAPC  H10R 5607   5.019   5.134   7.885  0.7182  1.2943  0.6157
   67SAPC  H10S 5608   5.099   5.276   7.923  2.3575  0.4513 -0.2685
   67SAPC  C211 5609   5.184   5.088   8.005 -0.7440  0.6349 -0.2481
   67SAPC  H11R 5610   5.285   5.051   7.984 -1.8774 -3.3701  0.4843
   67SAPC  C212 5611   5.121   5.047   8.119  0.0740 -0.5425  0.0356
   67SAPC  H12R 5612   5.181   4.988   8.190 -0.9564 -0.1301  1.2895
   67SAPC  C213 5613   4.984   5.091   8.163  0.7313  0.3283 -0.1272
   67SAPC  H13R 5614   4.929   5.140   8.081 -0.2390  0.9397  0.8634
   67SAPC  H13S 5615   4.995   5.170   8.240  1.0198 -0.9222  1.1599
   67SAPC  C214 5616   4.896   4.986   8.231 -0.5421  0.4647 -0.1937
   67SAPC  H14R 5617   4.821   4.929   8.173  1.4605 -0.7932 -1.6732
   67SAPC  C215 5618   4.918   4.949   8.357 -0.3990 -0.3042 -0.5696
   67SAPC  H15R 5619   4.846   4.880   8.403 -0.3919 -1.0996 -1.7121
   67SAPC  C216 5620   5.028   4.997   8.447 -0.2552 -1.1914 -0.4401
   67SAPC  H16R 5621   5.005   5.096   8.492  1.0194 -1.0453 -0.0958
   67SAPC  H16S 5622   5.125   5.002   8.393  0.3800 -2.2822  0.5700
   67SAPC  C217 5623   5.061   4.913   8.572 -0.0460 -0.0075  0.1820
   67SAPC  H17R 5624   4.967   4.864   8.607 -1.3596  0.7099 -2.1291
   67SAPC  H17S 5625   5.097   4.976   8.656  4.1649 -1.7699 -0.0415
   67SAPC  C218 5626   5.164   4.799   8.558 -0.2400  0.3416 -0.6742
   67SAPC  H18R 5627   5.254   4.835   8.504  0.6047 -0.0538  0.4316
   67SAPC  H18S 5628   5.108   4.715   8.511 -1.3165  0.2282  0.7603
   67SAPC  C219 5629   5.209   4.747   8.703 -0.1857 -0.2112 -0.1957
   67SAPC  H19R 5630   5.121   4.702   8.753  0.7306 -0.1070  1.6015
   67SAPC  H19S 5631   5.228   4.843   8.755 -0.3411 -0.7447  0.8745
   67SAPC  C220 5632   5.335   4.665   8.693  0.4613  0.3290  0.2659
   67SAPC  H20R 5633   5.365   4.626   8.793 -0.6732  0.3995  0.6494
   67SAPC  H20S 5634   5.428   4.716   8.662  1.4143 -0.7402  1.2297
   67SAPC  H20T 5635   5.328   4.580   8.621 -1.1019  1.0959 -0.5498
   67SAPC   C33 5636   4.849   4.731   7.319  0.3762 -0.3674 -0.0005
   67SAPC   H3X 5637   4.935   4.797   7.342  0.4825 -0.7289  0.6628
   67SAPC   H3Y 5638   4.878   4.638   7.267 -1.6087 -2.0706  1.7082
   67SAPC   C34 5639   4.775   4.686   7.453 -0.3926 -0.0438  0.1070
   67SAPC   H4X 5640   4.839   4.607   7.499  0.4357  0.9376  0.6925
   67SAPC   H4Y 5641   4.673   4.646   7.436 -0.6823 -0.7783  2.9733
   67SAPC   C35 5642   4.748   4.803   7.547  0.3511  0.1857 -0.4006
   67SAPC   H5X 5643   4.651   4.850   7.520 -1.1250 -2.0089  0.7755
   67SAPC   H5Y 5644   4.825   4.883   7.545  0.3884  0.1353 -1.7742
   67SAPC   C36 5645   4.740   4.743   7.686 -0.3013 -0.1396 -0.0568
   67SAPC   H6X 5646   4.834   4.690   7.709 -1.1668 -2.1629 -0.9043
   67SAPC   H6Y 5647   4.658   4.668   7.684  0.8752 -1.4865  0.9231
   67SAPC   C37 5648   4.700   4.849   7.791 -0.4795 -0.3918  0.1717
   67SAPC   H7X 5649   4.610   4.904   7.757 -0.2844  0.0935  0.4306
   67SAPC   H7Y 5650   4.781   4.924   7.797  0.3969 -1.3516  0.7641
   67SAPC   C38 5651   4.677   4.794   7.931 -0.3092  0.0402 -0.2865
   67SAPC   H8X 5652   4.775   4.768   7.978 -1.0960 -0.3581  1.1854
   67SAPC   H8Y 5653   4.626   4.695   7.931 -0.3511  0.0571 -0.8163
   67SAPC   C39 5654   4.582   4.884   8.017 -0.4858  0.1678  0.1455
   67SAPC   H9X 5655   4.481   4.897   7.972 -0.1175 -2.3750 -1.6356
   67SAPC   H9Y 5656   4.647   4.974   8.021  2.6616 -1.9964  1.0375
   67SAPC  C310 5657   4.560   4.831   8.162  0.6920 -0.5322  0.3899
   67SAPC  H10X 5658   4.653   4.834   8.223 -0.3970  0.3983  2.1143
   67SAPC  H10Y 5659   4.520   4.728   8.157  2.7012 -1.4908  2.3230
   67SAPC  C311 5660   4.464   4.917   8.250 -0.1283 -0.0687  0.1588
   67SAPC  H11X 5661   4.371   4.946   8.197 -0.2349 -1.3345 -0.3803
   67SAPC  H11Y 5662   4.516   5.013   8.270  0.3693 -0.4529  0.7204
   67SAPC  C312 5663   4.436   4.842   8.384  0.4428 -0.4103  0.7830
   67SAPC  H12X 5664   4.385   4.912   8.454 -0.4620  0.2636 -0.4996
   67SAPC  H12Y 5665   4.528   4.805   8.433  1.3368  0.7093  0.0275
   67SAPC  C313 5666   4.349   4.719   8.368  0.2571  0.1655  0.4303
   67SAPC  H13X 5667   4.400   4.648   8.298  1.7810  0.1409  1.4997
   67SAPC  H13Y 5668   4.250   4.744   8.326 -1.2973 -3.0023  1.8440
   67SAPC  C314 5669   4.318   4.657   8.510 -0.1026  0.1595 -0.0378
   67SAPC  H14X 5670   4.409   4.656   8.573 -0.8943  0.9561  1.1484
   67SAPC  H14Y 5671   4.298   4.552   8.478  1.7024 -0.4787  0.8266
   67SAPC  C315 5672   4.196   4.707   8.585 -0.1359  0.6528  0.2346
   67SAPC  H15X 5673   4.103   4.685   8.528 -0.0468  1.0571 -0.0687
   67SAPC  H15Y 5674   4.210   4.817   8.584  1.9269  0.4430 -1.2625
   67SAPC  C316 5675   4.186   4.634   8.720 -0.3794 -0.3487  0.1173
   67SAPC  H16X 5676   4.282   4.632   8.776  0.3832 -1.6736 -1.1704
   67SAPC  H16Y 5677   4.166   4.527   8.699 -0.5497 -0.1909 -0.5248
   67SAPC  C317 5678   4.069   4.686   8.811  0.3588 -0.0546  0.0204
   67SAPC  H17X 5679   3.971   4.673   8.761 -0.1216 -0.4742  1.0275
   67SAPC  H17Y 5680   4.087   4.793   8.834 -0.2712  0.2176 -0.7198
   67SAPC  C318 5681   4.049   4.613   8.947  0.3161  0.4413  0.0980
   67SAPC  H18X 5682   4.063   4.503   8.955  2.2292  0.6922  0.6142
   67SAPC  H18Y 5683   3.957   4.642   9.002  1.0021  0.6021  1.1822
   67SAPC  H18Z 5684   4.129   4.645   9.016 -0.6861  2.3652  0.4303
   68SAPC     N 5685   6.612   4.171   6.067  0.4231  0.2605  0.0247
   68SAPC   C12 5686   6.562   4.218   6.205  0.9415 -0.1922 -0.2067
   68SAPC  H12A 5687   6.541   4.132   6.267  0.5360  0.3461  0.4185
   68SAPC  H12B 5688   6.466   4.265   6.187  0.9605  0.0792  0.3762
   68SAPC   C13 5689   6.515   4.073   6.005 -0.5952 -0.7515  0.1460
   68SAPC  H13A 5690   6.550   4.028   5.914  0.7560 -1.3870  0.9504
   68SAPC  H13B 5691   6.494   3.997   6.079  0.8821  0.5075  1.9536
   68SAPC  H13C 5692   6.421   4.120   5.980 -0.2148  0.0444  0.1563
   68SAPC   C14 5693   6.619   4.291   5.974 -0.1985  0.0985  0.1281
   68SAPC  H14A 5694   6.686   4.365   6.017 -0.2453 -0.1077  0.5632
   68SAPC  H14B 5695   6.660   4.259   5.880  0.2501 -0.3015  0.4575
   68SAPC  H14C 5696   6.518   4.330   5.964 -0.2763 -0.2686 -0.5720
   68SAPC   C15 5697   6.741   4.101   6.076  0.0077 -0.2140  0.1888
   68SAPC  H15A 5698   6.710   4.008   6.122 -2.1976  1.0074  1.3689
   68SAPC  H15B 5699   6.790   4.082   5.981  0.3385  0.6784  0.1713
   68SAPC  H15C 5700   6.810   4.152   6.141  0.4883  1.2919 -1.4409
   68SAPC   C11 5701   6.643   4.324   6.294  0.1864 -0.0734  0.8214
   68SAPC  H11A 5702   6.739   4.274   6.319  0.2648  0.3633  1.4127
   68SAPC  H11B 5703   6.587   4.347   6.387  0.0624  0.5652  0.5933
   68SAPC     P 5704   6.563   4.565   6.213  0.5017  0.4039 -0.1048
   68SAPC   O13 5705   6.611   4.657   6.105  0.3235  0.3923  0.0192
   68SAPC   O14 5706   6.426   4.511   6.210  1.1187 -1.2199  0.3561
   68SAPC   O12 5707   6.665   4.442   6.212  0.9989  0.1575 -0.0872
   68SAPC   O11 5708   6.591   4.634   6.354 -0.0726  0.1331  1.1590
   68SAPC    C1 5709   6.713   4.638   6.422 -0.9466  0.5464 -0.6593
   68SAPC    HA 5710   6.797   4.603   6.359 -1.3987  1.7310 -2.0025
   68SAPC    HB 5711   6.739   4.743   6.447 -2.6357  0.4104  2.0967
   68SAPC    C2 5712   6.705   4.554   6.558  0.1753 -0.5239  0.0058
   68SAPC    HS 5713   6.755   4.458   6.533  1.5357 -0.0905  0.9872
   68SAPC   O21 5714   6.566   4.529   6.600 -0.5320  0.2011  0.1107
   68SAPC   C21 5715   6.532   4.412   6.648 -0.0154 -0.1711 -0.5332
   68SAPC   O22 5716   6.583   4.307   6.618  0.3369 -0.2654 -0.4388
   68SAPC   C22 5717   6.415   4.430   6.736 -0.0396 -0.1373  0.4031
   68SAPC   H2R 5718   6.338   4.463   6.663  1.2025  2.3918  0.1377
   68SAPC   H2S 5719   6.386   4.328   6.770  1.5656 -1.5506 -2.0978
   68SAPC    C3 5720   6.782   4.632   6.668 -0.1867  0.4029 -0.8452
   68SAPC    HX 5721   6.727   4.728   6.674 -0.6124  0.0645  1.8654
   68SAPC    HY 5722   6.887   4.656   6.639 -0.2640  1.9877  0.0667
   68SAPC   O31 5723   6.780   4.574   6.802  0.1109 -0.1677 -0.6374
   68SAPC   C31 5724   6.888   4.501   6.832 -0.5775 -1.0858  1.1038
   68SAPC   O32 5725   6.982   4.482   6.755  0.1154  0.3532  0.0909
   68SAPC   C32 5726   6.867   4.420   6.958  0.1584 -0.1679 -0.3093
   68SAPC   H2X 5727   6.942   4.338   6.970  0.0034 -0.3899 -0.8497
   68SAPC   H2Y 5728   6.764   4.386   6.938 -0.4595  2.4366 -1.9878
   68SAPC   C23 5729   6.431   4.541   6.839 -1.1000  0.6811 -0.6489
   68SAPC   H3R 5730   6.483   4.632   6.802 -2.8149  1.3797 -1.3975
   68SAPC   H3S 5731   6.497   4.507   6.923 -4.0439  2.8780  2.8833
   68SAPC   C24 5732   6.298   4.588   6.912 -0.4701 -0.2232 -0.3258
   68SAPC   H4R 5733   6.249   4.496   6.947 -0.3935 -0.3805 -0.6238
   68SAPC   H4S 5734   6.226   4.638   6.844 -0.5322 -0.5881 -0.5279
   68SAPC   C25 5735   6.330   4.675   7.034 -0.2357 -0.3510  0.0029
   68SAPC   H5R 5736   6.332   4.784   7.017 -2.2380 -0.4035 -0.8310
   68SAPC   C26 5737   6.357   4.633   7.158  0.5001  0.5724 -1.1903
   68SAPC   H6R 5738   6.384   4.708   7.233 -1.1267 -1.1242  1.2561
   68SAPC   C27 5739   6.363   4.492   7.222 -0.4123 -0.6250  0.4332
   68SAPC   H7R 5740   6.466   4.478   7.263 -1.0061 -0.8068  1.9334
   68SAPC   H7S 5741   6.343   4.410   7.150  1.6610 -1.6950  0.9712
   68SAPC   C28 5742   6.259   4.478   7.336 -0.1856  0.2575  0.2659
   68SAPC   H8R 5743   6.166   4.426   7.308 -0.7988  1.2599  0.3720
   68SAPC   C29 5744   6.271   4.519   7.466 -0.1118  0.3037  1.1183
   68SAPC   H9R 5745   6.180   4.503   7.526 -0.2908 -1.5693  0.4163
   68SAPC  C210 5746   6.386   4.592   7.530 -0.6587  0.2978 -0.0216
   68SAPC  H10R 5747   6.350   4.681   7.587 -1.6384  0.1415 -0.3762
   68SAPC  H10S 5748   6.459   4.625   7.453  0.1116  1.0258  0.9951
   68SAPC  C211 5749   6.454   4.515   7.635 -0.2524  0.4997  0.2268
   68SAPC  H11R 5750   6.550   4.472   7.601  0.5445  2.0331  0.4627
   68SAPC  C212 5751   6.419   4.493   7.762 -0.0428  0.2912  0.5184
   68SAPC  H12R 5752   6.496   4.446   7.825  2.2831 -1.3494 -3.1645
   68SAPC  C213 5753   6.298   4.534   7.839  0.5339  1.2337 -0.6436
   68SAPC  H13R 5754   6.240   4.445   7.872  1.2498  0.2289 -1.9942
   68SAPC  H13S 5755   6.229   4.579   7.765  1.3212  0.3632 -1.9494
   68SAPC  C214 5756   6.313   4.618   7.964  0.4904  0.1144 -0.1541
   68SAPC  H14R 5757   6.318   4.725   7.942  0.8451  0.4766  1.5071
   68SAPC  C215 5758   6.341   4.587   8.089  0.4087  0.4356  0.4683
   68SAPC  H15R 5759   6.355   4.669   8.161 -2.6092  0.0735  1.5675
   68SAPC  C216 5760   6.346   4.451   8.144  0.1996 -0.5311  0.1119
   68SAPC  H16R 5761   6.443   4.436   8.196  1.8012  0.6787 -2.2929
   68SAPC  H16S 5762   6.337   4.371   8.067 -0.4067  0.8463 -1.3080
   68SAPC  C217 5763   6.231   4.438   8.249 -0.2750 -0.2483 -0.5077
   68SAPC  H17R 5764   6.225   4.334   8.288 -0.4983 -0.7689 -1.8702
   68SAPC  H17S 5765   6.134   4.467   8.205 -0.3075  0.3513 -0.0527
   68SAPC  C218 5766   6.256   4.529   8.372 -0.0577 -0.1252  0.1183
   68SAPC  H18R 5767   6.268   4.633   8.337  0.3886 -0.8595 -2.0948
   68SAPC  H18S 5768   6.358   4.504   8.410  0.1463 -1.0551 -0.9819
   68SAPC  C219 5769   6.148   4.509   8.476  0.1691 -0.1296  0.0977
   68SAPC  H19R 5770   6.143   4.403   8.509 -1.1024  0.4017  1.7829
   68SAPC  H19S 5771   6.047   4.533   8.435 -0.0988 -3.5024 -1.5447
   68SAPC  C220 5772   6.177   4.598   8.601  0.0827 -0.0852 -0.0989
   68SAPC  H20R 5773   6.217   4.694   8.563 -0.7213 -0.0745 -0.9746
   68SAPC  H20S 5774   6.261   4.551   8.656 -0.3857  1.2976  1.9125
   68SAPC  H20T 5775   6.089   4.608   8.669  0.6432 -1.4080  0.8534
   68SAPC   C33 5776   6.873   4.500   7.092  0.5378  0.8617  0.9378
   68SAPC   H3X 5777   6.802   4.585   7.091 -0.1984  0.2552 -0.2663
   68SAPC   H3Y 5778   6.972   4.549   7.105  0.3496  1.6031 -0.3087
   68SAPC   C34 5779   6.826   4.423   7.220  0.3690  0.3525 -0.1456
   68SAPC   H4X 5780   6.906   4.351   7.247  0.5658  0.4839 -0.3682
   68SAPC   H4Y 5781   6.743   4.356   7.188  0.8852 -2.2707  3.4241
   68SAPC   C35 5782   6.785   4.487   7.347  0.2082 -0.0782 -0.3674
   68SAPC   H5X 5783   6.739   4.422   7.424 -1.9332  1.1785 -0.5017
   68SAPC   H5Y 5784   6.696   4.552   7.329  0.8508  1.1258  0.6329
   68SAPC   C36 5785   6.897   4.568   7.409  0.4161  0.6090 -0.2332
   68SAPC   H6X 5786   6.926   4.633   7.324 -1.8719 -2.6648 -3.8109
   68SAPC   H6Y 5787   6.984   4.501   7.425 -0.9978 -1.4727 -0.8031
   68SAPC   C37 5788   6.863   4.648   7.532 -0.9670 -0.1110 -0.6163
   68SAPC   H7X 5789   6.789   4.729   7.516  1.4609  2.7245  1.3461
   68SAPC   H7Y 5790   6.954   4.700   7.571 -2.0575  2.2343 -1.0608
   68SAPC   C38 5791   6.823   4.563   7.648  0.2353 -0.3398 -0.0133
   68SAPC   H8X 5792   6.898   4.484   7.672  3.0992  2.2596  0.2440
   68SAPC   H8Y 5793   6.726   4.513   7.629  0.8777 -1.4533 -0.5082
   68SAPC   C39 5794   6.810   4.650   7.779 -0.0788 -0.5496 -0.9568
   68SAPC   H9X 5795   6.721   4.716   7.773  0.0400  0.1429  2.5358
   68SAPC   H9Y 5796   6.900   4.716   7.784  0.6583 -1.6153  1.9471
   68SAPC  C310 5797   6.808   4.550   7.903 -0.7368 -0.5581 -0.0779
   68SAPC  H10X 5798   6.907   4.500   7.905 -0.5325 -0.2348 -1.0651
   68SAPC  H10Y 5799   6.731   4.475   7.876 -2.9285  1.8688 -1.0052
   68SAPC  C311 5800   6.777   4.622   8.027 -0.5328  0.8504  0.2116
   68SAPC  H11X 5801   6.673   4.663   8.030 -2.0155 -2.5974  0.9626
   68SAPC  H11Y 5802   6.850   4.703   8.050  0.5580  0.1050 -0.5481
   68SAPC  C312 5803   6.775   4.535   8.153  0.5836  0.7269 -0.3542
   68SAPC  H12X 5804   6.867   4.478   8.175 -1.5309 -2.1912  1.7198
   68SAPC  H12Y 5805   6.702   4.455   8.131  0.3474  0.2219  1.9670
   68SAPC  C313 5806   6.732   4.616   8.275  0.7670 -0.4226  0.1736
   68SAPC  H13X 5807   6.644   4.673   8.241  2.0051  0.6307 -1.3915
   68SAPC  H13Y 5808   6.807   4.697   8.291  0.2242  0.0674  0.2536
   68SAPC  C314 5809   6.702   4.531   8.396  0.2616  0.1028 -0.8682
   68SAPC  H14X 5810   6.792   4.478   8.434 -0.5374 -1.0457 -0.5257
   68SAPC  H14Y 5811   6.629   4.453   8.366 -0.6456  0.6248 -0.1053
   68SAPC  C315 5812   6.647   4.619   8.514  0.4533 -0.6466 -0.0648
   68SAPC  H15X 5813   6.561   4.674   8.471  0.7510  0.0101  0.1742
   68SAPC  H15Y 5814   6.724   4.694   8.541 -1.2133  1.0829  0.1134
   68SAPC  C316 5815   6.614   4.543   8.645 -0.4490 -0.0351  0.5850
   68SAPC  H16X 5816   6.694   4.476   8.683 -0.6147  0.2307  1.4289
   68SAPC  H16Y 5817   6.527   4.476   8.633 -1.5709  1.4936 -0.1850
   68SAPC  C317 5818   6.579   4.643   8.753  0.5567 -0.2569 -0.1873
   68SAPC  H17X 5819   6.476   4.679   8.736  1.3562  1.1596 -2.5188
   68SAPC  H17Y 5820   6.648   4.730   8.757 -0.3022  0.4018  0.7079
   68SAPC  C318 5821   6.585   4.592   8.901 -0.0733  0.4647  0.9145
   68SAPC  H18X 5822   6.692   4.573   8.927  0.3125 -2.3447 -2.0140
   68SAPC  H18Y 5823   6.535   4.493   8.901 -1.1703  1.0013  0.0313
   68SAPC  H18Z 5824   6.532   4.651   8.978 -0.0604  1.6197  0.0553
   69SLPC     N 5825   4.747   0.960  11.303  0.6872 -0.8559 -0.1185
   69SLPC   C13 5826   4.803   1.096  11.337 -0.0320 -0.4587  0.0511
   69SLPC  H13A 5827   4.911   1.098  11.341  0.0796 -2.0428 -1.1018
   69SLPC  H13B 5828   4.773   1.180  11.276 -1.9384  1.3041  3.1887
   69SLPC  H13C 5829   4.774   1.125  11.436  1.2349  2.1356 -0.2527
   69SLPC   C14 5830   4.590   0.971  11.290  0.0506  0.5030  0.2195
   69SLPC  H14A 5831   4.548   1.039  11.362 -1.6144 -1.3245  1.0746
   69SLPC  H14B 5832   4.556   1.000  11.192  1.4197  2.7233  0.3399
   69SLPC  H14C 5833   4.566   0.868  11.314  2.1819 -0.0135  0.3817
   69SLPC   C15 5834   4.774   0.866  11.415 -0.3405 -0.0066  0.4390
   69SLPC  H15A 5835   4.718   0.776  11.396  0.9157 -1.4598  3.0778
   69SLPC  H15B 5836   4.877   0.835  11.424 -0.6546 -1.2224  0.0512
   69SLPC  H15C 5837   4.745   0.906  11.511  1.9274  0.6680  0.8924
   69SLPC   C12 5838   4.798   0.907  11.174 -0.2153  0.3247  1.0012
   69SLPC  H12A 5839   4.906   0.902  11.175 -0.2693 -2.2432  0.1184
   69SLPC  H12B 5840   4.776   0.978  11.095  3.2344  1.3319  0.7735
   69SLPC   C11 5841   4.744   0.766  11.133 -0.0623 -0.0925  0.1027
   69SLPC  H11A 5842   4.734   0.687  11.211 -0.2801 -1.3555 -1.1577
   69SLPC  H11B 5843   4.818   0.727  11.060 -0.5395 -0.1241 -0.3606
   69SLPC     P 5844   4.612   0.826  10.920 -0.5344  0.2287 -0.1846
   69SLPC   O13 5845   4.668   0.729  10.821 -0.0951 -0.6019 -0.1404
   69SLPC   O14 5846   4.475   0.874  10.890  0.1867 -0.3117 -0.2588
   69SLPC   O12 5847   4.621   0.777  11.065 -0.7997  0.2118  0.4008
   69SLPC   O11 5848   4.703   0.955  10.917  0.3544  0.5757  0.3762
   69SLPC    C1 5849   4.660   1.078  10.871 -0.1213  0.6981 -0.3591
   69SLPC    HA 5850   4.574   1.113  10.931 -0.8137 -2.0293  0.4133
   69SLPC    HB 5851   4.737   1.155  10.892  0.3249 -0.0736  0.9387
   69SLPC    C2 5852   4.629   1.098  10.723 -0.5517  0.4966  0.0209
   69SLPC    HS 5853   4.534   1.042  10.711 -0.5116  0.5739 -0.7008
   69SLPC   O21 5854   4.741   1.044  10.641  0.3124 -0.1341  0.3137
   69SLPC   C21 5855   4.697   0.996  10.528  0.1632 -0.2970  0.5013
   69SLPC   O22 5856   4.580   0.986  10.495 -0.2520 -0.2072  0.2923
   69SLPC   C22 5857   4.810   0.973  10.431 -0.2476 -0.1666  0.3365
   69SLPC   H2R 5858   4.906   0.987  10.485 -0.4128  1.0962  0.3357
   69SLPC   H2S 5859   4.805   0.869  10.393  0.2015 -0.0611 -0.0158
   69SLPC    C3 5860   4.602   1.247  10.685  0.1631 -0.2443  0.1026
   69SLPC    HX 5861   4.689   1.301  10.729 -0.8366  1.4602  0.0664
   69SLPC    HY 5862   4.518   1.290  10.743 -0.4305 -1.2869  0.0316
   69SLPC   O31 5863   4.592   1.275  10.541 -0.4929 -0.3833 -0.4227
   69SLPC   C31 5864   4.482   1.318  10.491 -0.5410 -1.0809 -0.3323
   69SLPC   O32 5865   4.372   1.323  10.545  0.2681 -0.0229  0.6748
   69SLPC   C32 5866   4.491   1.372  10.351  0.3121 -0.5185  0.2778
   69SLPC   H2X 5867   4.590   1.337  10.314  1.0436 -0.6718  2.2686
   69SLPC   H2Y 5868   4.497   1.482  10.369 -1.7666 -0.4352  0.7074
   69SLPC   C23 5869   4.807   1.071  10.300  0.4322  0.0639 -0.2377
   69SLPC   H3R 5870   4.829   1.169  10.345  1.3441  0.0381 -0.6139
   69SLPC   H3S 5871   4.706   1.073  10.253  0.1649 -2.6780  0.0577
   69SLPC   C24 5872   4.902   1.027  10.188  0.4455  0.4573  0.3158
   69SLPC   H4R 5873   5.003   1.015  10.233 -0.0240 -0.6199  1.1320
   69SLPC   H4S 5874   4.907   1.113  10.117  0.5432  0.4406  0.3023
   69SLPC   C25 5875   4.863   0.890  10.116 -0.0497 -0.5148 -0.6207
   69SLPC   H5R 5876   4.757   0.904  10.088 -0.7451 -1.7758  1.2235
   69SLPC   H5S 5877   4.862   0.808  10.191 -1.3742 -0.8913 -1.0332
   69SLPC   C26 5878   4.953   0.855  10.005 -0.5850 -0.2457  0.4288
   69SLPC   H6R 5879   4.946   0.747   9.981  2.0846 -0.5169  0.6035
   69SLPC   H6S 5880   5.059   0.871  10.032 -0.3988 -1.4509  0.4621
   69SLPC   C27 5881   4.928   0.949   9.883 -0.0690  0.2780 -0.5127
   69SLPC   H7R 5882   5.013   0.919   9.818 -0.9960 -1.1895 -1.0914
   69SLPC   H7S 5883   4.943   1.055   9.912  1.6737  0.4561 -1.8938
   69SLPC   C28 5884   4.795   0.956   9.810 -0.3972  0.7631  0.4788
   69SLPC   H8R 5885   4.790   1.049   9.749 -1.2957  0.3520 -0.1065
   69SLPC   H8S 5886   4.710   0.967   9.881 -0.5687 -0.6493  0.5300
   69SLPC   C29 5887   4.775   0.844   9.711  0.2468 -0.4442 -0.2449
   69SLPC   H9R 5888   4.779   0.743   9.753 -2.4800 -0.3781  0.3764
   69SLPC  C210 5889   4.760   0.846   9.574 -1.0204 -0.4985 -0.4124
   69SLPC  H10R 5890   4.740   0.756   9.514 -2.0042 -0.7673  0.3043
   69SLPC  C211 5891   4.757   0.970   9.489  0.2328 -0.0517 -0.8743
   69SLPC  H11R 5892   4.847   0.974   9.423  1.2113 -0.9450  0.3492
   69SLPC  H11S 5893   4.773   1.059   9.554  2.4032 -0.4694 -0.7590
   69SLPC  C212 5894   4.631   0.983   9.416  0.6573  0.4758  0.4515
   69SLPC  H12R 5895   4.542   0.927   9.449 -0.8169  1.8425 -1.0256
   69SLPC  C213 5896   4.610   1.082   9.326  0.1151 -0.2179  0.0945
   69SLPC  H13R 5897   4.510   1.084   9.279 -0.5281  1.6418  1.4118
   69SLPC  C214 5898   4.702   1.188   9.268 -0.0462  0.1996  0.0003
   69SLPC  H14R 5899   4.792   1.204   9.332 -0.2255 -0.3581  0.4006
   69SLPC  H14S 5900   4.648   1.284   9.274  1.5022  1.1953 -1.2963
   69SLPC  C215 5901   4.743   1.163   9.126  0.3003  0.1409 -0.6646
   69SLPC  H15R 5902   4.808   1.073   9.123  2.3012  1.3397  2.2242
   69SLPC  H15S 5903   4.806   1.245   9.087  1.5810 -0.3308  0.3375
   69SLPC  C216 5904   4.623   1.135   9.027 -0.7896 -0.2176 -0.0342
   69SLPC  H16R 5905   4.559   1.225   9.039  0.6262  0.6402  1.6222
   69SLPC  H16S 5906   4.564   1.046   9.059 -0.6089 -0.3453 -0.0519
   69SLPC  C217 5907   4.658   1.117   8.877 -0.3776  0.2538  0.6699
   69SLPC  H17R 5908   4.565   1.097   8.820 -0.2551  1.2858  0.0928
   69SLPC  H17S 5909   4.722   1.027   8.869 -1.3992 -0.2913 -2.6191
   69SLPC  C218 5910   4.731   1.229   8.813 -0.4602 -1.0105 -0.3638
   69SLPC  H18R 5911   4.796   1.197   8.729 -1.8750 -0.4996 -1.6915
   69SLPC  H18S 5912   4.804   1.265   8.889 -0.8792 -3.6561  1.4400
   69SLPC  H18T 5913   4.659   1.306   8.778  0.2836  0.2903  0.8653
   69SLPC   C33 5914   4.368   1.331  10.270 -0.1071 -0.4997 -0.2644
   69SLPC   H3X 5915   4.333   1.417  10.210 -2.2132 -1.8818 -1.1481
   69SLPC   H3Y 5916   4.282   1.312  10.338  0.1223  0.7499  0.3960
   69SLPC   C34 5917   4.400   1.214  10.182 -1.1251  0.4463  0.4981
   69SLPC   H4X 5918   4.309   1.173  10.133 -1.4636  2.9541 -1.1572
   69SLPC   H4Y 5919   4.436   1.134  10.251 -1.0616  0.4118  0.4262
   69SLPC   C35 5920   4.495   1.249  10.064 -0.1437 -0.2488 -0.3323
   69SLPC   H5X 5921   4.508   1.151  10.013 -2.7088 -0.6603 -0.3075
   69SLPC   H5Y 5922   4.595   1.279  10.103  0.1572 -0.9997 -0.5068
   69SLPC   C36 5923   4.435   1.352   9.965 -0.1525 -0.1093 -0.1195
   69SLPC   H6X 5924   4.518   1.424   9.952  0.6646 -0.9310  0.3353
   69SLPC   H6Y 5925   4.355   1.414  10.010  0.5915  0.8924 -0.1514
   69SLPC   C37 5926   4.423   1.288   9.826 -0.1553 -0.7737 -0.6460
   69SLPC   H7X 5927   4.326   1.233   9.828 -0.5894 -0.0008 -0.1146
   69SLPC   H7Y 5928   4.510   1.221   9.807  0.8808  0.6498 -1.1584
   69SLPC   C38 5929   4.424   1.401   9.715  0.7361 -0.4862  0.0133
   69SLPC   H8X 5930   4.526   1.444   9.722  0.5194 -0.2037  2.8480
   69SLPC   H8Y 5931   4.358   1.474   9.768 -1.0031 -1.1868 -1.1145
   69SLPC   C39 5932   4.384   1.347   9.578 -0.4440 -0.1820 -0.2056
   69SLPC   H9X 5933   4.277   1.319   9.583 -0.8151  1.4172  2.6663
   69SLPC   H9Y 5934   4.441   1.257   9.545 -2.7032 -1.1902 -1.6535
   69SLPC  C310 5935   4.412   1.445   9.468 -0.2284 -0.1098  0.4004
   69SLPC  H10X 5936   4.521   1.464   9.458 -0.4885  0.4996 -1.9470
   69SLPC  H10Y 5937   4.369   1.545   9.493  0.8467  1.8959 -4.4960
   69SLPC  C311 5938   4.350   1.398   9.332  0.1037  0.3152  0.3508
   69SLPC  H11X 5939   4.240   1.378   9.337  0.0655 -1.0889 -3.1275
   69SLPC  H11Y 5940   4.399   1.310   9.287 -0.9154 -0.0028 -0.1807
   69SLPC  C312 5941   4.388   1.509   9.233 -0.2476 -0.5443  0.1599
   69SLPC  H12X 5942   4.499   1.506   9.226 -0.2872 -1.3384 -0.2908
   69SLPC  H12Y 5943   4.362   1.613   9.261 -3.0088 -0.6120 -1.7535
   69SLPC  C313 5944   4.313   1.486   9.099 -0.6371  0.3565 -0.7636
   69SLPC  H13X 5945   4.206   1.460   9.112  0.4658 -4.6458  0.6863
   69SLPC  H13Y 5946   4.349   1.386   9.066 -0.1686  0.4887 -0.6666
   69SLPC  C314 5947   4.342   1.592   8.990  0.3785 -0.0455 -0.5607
   69SLPC  H14X 5948   4.450   1.587   8.966  0.5147 -0.3470  0.1060
   69SLPC  H14Y 5949   4.319   1.693   9.030  0.6139 -0.0119 -0.5097
   69SLPC  C315 5950   4.293   1.563   8.851  0.0020  0.0173  0.6876
   69SLPC  H15X 5951   4.281   1.649   8.782  0.4290 -0.3298  0.1775
   69SLPC  H15Y 5952   4.184   1.542   8.860 -0.2164  1.1715  0.9070
   69SLPC  C316 5953   4.363   1.452   8.763 -0.3994 -0.6520  0.1070
   69SLPC  H16X 5954   4.397   1.364   8.822 -1.4078 -1.2787 -0.2311
   69SLPC  H16Y 5955   4.455   1.507   8.734 -1.0385  0.2971 -0.1232
   69SLPC  C317 5956   4.276   1.406   8.649  0.4766  0.2863  0.1066
   69SLPC  H17X 5957   4.338   1.343   8.581  0.6455 -0.7935  1.2279
   69SLPC  H17Y 5958   4.243   1.497   8.594  1.1223  0.4336 -0.0542
   69SLPC  C318 5959   4.148   1.321   8.694  0.4409  0.2828 -0.5607
   69SLPC  H18X 5960   4.079   1.314   8.607 -0.1980  0.8397 -0.1099
   69SLPC  H18Y 5961   4.091   1.370   8.776  2.6269  1.7536  0.1900
   69SLPC  H18Z 5962   4.178   1.220   8.730 -1.5045 -0.6367 -1.3861
   70SLPC     N 5963   1.312   5.554  11.227 -0.4267 -0.7980  0.1013
   70SLPC   C13 5964   1.184   5.591  11.290 -0.3918 -0.1959  0.2331
   70SLPC  H13A 5965   1.110   5.600  11.213 -1.7948  0.0105  1.5567
   70SLPC  H13B 5966   1.151   5.517  11.361  0.3380  0.4398  1.2761
   70SLPC  H13C 5967   1.199   5.688  11.336 -1.3657  0.6734 -1.2068
   70SLPC   C14 5968   1.412   5.501  11.329 -0.0542 -0.2943  0.2633
   70SLPC  H14A 5969   1.506   5.467  11.289 -0.3671  0.0605 -0.8037
   70SLPC  H14B 5970   1.438   5.574  11.404  2.8310  0.4684 -1.3276
   70SLPC  H14C 5971   1.363   5.415  11.373  0.5758  0.6182  2.9428
   70SLPC   C15 5972   1.379   5.680  11.171 -0.4039  0.1334  0.5874
   70SLPC  H15A 5973   1.328   5.744  11.100 -0.6627 -0.6587  0.0485
   70SLPC  H15B 5974   1.386   5.749  11.254 -3.7057  0.3332  0.8517
   70SLPC  H15C 5975   1.475   5.659  11.127  0.6179  0.9795  2.3123
   70SLPC   C12 5976   1.297   5.435  11.127  0.1218  0.3386  0.3148
   70SLPC  H12A 5977   1.235   5.366  11.182  2.1105 -1.5361  0.3380
   70SLPC  H12B 5978   1.392   5.387  11.110 -0.7220 -0.8479 -1.2287
   70SLPC   C11 5979   1.242   5.464  10.983  0.4197 -0.4076 -0.1660
   70SLPC  H11A 5980   1.223   5.364  10.937 -0.2262  0.5769 -2.1317
   70SLPC  H11B 5981   1.317   5.520  10.924 -0.7253  1.0673 -0.2869
   70SLPC     P 5982   1.094   5.665  10.932  0.0541 -0.2931  0.1328
   70SLPC   O13 5983   1.017   5.757  11.017 -0.4943  0.2568 -0.3806
   70SLPC   O14 5984   1.220   5.723  10.885 -0.4039  0.1464 -0.7070
   70SLPC   O12 5985   1.119   5.529  11.004  0.6272 -0.0435  0.2129
   70SLPC   O11 5986   1.018   5.627  10.806  0.7421  0.6652  0.0523
   70SLPC    C1 5987   0.946   5.502  10.795  0.4001  0.4935  0.1052
   70SLPC    HA 5988   1.011   5.414  10.816  1.2988  0.8760 -0.9779
   70SLPC    HB 5989   0.854   5.504  10.857 -0.1363  0.7829 -0.6734
   70SLPC    C2 5990   0.901   5.490  10.647 -0.1195 -0.6210 -0.1063
   70SLPC    HS 5991   0.997   5.472  10.594 -0.0375 -0.9921  0.1683
   70SLPC   O21 5992   0.835   5.613  10.604  0.1316 -0.1281 -0.3064
   70SLPC   C21 5993   0.856   5.644  10.476 -0.4129 -0.2210  0.5238
   70SLPC   O22 5994   0.919   5.572  10.399  0.2331  0.0806  0.1576
   70SLPC   C22 5995   0.796   5.782  10.440 -0.2721  0.2564  0.0787
   70SLPC   H2R 5996   0.743   5.824  10.528 -0.3571  2.5768 -1.0010
   70SLPC   H2S 5997   0.873   5.861  10.424 -0.1154 -0.1810 -1.5181
   70SLPC    C3 5998   0.821   5.358  10.618  0.0290 -0.8957 -0.1965
   70SLPC    HX 5999   0.742   5.360  10.696  2.8482  3.2596  2.9887
   70SLPC    HY 6000   0.887   5.270  10.635  0.7841 -0.1799  0.7535
   70SLPC   O31 6001   0.754   5.344  10.494  0.4911  0.1296 -0.5118
   70SLPC   C31 6002   0.820   5.307  10.390  0.0531  0.8303  1.3333
   70SLPC   O32 6003   0.937   5.263  10.396  0.2199 -0.4051 -0.7230
   70SLPC   C32 6004   0.734   5.313  10.257  0.4228  0.3380  0.3661
   70SLPC   H2X 6005   0.637   5.363  10.278 -0.3220 -0.1391 -1.6195
   70SLPC   H2Y 6006   0.701   5.209  10.232 -1.8221  1.0908 -0.0599
   70SLPC   C23 6007   0.696   5.774  10.325 -0.0717  1.0062  0.3028
   70SLPC   H3R 6008   0.604   5.836  10.327 -1.5202 -1.0693  2.2017
   70SLPC   H3S 6009   0.651   5.673  10.318 -1.6286  1.7023 -0.1903
   70SLPC   C24 6010   0.768   5.816  10.201  0.4965 -0.8466  0.4241
   70SLPC   H4R 6011   0.864   5.761  10.188  0.1680 -1.0077 -1.8222
   70SLPC   H4S 6012   0.790   5.924  10.206  0.3299 -0.8328  0.8751
   70SLPC   C25 6013   0.696   5.794  10.063 -0.6046 -0.0062  0.0870
   70SLPC   H5R 6014   0.590   5.827  10.075 -0.5945  1.5486 -3.1786
   70SLPC   H5S 6015   0.695   5.689  10.027 -0.3600  0.2571 -0.6871
   70SLPC   C26 6016   0.751   5.867   9.950  0.2668 -0.3192 -1.0841
   70SLPC   H6R 6017   0.851   5.828   9.924 -0.7174 -2.1099 -2.3846
   70SLPC   H6S 6018   0.760   5.975   9.976 -2.9593 -0.3058  0.5392
   70SLPC   C27 6019   0.664   5.842   9.827  0.0878 -0.2722 -0.7762
   70SLPC   H7R 6020   0.557   5.841   9.856  0.1560  2.3370 -0.2115
   70SLPC   H7S 6021   0.684   5.739   9.790  0.4732 -1.1736  1.7579
   70SLPC   C28 6022   0.683   5.958   9.723  0.1776  0.6082  0.1674
   70SLPC   H8R 6023   0.789   5.966   9.692 -0.3373  0.4919 -1.7202
   70SLPC   H8S 6024   0.646   6.050   9.773 -0.5160  1.5942 -2.0771
   70SLPC   C29 6025   0.604   5.917   9.598  0.0697  0.1778 -0.3923
   70SLPC   H9R 6026   0.509   5.862   9.608 -0.1626  0.6643  0.1140
   70SLPC  C210 6027   0.639   5.936   9.471 -0.4725  0.7681 -0.1157
   70SLPC  H10R 6028   0.568   5.882   9.407  1.1010 -2.4274  0.6204
   70SLPC  C211 6029   0.764   5.993   9.416 -0.0347 -0.1935  0.4220
   70SLPC  H11R 6030   0.822   5.903   9.383  0.9551  0.1877  1.0627
   70SLPC  H11S 6031   0.820   6.058   9.486 -0.0065 -0.6738  0.8491
   70SLPC  C212 6032   0.741   6.082   9.299 -0.3564  0.3363  1.3983
   70SLPC  H12R 6033   0.638   6.119   9.286 -0.0801  1.0160  1.1020
   70SLPC  C213 6034   0.828   6.111   9.198  0.1183  0.3608 -0.1832
   70SLPC  H13R 6035   0.802   6.195   9.132  0.3628  1.3119  0.9001
   70SLPC  C214 6036   0.965   6.055   9.192  0.0262 -0.4154 -0.0770
   70SLPC  H14R 6037   0.973   5.967   9.260  1.8908  0.5058  0.9515
   70SLPC  H14S 6038   1.038   6.131   9.225 -0.6253  1.0535 -1.8747
   70SLPC  C215 6039   1.011   6.005   9.063  0.4372  0.6345 -0.6766
   70SLPC  H15R 6040   0.934   5.936   9.023 -0.4020  1.1457  0.0215
   70SLPC  H15S 6041   1.103   5.947   9.085 -0.1688  0.1414  0.6464
   70SLPC  C216 6042   1.044   6.114   8.967  0.1834 -0.1532 -0.0567
   70SLPC  H16R 6043   1.138   6.163   8.999  1.4358 -2.3021 -0.2231
   70SLPC  H16S 6044   0.971   6.196   8.954  1.4197  1.1550  0.8323
   70SLPC  C217 6045   1.078   6.066   8.827  0.5790 -0.0115 -0.6125
   70SLPC  H17R 6046   0.981   6.026   8.792  1.1788  0.5913 -3.2052
   70SLPC  H17S 6047   1.143   5.979   8.848 -0.1711 -0.0840  1.6838
   70SLPC  C218 6048   1.124   6.170   8.724 -0.0686  0.0467 -0.0019
   70SLPC  H18R 6049   1.063   6.261   8.712  0.0601  0.0884 -0.3681
   70SLPC  H18S 6050   1.127   6.122   8.623  3.7224 -2.3852  1.0271
   70SLPC  H18T 6051   1.227   6.202   8.752  1.5348 -3.1718 -1.6084
   70SLPC   C33 6052   0.807   5.373  10.130 -0.1581 -0.1166  0.5135
   70SLPC   H3X 6053   0.899   5.323  10.094  1.3523  1.7620  1.6032
   70SLPC   H3Y 6054   0.833   5.480  10.142  0.2558  0.1343 -2.0982
   70SLPC   C34 6055   0.700   5.377  10.019  0.3457  0.4090  0.3617
   70SLPC   H4X 6056   0.611   5.439  10.040  0.0532  0.5280 -1.1223
   70SLPC   H4Y 6057   0.662   5.273  10.008 -3.0729  1.6590 -1.0343
   70SLPC   C35 6058   0.759   5.417   9.891  0.5307 -0.4361  0.7953
   70SLPC   H5X 6059   0.826   5.334   9.859  0.0028 -0.7590  0.5127
   70SLPC   H5Y 6060   0.814   5.513   9.886  1.1523 -0.8567 -1.7727
   70SLPC   C36 6061   0.656   5.415   9.779  0.0361 -0.2850  0.0029
   70SLPC   H6X 6062   0.574   5.479   9.818 -0.0507 -0.4113  0.0296
   70SLPC   H6Y 6063   0.613   5.313   9.768  2.8164 -1.6118  0.4834
   70SLPC   C37 6064   0.710   5.455   9.645  0.0529  0.1310  0.0348
   70SLPC   H7X 6065   0.771   5.374   9.599  0.7954 -0.0867  1.3523
   70SLPC   H7Y 6066   0.773   5.545   9.660  0.5158 -0.1055 -0.4548
   70SLPC   C38 6067   0.597   5.494   9.540 -0.3355  1.2454 -0.6376
   70SLPC   H8X 6068   0.551   5.587   9.580 -1.2300 -0.0285  1.5585
   70SLPC   H8Y 6069   0.517   5.416   9.542  0.6006  0.2524  0.9879
   70SLPC   C39 6070   0.666   5.527   9.404 -0.1176 -0.6454  0.4876
   70SLPC   H9X 6071   0.720   5.437   9.368  0.2746 -0.2852  0.1684
   70SLPC   H9Y 6072   0.754   5.592   9.425  1.2011 -2.5053  1.0140
   70SLPC  C310 6073   0.571   5.575   9.294  0.4064  0.1091  0.7281
   70SLPC  H10X 6074   0.514   5.661   9.334  2.7326  2.0136  0.1719
   70SLPC  H10Y 6075   0.493   5.500   9.269 -0.6290  1.7042 -1.1172
   70SLPC  C311 6076   0.637   5.620   9.163  0.4566  0.0482  0.5371
   70SLPC  H11X 6077   0.690   5.531   9.123 -2.9641 -2.1126  0.4205
   70SLPC  H11Y 6078   0.719   5.690   9.189  0.4108  0.8725 -1.3820
   70SLPC  C312 6079   0.538   5.663   9.059 -0.4444  0.0689 -0.5796
   70SLPC  H12X 6080   0.473   5.747   9.093  0.1920 -0.0225  0.9405
   70SLPC  H12Y 6081   0.468   5.578   9.045  1.8703 -2.1979  0.8644
   70SLPC  C313 6082   0.605   5.685   8.921  0.3938  0.9231 -0.8692
   70SLPC  H13X 6083   0.525   5.656   8.850  0.3032 -0.2883 -0.2983
   70SLPC  H13Y 6084   0.674   5.600   8.902 -0.0055  0.6204 -0.9953
   70SLPC  C314 6085   0.667   5.815   8.882  0.7241 -0.8863 -0.1575
   70SLPC  H14X 6086   0.730   5.802   8.791 -0.2195 -1.1855 -0.7811
   70SLPC  H14Y 6087   0.736   5.861   8.956  0.4776  0.7528 -0.8932
   70SLPC  C315 6088   0.548   5.916   8.862  0.1691 -0.3117 -0.3949
   70SLPC  H15X 6089   0.498   5.922   8.961 -0.3764  1.4579 -0.7485
   70SLPC  H15Y 6090   0.475   5.876   8.789  0.8809 -1.5855 -0.4308
   70SLPC  C316 6091   0.588   6.052   8.815 -0.0745  0.2919 -1.2569
   70SLPC  H16X 6092   0.672   6.084   8.880  0.2338 -0.8904 -1.0476
   70SLPC  H16Y 6093   0.507   6.125   8.835  1.2471  1.6644 -0.6749
   70SLPC  C317 6094   0.646   6.053   8.672 -0.1187  0.2462  0.0570
   70SLPC  H17X 6095   0.707   5.961   8.654  0.6886  0.6112  0.8484
   70SLPC  H17Y 6096   0.713   6.140   8.657 -0.6942  0.4172 -1.7879
   70SLPC  C318 6097   0.545   6.053   8.560  0.0365 -0.1373 -0.3549
   70SLPC  H18X 6098   0.493   6.151   8.571 -0.8727 -0.7003  0.5549
   70SLPC  H18Y 6099   0.469   5.972   8.563  1.1315 -1.1733  0.0557
   70SLPC  H18Z 6100   0.588   6.052   8.458 -1.6683 -0.5288 -1.1087
   71SLPC     N 6101   6.102   5.008  10.697  0.3329 -0.4476 -0.3144
   71SLPC   C13 6102   6.175   5.133  10.747  0.1479 -0.3888  0.3122
   71SLPC  H13A 6103   6.103   5.196  10.798  0.0203 -1.0326  0.9420
   71SLPC  H13B 6104   6.249   5.122  10.824 -0.1260 -0.1558  0.6160
   71SLPC  H13C 6105   6.223   5.178  10.661  1.5526 -1.7892  0.3210
   71SLPC   C14 6106   6.201   4.914  10.636  0.2785 -0.3287  0.0196
   71SLPC  H14A 6107   6.243   4.957  10.546  0.2296 -0.2280  0.0447
   71SLPC  H14B 6108   6.283   4.901  10.705  0.2355  1.9879  0.5934
   71SLPC  H14C 6109   6.157   4.823  10.597  1.4793 -0.6956 -0.5060
   71SLPC   C15 6110   6.001   5.054  10.592 -0.2508 -0.5018  0.6457
   71SLPC  H15A 6111   5.923   5.112  10.640  1.0881  2.5605 -0.6049
   71SLPC  H15B 6112   6.049   5.120  10.522  2.7026 -2.6060  0.4976
   71SLPC  H15C 6113   5.962   4.966  10.542 -0.2784 -0.6498  0.9265
   71SLPC   C12 6114   6.027   4.934  10.803 -0.5373 -0.3116  0.2113
   71SLPC  H12A 6115   5.980   5.001  10.873 -0.5817  1.0996 -1.1326
   71SLPC  H12B 6116   6.104   4.885  10.861  0.7846  0.2070 -1.0452
   71SLPC   C11 6117   5.936   4.827  10.760 -0.1076 -0.4476 -0.4352
   71SLPC  H11A 6118   5.842   4.870  10.719 -0.3288  2.2335  2.5413
   71SLPC  H11B 6119   5.889   4.774  10.845 -0.0117  0.2206  0.0376
   71SLPC     P 6120   5.933   4.660  10.553 -0.0738 -0.2882  0.4717
   71SLPC   O13 6121   6.027   4.564  10.491  0.4769 -0.6548  0.0013
   71SLPC   O14 6122   5.797   4.604  10.576  0.3559  0.4477 -0.4726
   71SLPC   O12 6123   6.007   4.723  10.688  0.2654  0.5140 -0.0445
   71SLPC   O11 6124   5.901   4.790  10.461  0.0733 -0.1259  0.0073
   71SLPC    C1 6125   5.988   4.822  10.353 -0.0208  0.2003 -0.2028
   71SLPC    HA 6126   5.978   4.930  10.329  1.1856 -0.1197 -2.4039
   71SLPC    HB 6127   6.094   4.804  10.380 -0.9283 -1.5165  2.6213
   71SLPC    C2 6128   5.939   4.748  10.225  0.3623  0.5014 -0.1818
   71SLPC    HS 6129   5.973   4.643  10.233 -0.6428  0.1057 -0.8869
   71SLPC   O21 6130   5.994   4.815  10.110  0.2378 -0.2594  0.2185
   71SLPC   C21 6131   6.000   4.729  10.002 -0.0268  0.2857  0.8044
   71SLPC   O22 6132   5.980   4.611  10.015  0.2800 -0.1519  0.4508
   71SLPC   C22 6133   6.016   4.804   9.867  0.4692 -0.7887 -0.0480
   71SLPC   H2R 6134   5.948   4.891   9.862  0.4592 -0.6298  1.8705
   71SLPC   H2S 6135   6.120   4.843   9.861  0.8301 -1.5165  1.0601
   71SLPC    C3 6136   5.780   4.747  10.224  0.0837 -0.0647 -0.2053
   71SLPC    HX 6137   5.732   4.847  10.224 -0.3314 -0.1970  2.3268
   71SLPC    HY 6138   5.735   4.710  10.318 -3.6696  1.9485 -1.0180
   71SLPC   O31 6139   5.718   4.677  10.107  0.1814  0.3549 -0.1331
   71SLPC   C31 6140   5.728   4.542  10.121  1.4457 -0.7895 -0.5230
   71SLPC   O32 6141   5.773   4.480  10.214 -0.3019 -0.0053  0.2557
   71SLPC   C32 6142   5.678   4.480   9.995  0.2999  0.3222 -0.4104
   71SLPC   H2X 6143   5.702   4.549   9.911  0.3869  1.0318  0.1870
   71SLPC   H2Y 6144   5.567   4.470  10.004  0.5293 -1.4660  0.9389
   71SLPC   C23 6145   6.006   4.715   9.742  0.5735  0.0153  0.0295
   71SLPC   H3R 6146   5.906   4.668   9.746  2.0901 -3.5060  0.6020
   71SLPC   H3S 6147   6.089   4.644   9.762 -0.0354 -0.3681  1.2491
   71SLPC   C24 6148   6.019   4.796   9.610  0.8471  0.8700 -0.8827
   71SLPC   H4R 6149   6.111   4.857   9.625  0.4346  1.7063 -1.6450
   71SLPC   H4S 6150   5.941   4.875   9.604  0.5705  0.6908  0.1220
   71SLPC   C25 6151   6.031   4.699   9.490  0.1372 -0.1687 -0.0437
   71SLPC   H5R 6152   5.951   4.621   9.498  1.7074 -1.6738  3.8349
   71SLPC   H5S 6153   6.129   4.647   9.493 -0.3531 -1.1794 -0.7345
   71SLPC   C26 6154   6.011   4.781   9.358 -0.4644 -0.1215  0.4236
   71SLPC   H6R 6155   6.065   4.878   9.354 -1.3632  0.3481 -2.0647
   71SLPC   H6S 6156   5.903   4.805   9.346 -0.2232  1.2714  0.8933
   71SLPC   C27 6157   6.058   4.694   9.234  0.4430  0.8376  0.0875
   71SLPC   H7R 6158   6.000   4.599   9.234 -1.5204  1.9796 -0.5515
   71SLPC   H7S 6159   6.166   4.671   9.250 -0.0222 -1.2905  0.4769
   71SLPC   C28 6160   6.049   4.773   9.101  0.3789 -0.1753 -0.0644
   71SLPC   H8R 6161   6.116   4.735   9.021 -0.0978  0.8315 -0.9792
   71SLPC   H8S 6162   6.085   4.875   9.125  1.6821 -0.6758  0.1877
   71SLPC   C29 6163   5.897   4.765   9.065 -0.5306 -0.3574  0.5238
   71SLPC   H9R 6164   5.838   4.850   9.104 -0.6538  0.2643 -0.9336
   71SLPC  C210 6165   5.843   4.685   8.968  0.8372  0.3464  0.0502
   71SLPC  H10R 6166   5.733   4.674   8.967  0.7071  1.5013 -0.2270
   71SLPC  C211 6167   5.908   4.583   8.881 -0.1800 -0.1032 -0.0099
   71SLPC  H11R 6168   6.019   4.586   8.886 -0.0965 -2.7439  1.6066
   71SLPC  H11S 6169   5.891   4.605   8.773  2.6255  1.7959 -0.1753
   71SLPC  C212 6170   5.871   4.445   8.932 -0.0860  0.2458 -0.4750
   71SLPC  H12R 6171   5.880   4.429   9.041 -1.6388  2.6817  0.0855
   71SLPC  C213 6172   5.843   4.341   8.856  0.2220 -0.6025 -0.2194
   71SLPC  H13R 6173   5.834   4.245   8.910 -2.4441 -0.9992 -1.2197
   71SLPC  C214 6174   5.826   4.336   8.709  0.5645 -0.3216 -0.2623
   71SLPC  H14R 6175   5.834   4.437   8.664 -1.5129 -0.1251 -0.2482
   71SLPC  H14S 6176   5.726   4.294   8.687  1.0412 -0.9688 -1.2598
   71SLPC  C215 6177   5.927   4.252   8.637  0.0969  0.2399 -0.1604
   71SLPC  H15R 6178   5.916   4.150   8.678 -2.8365  1.2233  1.8653
   71SLPC  H15S 6179   6.033   4.283   8.642  0.7313 -1.3410 -2.5031
   71SLPC  C216 6180   5.901   4.232   8.485  0.3206 -0.7609  1.1256
   71SLPC  H16R 6181   5.991   4.204   8.425 -0.8642 -0.5155 -0.8678
   71SLPC  H16S 6182   5.865   4.324   8.435  2.2746  0.2275  1.4351
   71SLPC  C217 6183   5.786   4.141   8.464  0.5626 -0.0842 -0.1178
   71SLPC  H17R 6184   5.683   4.174   8.490  0.7165  0.3266 -0.0153
   71SLPC  H17S 6185   5.796   4.049   8.524  0.8943 -0.6033 -0.9531
   71SLPC  C218 6186   5.766   4.096   8.317 -0.3972  0.5473 -0.1724
   71SLPC  H18R 6187   5.860   4.066   8.266 -0.7702 -3.2431  1.0648
   71SLPC  H18S 6188   5.716   4.165   8.245 -0.5308 -2.2386 -2.9550
   71SLPC  H18T 6189   5.709   4.001   8.320  2.1709 -1.0989 -0.4355
   71SLPC   C33 6190   5.737   4.337   9.977  0.2314 -0.0322  0.0517
   71SLPC   H3X 6191   5.706   4.283  10.069  0.3543 -1.0749 -0.5044
   71SLPC   H3Y 6192   5.848   4.339   9.977  0.2281  1.1173  0.9467
   71SLPC   C34 6193   5.687   4.252   9.857 -0.2992  0.2112  0.7065
   71SLPC   H4X 6194   5.576   4.245   9.853 -0.1524 -3.7025 -1.9365
   71SLPC   H4Y 6195   5.726   4.149   9.870  1.4050  0.4501 -1.7465
   71SLPC   C35 6196   5.737   4.301   9.724  0.2441 -0.4227  0.4384
   71SLPC   H5X 6197   5.848   4.303   9.724  0.2437  1.7096  1.1441
   71SLPC   H5Y 6198   5.708   4.404   9.695 -1.1157 -1.6048 -2.8542
   71SLPC   C36 6199   5.693   4.209   9.607 -0.3297 -0.1590  0.3445
   71SLPC   H6X 6200   5.582   4.202   9.599 -0.2192 -0.6926 -0.8335
   71SLPC   H6Y 6201   5.727   4.105   9.621 -1.9167 -0.7837 -0.1894
   71SLPC   C37 6202   5.735   4.264   9.468  0.1019  0.6559 -0.4991
   71SLPC   H7X 6203   5.692   4.197   9.391  0.5645  0.6972 -0.7951
   71SLPC   H7Y 6204   5.843   4.247   9.454  0.0408 -0.1393 -0.0948
   71SLPC   C38 6205   5.690   4.409   9.432  0.2886  0.6403 -0.8645
   71SLPC   H8X 6206   5.750   4.479   9.494 -1.3444  0.7380  0.7123
   71SLPC   H8Y 6207   5.583   4.416   9.460 -0.1366 -2.6719 -1.2444
   71SLPC   C39 6208   5.712   4.439   9.288 -0.1254 -0.3432 -0.0016
   71SLPC   H9X 6209   5.816   4.412   9.262 -0.4300  0.2019 -2.0089
   71SLPC   H9Y 6210   5.701   4.546   9.261  2.0867 -0.5286 -1.8768
   71SLPC  C310 6211   5.624   4.364   9.187  0.4354  0.3662 -0.4267
   71SLPC  H10X 6212   5.621   4.254   9.205 -0.4352  0.2813 -1.0365
   71SLPC  H10Y 6213   5.675   4.380   9.090  2.4239 -0.2602  0.4462
   71SLPC  C311 6214   5.489   4.424   9.173 -0.5504 -0.4055 -0.3137
   71SLPC  H11X 6215   5.487   4.535   9.164  1.3744 -0.2602  0.5349
   71SLPC  H11Y 6216   5.431   4.408   9.266  1.6764  0.5437  1.3175
   71SLPC  C312 6217   5.415   4.365   9.051  0.8598  0.4260 -0.1962
   71SLPC  H12X 6218   5.393   4.258   9.073  0.6339  0.9019  2.1071
   71SLPC  H12Y 6219   5.451   4.368   8.946 -0.3941  0.3756 -0.6477
   71SLPC  C313 6220   5.281   4.432   9.033  0.7801 -0.1356  0.2235
   71SLPC  H13X 6221   5.300   4.538   9.010 -1.4899  1.0941  3.2512
   71SLPC  H13Y 6222   5.216   4.443   9.123  0.3529 -0.8858  0.0216
   71SLPC  C314 6223   5.188   4.372   8.921 -0.5870  0.4237  0.2318
   71SLPC  H14X 6224   5.167   4.265   8.942  1.6527 -1.0508 -3.8327
   71SLPC  H14Y 6225   5.255   4.358   8.833 -1.1635 -3.1764  0.2224
   71SLPC  C315 6226   5.060   4.455   8.895 -0.1890  0.2928  0.6484
   71SLPC  H15X 6227   5.086   4.561   8.875  1.9520 -0.5931 -1.9845
   71SLPC  H15Y 6228   4.986   4.442   8.977 -0.9790 -0.0928 -0.1053
   71SLPC  C316 6229   4.993   4.398   8.760 -1.1601  0.2884 -0.7956
   71SLPC  H16X 6230   4.995   4.290   8.784  1.8491  0.4567  0.2080
   71SLPC  H16Y 6231   5.064   4.431   8.680 -1.6980 -1.3510 -2.0095
   71SLPC  C317 6232   4.855   4.457   8.735 -0.3649  0.6852 -0.2059
   71SLPC  H17X 6233   4.789   4.447   8.824 -0.2517  1.4554 -0.0307
   71SLPC  H17Y 6234   4.805   4.422   8.641 -0.5790  1.4293 -0.3736
   71SLPC  C318 6235   4.864   4.602   8.696 -0.1341 -0.5419 -0.7197
   71SLPC  H18X 6236   4.944   4.628   8.624 -1.7158  1.8764 -1.7692
   71SLPC  H18Y 6237   4.900   4.661   8.783  1.7872 -1.2962 -0.9627
   71SLPC  H18Z 6238   4.765   4.643   8.664 -1.6208 -2.7618  0.7223
   72SLPC     N 6239   0.393   1.163  11.039  0.1309 -0.3053  0.3197
   72SLPC   C13 6240   0.294   1.204  11.140  0.2806 -0.4195  0.1597
   72SLPC  H13A 6241   0.264   1.127  11.210 -0.3396 -0.4395 -0.1222
   72SLPC  H13B 6242   0.333   1.295  11.184 -2.2996  1.4277 -1.1063
   72SLPC  H13C 6243   0.204   1.227  11.085  0.6685 -0.6078 -0.5644
   72SLPC   C14 6244   0.509   1.104  11.103  0.3395  0.1636  0.6877
   72SLPC  H14A 6245   0.558   1.183  11.158  2.3008  0.7279 -1.7188
   72SLPC  H14B 6246   0.473   1.018  11.159 -0.6703 -0.4921 -0.8872
   72SLPC  H14C 6247   0.587   1.076  11.034  0.6056  0.4522  0.8690
   72SLPC   C15 6248   0.424   1.294  10.974  0.1878 -0.3822 -0.4121
   72SLPC  H15A 6249   0.480   1.357  11.041 -0.5868 -1.0417  0.9101
   72SLPC  H15B 6250   0.487   1.278  10.888 -1.1441 -1.5887 -1.1964
   72SLPC  H15C 6251   0.335   1.341  10.936  0.3195 -1.1677 -1.7426
   72SLPC   C12 6252   0.324   1.065  10.942 -0.1280  0.3326 -0.0172
   72SLPC  H12A 6253   0.333   0.967  10.987  1.6023  0.2089 -0.5613
   72SLPC  H12B 6254   0.376   1.055  10.848 -0.4874  0.1013 -0.1943
   72SLPC   C11 6255   0.177   1.093  10.906  1.0347 -0.0152 -0.3576
   72SLPC  H11A 6256   0.114   1.081  10.997  0.0949 -0.0504 -0.9909
   72SLPC  H11B 6257   0.134   1.023  10.831 -1.4422  3.1994 -2.2051
   72SLPC     P 6258   0.035   1.312  10.891  0.0582  0.3800 -0.0182
   72SLPC   O13 6259   0.013   1.293  11.036  0.0928  0.2686  0.3330
   72SLPC   O14 6260   0.051   1.449  10.839  0.6038  0.1806 -0.1460
   72SLPC   O12 6261   0.161   1.225  10.846 -0.5331 -0.4769 -0.6139
   72SLPC   O11 6262  -0.086   1.241  10.817  0.1443  0.4949  0.6147
   72SLPC    C1 6263  -0.208   1.322  10.824  0.0919 -0.0999  0.2676
   72SLPC    HA 6264  -0.246   1.325  10.928  0.4038 -1.7800  0.4528
   72SLPC    HB 6265  -0.198   1.425  10.784 -0.6578  1.1428  2.9993
   72SLPC    C2 6266  -0.317   1.248  10.733 -0.3845 -0.0412 -0.1351
   72SLPC    HS 6267  -0.316   1.142  10.766  1.5784 -0.9561 -2.7861
   72SLPC   O21 6268  -0.269   1.251  10.599 -0.3621  0.0121  0.6168
   72SLPC   C21 6269  -0.312   1.146  10.522  0.0113 -0.2438  0.0026
   72SLPC   O22 6270  -0.365   1.044  10.570 -0.0340 -0.4681  0.2918
   72SLPC   C22 6271  -0.287   1.168  10.378  0.1028  0.2866 -0.1446
   72SLPC   H2R 6272  -0.317   1.272  10.354  1.0636  0.5484 -0.2837
   72SLPC   H2S 6273  -0.182   1.142  10.351 -0.4062  1.4431 -3.7550
   72SLPC    C3 6274  -0.464   1.314  10.742 -0.2760 -0.4022 -0.5532
   72SLPC    HX 6275  -0.442   1.422  10.740  0.4510 -0.5561 -1.0494
   72SLPC    HY 6276  -0.498   1.283  10.844  1.3556  0.5318  0.3164
   72SLPC   O31 6277  -0.556   1.266  10.650  0.7463 -0.1489 -0.0643
   72SLPC   C31 6278  -0.627   1.355  10.577 -0.4188 -0.4039  0.1087
   72SLPC   O32 6279  -0.588   1.471  10.553 -0.0219  0.0115  0.0216
   72SLPC   C32 6280  -0.727   1.271  10.496  0.1484  0.1639 -0.2855
   72SLPC   H2X 6281  -0.787   1.214  10.570  1.0039  1.3285  1.3882
   72SLPC   H2Y 6282  -0.671   1.207  10.424 -1.3720 -0.7603 -0.6886
   72SLPC   C23 6283  -0.371   1.073  10.284 -0.0138 -0.5970  0.2884
   72SLPC   H3R 6284  -0.477   1.105  10.278  0.3341  0.2741 -2.3947
   72SLPC   H3S 6285  -0.366   0.966  10.316  0.2652 -0.9913 -0.9912
   72SLPC   C24 6286  -0.323   1.070  10.143  0.3053 -0.0585 -0.1325
   72SLPC   H4R 6287  -0.218   1.037  10.130  0.0789 -0.2203 -1.7820
   72SLPC   H4S 6288  -0.312   1.169  10.094  0.5130  0.5031  1.0116
   72SLPC   C25 6289  -0.421   0.985  10.050  0.0670 -0.5116  0.1501
   72SLPC   H5R 6290  -0.516   1.044  10.051  0.8209  0.7412  0.8213
   72SLPC   H5S 6291  -0.444   0.890  10.102  1.0762  0.0721  1.7456
   72SLPC   C26 6292  -0.368   0.961   9.918  0.0638  0.3256  0.1052
   72SLPC   H6R 6293  -0.284   0.888   9.924  0.2050  0.4694 -0.1021
   72SLPC   H6S 6294  -0.330   1.055   9.873 -0.9693  1.6388  1.8673
   72SLPC   C27 6295  -0.468   0.909   9.826 -0.1276 -0.4887  0.5055
   72SLPC   H7R 6296  -0.562   0.967   9.834  0.9616  1.1372  2.0803
   72SLPC   H7S 6297  -0.497   0.811   9.871  1.4298 -1.1228  0.2012
   72SLPC   C28 6298  -0.425   0.902   9.672  0.0358 -0.2766 -0.5759
   72SLPC   H8R 6299  -0.505   0.841   9.626 -2.5543  0.6154  2.3640
   72SLPC   H8S 6300  -0.319   0.870   9.660 -0.1288 -0.8246 -0.6042
   72SLPC   C29 6301  -0.434   1.042   9.623 -0.2584 -0.5335 -0.3170
   72SLPC   H9R 6302  -0.488   1.111   9.688  2.4351  1.1749  0.2775
   72SLPC  C210 6303  -0.410   1.091   9.501  0.5385  0.4378 -0.7533
   72SLPC  H10R 6304  -0.430   1.198   9.482  1.2756  0.1534 -3.5644
   72SLPC  C211 6305  -0.367   1.004   9.384 -0.0077 -0.0298  0.0781
   72SLPC  H11R 6306  -0.459   0.947   9.356  2.3222 -3.1688 -1.9324
   72SLPC  H11S 6307  -0.289   0.931   9.413 -0.1693 -0.7698 -1.2396
   72SLPC  C212 6308  -0.310   1.078   9.267 -0.6923 -0.5605 -0.6921
   72SLPC  H12R 6309  -0.251   1.164   9.301 -0.7055 -0.5162 -0.7823
   72SLPC  C213 6310  -0.316   1.042   9.141  0.6611 -0.6286 -0.0415
   72SLPC  H13R 6311  -0.273   1.109   9.065 -3.0413 -0.3642 -2.1279
   72SLPC  C214 6312  -0.387   0.926   9.083 -0.1018 -0.4779 -0.1682
   72SLPC  H14R 6313  -0.481   0.894   9.133 -1.4644 -1.2708 -3.0287
   72SLPC  H14S 6314  -0.328   0.834   9.109  1.3628  0.9431  1.8901
   72SLPC  C215 6315  -0.425   0.935   8.936 -0.0197  0.3363  0.5694
   72SLPC  H15R 6316  -0.466   1.036   8.911 -0.8163 -0.4588 -1.5308
   72SLPC  H15S 6317  -0.504   0.862   8.911 -0.8313  2.2734 -3.2805
   72SLPC  C216 6318  -0.310   0.912   8.840 -0.1716  0.1154 -0.4809
   72SLPC  H16R 6319  -0.268   0.811   8.861  0.5178 -0.1418 -2.8581
   72SLPC  H16S 6320  -0.231   0.989   8.853 -1.1137  1.3815 -1.9054
   72SLPC  C217 6321  -0.358   0.898   8.697  0.4016 -0.1528 -0.5029
   72SLPC  H17R 6322  -0.412   0.801   8.685 -1.2380  0.6505  0.0348
   72SLPC  H17S 6323  -0.265   0.900   8.636  1.1696 -2.4360  0.5168
   72SLPC  C218 6324  -0.456   1.008   8.650 -0.3347 -0.4933  0.6836
   72SLPC  H18R 6325  -0.548   0.998   8.712  0.0991  1.6659  1.7613
   72SLPC  H18S 6326  -0.477   1.002   8.541  0.0108 -0.1080  0.5956
   72SLPC  H18T 6327  -0.412   1.106   8.677  1.6880 -1.0593 -0.3913
   72SLPC   C33 6328  -0.834   1.350  10.418 -0.3862  0.0206 -0.1685
   72SLPC   H3X 6329  -0.785   1.401  10.332  0.6397 -0.2960  0.2114
   72SLPC   H3Y 6330  -0.881   1.428  10.481 -0.6458 -0.8709  0.7562
   72SLPC   C34 6331  -0.954   1.268  10.366  0.1701 -0.5402  0.2166
   72SLPC   H4X 6332  -1.036   1.330  10.326 -1.7308 -3.4380 -0.7236
   72SLPC   H4Y 6333  -0.998   1.214  10.453 -0.0237 -0.7004  0.0213
   72SLPC   C35 6334  -0.917   1.149  10.275 -0.9903  0.1499 -0.5300
   72SLPC   H5X 6335  -1.003   1.079  10.277 -0.4936 -0.4833 -0.9467
   72SLPC   H5Y 6336  -0.830   1.095  10.320 -0.4314  1.9847  0.7233
   72SLPC   C36 6337  -0.878   1.199  10.134  0.1847 -0.1793 -0.2406
   72SLPC   H6X 6338  -0.778   1.248  10.121 -0.3424  1.1417  0.4559
   72SLPC   H6Y 6339  -0.964   1.257  10.095 -2.6455 -2.9140  1.5478
   72SLPC   C37 6340  -0.879   1.085  10.032  0.2447  0.6637 -0.8073
   72SLPC   H7X 6341  -0.980   1.041  10.023  0.6448 -0.7242  0.8777
   72SLPC   H7Y 6342  -0.822   0.999  10.073  1.2849  0.6589 -2.1881
   72SLPC   C38 6343  -0.837   1.119   9.888 -0.8589  0.1532  0.4836
   72SLPC   H8X 6344  -0.729   1.147   9.886 -0.6788 -0.5288 -0.5181
   72SLPC   H8Y 6345  -0.897   1.208   9.860 -0.9687  0.9711  3.0913
   72SLPC   C39 6346  -0.883   1.013   9.784  0.2852 -0.3145  0.7654
   72SLPC   H9X 6347  -0.994   1.021   9.780  0.2228 -1.1805 -3.0156
   72SLPC   H9Y 6348  -0.854   0.916   9.830 -1.7754 -2.5988 -2.2661
   72SLPC  C310 6349  -0.823   1.048   9.645  0.5583  0.9879  0.0088
   72SLPC  H10X 6350  -0.713   1.034   9.650  0.4117 -0.0456  0.5773
   72SLPC  H10Y 6351  -0.842   1.156   9.629  2.6306  1.8716  2.7215
   72SLPC  C311 6352  -0.890   0.968   9.534 -0.0954 -0.5981  0.1820
   72SLPC  H11X 6353  -0.990   1.002   9.498 -0.5651 -2.0443  0.0612
   72SLPC  H11Y 6354  -0.899   0.866   9.576 -1.2607  0.1176  1.7696
   72SLPC  C312 6355  -0.799   0.958   9.412 -0.1557 -0.1130  0.1381
   72SLPC  H12X 6356  -0.712   0.895   9.441  0.4799  1.0851  0.8959
   72SLPC  H12Y 6357  -0.763   1.058   9.382  1.5801 -0.3739  1.1889
   72SLPC  C313 6358  -0.864   0.901   9.288  0.0273  0.1510 -0.5172
   72SLPC  H13X 6359  -0.959   0.956   9.273 -0.9790 -1.0229  1.1447
   72SLPC  H13Y 6360  -0.878   0.794   9.315  0.7565  0.4154  1.0166
   72SLPC  C314 6361  -0.788   0.910   9.153  0.2054 -0.5271 -0.2934
   72SLPC  H14X 6362  -0.684   0.875   9.167  0.8647  1.8190  1.1984
   72SLPC  H14Y 6363  -0.788   1.017   9.122  0.7397 -0.7420 -1.0429
   72SLPC  C315 6364  -0.850   0.819   9.046 -0.3889 -0.3282  0.1202
   72SLPC  H15X 6365  -0.950   0.858   9.018 -0.7816 -0.8407  0.7698
   72SLPC  H15Y 6366  -0.854   0.722   9.101  2.3456 -0.6493 -0.0850
   72SLPC  C316 6367  -0.763   0.794   8.913 -0.0231  0.2730 -0.3377
   72SLPC  H16X 6368  -0.672   0.737   8.940 -1.5681 -1.7051  0.9867
   72SLPC  H16Y 6369  -0.724   0.893   8.880 -0.3952  1.5480  2.6319
   72SLPC  C317 6370  -0.849   0.705   8.817 -0.6188 -0.6342 -0.6914
   72SLPC  H17X 6371  -0.771   0.688   8.739  0.9464  1.0141  0.4269
   72SLPC  H17Y 6372  -0.947   0.749   8.787 -0.9513 -0.0287  1.1668
   72SLPC  C318 6373  -0.896   0.573   8.878 -0.9719  0.8660 -0.5845
   72SLPC  H18X 6374  -0.964   0.523   8.805  0.2084 -1.6085 -0.1182
   72SLPC  H18Y 6375  -0.963   0.580   8.965 -1.3724 -0.1541 -0.7895
   72SLPC  H18Z 6376  -0.806   0.513   8.902  0.8018  2.8191 -1.9744
   73SLPC     N 6377   5.614   1.438  10.980  0.1238 -0.3396  0.9274
   73SLPC   C13 6378   5.668   1.367  11.098 -0.3873 -0.0766  0.2375
   73SLPC  H13A 6379   5.765   1.406  11.124 -0.2657 -0.3568  0.2071
   73SLPC  H13B 6380   5.598   1.372  11.180 -1.0888  1.8111 -0.4250
   73SLPC  H13C 6381   5.662   1.261  11.075 -3.3816  0.0760 -0.1484
   73SLPC   C14 6382   5.621   1.584  11.016 -0.3639 -0.2594  0.2147
   73SLPC  H14A 6383   5.724   1.593  11.046 -0.7603  1.2316  1.2411
   73SLPC  H14B 6384   5.585   1.649  10.938 -2.2451 -1.6458 -0.1500
   73SLPC  H14C 6385   5.566   1.615  11.104  1.9517 -0.0527  1.6780
   73SLPC   C15 6386   5.473   1.404  10.952  0.0733  0.0072  0.2741
   73SLPC  H15A 6387   5.430   1.465  10.873  0.5285 -1.0075 -0.7891
   73SLPC  H15B 6388   5.448   1.302  10.925 -0.0662  0.2974 -0.7514
   73SLPC  H15C 6389   5.407   1.415  11.037 -0.1329 -3.4222  0.7182
   73SLPC   C12 6390   5.698   1.407  10.860  0.2019 -0.1037 -0.8244
   73SLPC  H12A 6391   5.800   1.426  10.890  0.2071  0.4526 -1.1784
   73SLPC  H12B 6392   5.677   1.486  10.789 -0.8389  1.6580  1.3074
   73SLPC   C11 6393   5.674   1.270  10.787 -0.8334  0.8738 -0.5342
   73SLPC  H11A 6394   5.738   1.274  10.697  2.1725 -0.6485  1.3583
   73SLPC  H11B 6395   5.568   1.263  10.756 -0.4670  2.0775 -2.1936
   73SLPC     P 6396   5.866   1.111  10.875  0.0393  0.0703 -0.0682
   73SLPC   O13 6397   5.958   1.224  10.900 -0.2018  0.1585  0.7347
   73SLPC   O14 6398   5.875   1.000  10.971  0.0937  0.3050  0.4678
   73SLPC   O12 6399   5.721   1.156  10.864  0.6750  0.4092 -0.3745
   73SLPC   O11 6400   5.896   1.044  10.742  0.2230  0.0294 -0.0523
   73SLPC    C1 6401   5.797   0.967  10.683 -0.2163 -0.3483  0.0709
   73SLPC    HA 6402   5.714   0.939  10.751  1.5855 -1.3592  1.9706
   73SLPC    HB 6403   5.771   1.032  10.597 -0.8868 -0.3092  0.3033
   73SLPC    C2 6404   5.856   0.831  10.637 -0.2759 -0.1750  0.1854
   73SLPC    HS 6405   5.878   0.763  10.722 -0.0991 -1.2439 -0.6934
   73SLPC   O21 6406   5.970   0.856  10.558 -0.2069  0.1466  0.5809
   73SLPC   C21 6407   6.032   0.742  10.513 -0.8164 -0.3708 -0.3863
   73SLPC   O22 6408   6.032   0.636  10.571  0.3160 -0.0020 -0.1801
   73SLPC   C22 6409   6.119   0.769  10.395 -0.0002  0.3657 -0.3048
   73SLPC   H2R 6410   6.185   0.856  10.414 -0.8703  1.7278 -2.9386
   73SLPC   H2S 6411   6.170   0.674  10.365 -0.7118 -0.3522  0.6927
   73SLPC    C3 6412   5.754   0.734  10.566 -0.0999 -0.3368  0.3022
   73SLPC    HX 6413   5.667   0.734  10.634 -0.0192 -1.4529  0.4223
   73SLPC    HY 6414   5.789   0.629  10.554 -1.6603 -1.0227  1.4766
   73SLPC   O31 6415   5.709   0.794  10.439  0.2474 -0.2361  0.4266
   73SLPC   C31 6416   5.645   0.709  10.357 -0.2080  0.4378  0.1941
   73SLPC   O32 6417   5.639   0.591  10.374  0.5745  0.5588 -0.1145
   73SLPC   C32 6418   5.586   0.787  10.242  0.1686  0.5926  0.2788
   73SLPC   H2X 6419   5.672   0.809  10.175 -0.0920 -0.7122 -0.5268
   73SLPC   H2Y 6420   5.543   0.880  10.284 -0.7150  0.4528 -0.2789
   73SLPC   C23 6421   6.020   0.797  10.277 -0.1779 -0.7035  0.3354
   73SLPC   H3R 6422   6.072   0.848  10.193 -0.7266 -2.4142 -1.1055
   73SLPC   H3S 6423   5.932   0.856  10.310 -1.6104 -2.7500  0.4066
   73SLPC   C24 6424   5.968   0.672  10.206  0.3078 -0.3190 -0.4102
   73SLPC   H4R 6425   5.886   0.617  10.257 -3.5817  0.9271 -4.5987
   73SLPC   H4S 6426   6.055   0.604  10.198  0.9028 -0.1421  3.0383
   73SLPC   C25 6427   5.922   0.692  10.062  0.2441 -0.0383 -0.1146
   73SLPC   H5R 6428   5.978   0.778  10.018 -0.9454  0.7722 -0.1151
   73SLPC   H5S 6429   5.816   0.725  10.060  0.5980  1.3437 -3.4060
   73SLPC   C26 6430   5.940   0.574   9.966 -0.1970 -0.1192  1.1170
   73SLPC   H6R 6431   5.855   0.507   9.990  0.1176 -0.9233  0.0721
   73SLPC   H6S 6432   6.036   0.522   9.992  0.2928 -0.0436 -0.4304
   73SLPC   C27 6433   5.940   0.611   9.814 -0.0600  0.9283 -0.3486
   73SLPC   H7R 6434   6.012   0.690   9.784 -0.8990  1.7571 -0.2228
   73SLPC   H7S 6435   5.841   0.657   9.794 -1.7288 -2.4215 -0.5048
   73SLPC   C28 6436   5.970   0.487   9.721  0.1849 -0.1296  0.2375
   73SLPC   H8R 6437   5.906   0.398   9.737 -1.1782  0.5010 -1.4289
   73SLPC   H8S 6438   6.078   0.460   9.733  0.7400  1.0656 -1.7265
   73SLPC   C29 6439   5.951   0.533   9.578 -0.4613 -0.1882  0.5592
   73SLPC   H9R 6440   5.853   0.563   9.537  0.2764  0.3917 -0.8491
   73SLPC  C210 6441   6.052   0.546   9.486 -0.1079 -0.3981  0.1189
   73SLPC  H10R 6442   6.044   0.583   9.383  3.2396  1.4287  0.3495
   73SLPC  C211 6443   6.203   0.505   9.514  0.7201 -0.3256 -0.1139
   73SLPC  H11R 6444   6.218   0.401   9.480  2.1320  0.5070 -2.3166
   73SLPC  H11S 6445   6.231   0.511   9.622  2.0786 -1.2422 -0.3864
   73SLPC  C212 6446   6.311   0.591   9.444 -0.4945 -0.0555  0.1609
   73SLPC  H12R 6447   6.392   0.621   9.512 -2.0332  1.6365  1.3410
   73SLPC  C213 6448   6.321   0.613   9.308 -1.1333 -0.5407  0.4095
   73SLPC  H13R 6449   6.405   0.674   9.270 -0.2083 -1.9526  0.0843
   73SLPC  C214 6450   6.234   0.562   9.191 -0.2554 -0.4692  0.2259
   73SLPC  H14R 6451   6.207   0.648   9.125 -0.0805  0.0916  0.8718
   73SLPC  H14S 6452   6.147   0.511   9.237  0.5755  0.6173  3.2515
   73SLPC  C215 6453   6.301   0.446   9.110  0.2475  0.0887 -0.2621
   73SLPC  H15R 6454   6.290   0.346   9.156  3.0472  0.0883  0.6165
   73SLPC  H15S 6455   6.408   0.468   9.088  0.2413  2.3275  1.4863
   73SLPC  C216 6456   6.239   0.436   8.964 -0.1765  0.6221  0.0792
   73SLPC  H16R 6457   6.223   0.534   8.913 -1.0298 -0.4688 -1.9150
   73SLPC  H16S 6458   6.139   0.386   8.962 -0.9549  2.1194  0.1286
   73SLPC  C217 6459   6.325   0.346   8.873  0.0134 -0.1142  0.1516
   73SLPC  H17R 6460   6.344   0.253   8.931  0.5234 -0.1977 -0.1405
   73SLPC  H17S 6461   6.432   0.373   8.861  0.7871 -2.0682  1.8665
   73SLPC  C218 6462   6.258   0.310   8.741 -0.3343 -0.5310  0.0062
   73SLPC  H18R 6463   6.337   0.262   8.680 -0.5726 -0.3656 -0.4406
   73SLPC  H18S 6464   6.218   0.397   8.685 -1.6212 -0.9566  0.2187
   73SLPC  H18T 6465   6.180   0.234   8.763 -0.2764 -1.1204 -1.6888
   73SLPC   C33 6466   5.476   0.713  10.166  0.3614 -1.0220 -0.3079
   73SLPC   H3X 6467   5.403   0.672  10.239 -2.8797  3.1370 -0.8367
   73SLPC   H3Y 6468   5.519   0.628  10.109  1.2469 -0.2180 -0.8698
   73SLPC   C34 6469   5.399   0.805  10.067  0.1498 -0.6423 -0.1592
   73SLPC   H4X 6470   5.370   0.898  10.121  1.7792 -0.0655 -0.2234
   73SLPC   H4Y 6471   5.309   0.753  10.027  1.3088 -2.6121 -0.3124
   73SLPC   C35 6472   5.483   0.843   9.945  0.2882  0.1625 -0.1240
   73SLPC   H5X 6473   5.583   0.887   9.965  0.8498 -0.1642 -2.0250
   73SLPC   H5Y 6474   5.429   0.920   9.886 -1.0914 -1.0097 -0.4580
   73SLPC   C36 6475   5.506   0.721   9.847  0.4642 -0.9264 -0.6362
   73SLPC   H6X 6476   5.422   0.649   9.857 -1.8729  1.7400  0.3608
   73SLPC   H6Y 6477   5.600   0.669   9.874  1.2784  0.7580 -0.0482
   73SLPC   C37 6478   5.512   0.774   9.709  0.0692 -0.0635  0.4986
   73SLPC   H7X 6479   5.602   0.837   9.689  0.1118 -0.3772 -0.3447
   73SLPC   H7Y 6480   5.415   0.825   9.691  0.0799 -0.0359  0.5179
   73SLPC   C38 6481   5.513   0.661   9.602  0.1647 -0.5740 -0.8894
   73SLPC   H8X 6482   5.437   0.582   9.625  2.2277 -2.6000 -0.6749
   73SLPC   H8Y 6483   5.619   0.632   9.590  1.5395  3.9724 -1.7182
   73SLPC   C39 6484   5.474   0.721   9.467  0.6575 -0.7120  1.2624
   73SLPC   H9X 6485   5.540   0.810   9.459 -0.7465  0.2735 -0.0112
   73SLPC   H9Y 6486   5.369   0.755   9.452  0.8664  0.1325  1.6733
   73SLPC  C310 6487   5.518   0.628   9.352 -0.1884  0.2271  0.4913
   73SLPC  H10X 6488   5.463   0.532   9.362  1.0310 -0.3064  2.9424
   73SLPC  H10Y 6489   5.624   0.598   9.369 -0.3852 -0.7766  0.0559
   73SLPC  C311 6490   5.507   0.680   9.203  0.0985 -0.0594 -0.6500
   73SLPC  H11X 6491   5.577   0.766   9.195  3.4789 -2.4680  0.9179
   73SLPC  H11Y 6492   5.398   0.700   9.189 -0.5071 -2.2674  0.5309
   73SLPC  C312 6493   5.573   0.567   9.111  0.4429 -0.3727  0.6940
   73SLPC  H12X 6494   5.542   0.469   9.152  0.5073 -0.4601  0.5333
   73SLPC  H12Y 6495   5.683   0.569   9.125  0.9092 -1.2712 -2.2174
   73SLPC  C313 6496   5.516   0.579   8.968 -0.3892  0.1513 -0.5986
   73SLPC  H13X 6497   5.588   0.523   8.905  1.5120  2.2805 -0.4419
   73SLPC  H13Y 6498   5.534   0.681   8.929  1.1750 -0.1279 -0.6628
   73SLPC  C314 6499   5.368   0.541   8.944 -0.0115  1.0354  0.6421
   73SLPC  H14X 6500   5.303   0.611   9.000  0.4675  1.6697  0.4210
   73SLPC  H14Y 6501   5.372   0.438   8.985  0.9838  0.8870  0.2167
   73SLPC  C315 6502   5.311   0.532   8.801 -0.2445 -0.1814 -0.8692
   73SLPC  H15X 6503   5.211   0.485   8.807  0.0012 -0.5364  0.8594
   73SLPC  H15Y 6504   5.376   0.481   8.727 -1.9405 -2.5413 -0.8287
   73SLPC  C316 6505   5.296   0.679   8.741  0.4016 -0.0071  0.3211
   73SLPC  H16X 6506   5.399   0.715   8.721  0.0959  0.2859 -0.7837
   73SLPC  H16Y 6507   5.251   0.746   8.817 -2.7900  2.1437 -3.1068
   73SLPC  C317 6508   5.225   0.690   8.603 -0.0550  0.7901  0.4035
   73SLPC  H17X 6509   5.293   0.641   8.530 -1.8178 -2.0331  0.5014
   73SLPC  H17Y 6510   5.214   0.796   8.572 -0.3131  0.3873 -0.9574
   73SLPC  C318 6511   5.090   0.610   8.578 -0.7419  0.6380 -0.3295
   73SLPC  H18X 6512   5.102   0.500   8.590 -2.0438  0.5265  0.1162
   73SLPC  H18Y 6513   5.050   0.619   8.475 -1.8768 -0.3034  0.0063
   73SLPC  H18Z 6514   5.011   0.652   8.644 -1.3042  0.5075 -0.9179
   74SLPC     N 6515   0.102   2.796  10.930 -0.4008 -1.0185 -0.0769
   74SLPC   C13 6516  -0.041   2.752  10.909  0.0410 -0.1744 -0.3487
   74SLPC  H13A 6517  -0.119   2.826  10.909 -0.2629 -0.4682 -1.7820
   74SLPC  H13B 6518  -0.041   2.704  10.813 -2.7275 -1.4964  0.2284
   74SLPC  H13C 6519  -0.080   2.680  10.980 -0.5463 -0.4597 -0.9514
   74SLPC   C14 6520   0.112   2.849  11.074  0.7030  0.0827 -0.2101
   74SLPC  H14A 6521   0.071   2.782  11.148  0.0030  0.5944 -0.1245
   74SLPC  H14B 6522   0.207   2.886  11.108  0.4009  1.1703 -0.5013
   74SLPC  H14C 6523   0.047   2.935  11.084  2.3840  1.5284 -1.2278
   74SLPC   C15 6524   0.119   2.913  10.833  0.0337  0.2406  0.1859
   74SLPC  H15A 6525   0.047   2.990  10.856 -0.1203  0.2539 -0.3301
   74SLPC  H15B 6526   0.216   2.961  10.831  0.1016  0.1102  0.3138
   74SLPC  H15C 6527   0.107   2.881  10.730 -2.5732 -1.4879  0.9376
   74SLPC   C12 6528   0.195   2.681  10.902 -0.1326  0.1817  0.0546
   74SLPC  H12A 6529   0.180   2.600  10.971 -1.1229 -0.8124 -1.2698
   74SLPC  H12B 6530   0.295   2.711  10.931 -1.4419  2.4455  2.7851
   74SLPC   C11 6531   0.190   2.606  10.768  0.4769  0.7384 -0.3294
   74SLPC  H11A 6532   0.283   2.545  10.778 -0.2797 -0.1794  1.4764
   74SLPC  H11B 6533   0.208   2.663  10.674 -1.2179  0.2720 -0.9773
   74SLPC     P 6534   0.053   2.388  10.676 -0.1834 -0.0852  0.4209
   74SLPC   O13 6535   0.184   2.327  10.637 -0.3008 -0.3831 -0.0505
   74SLPC   O14 6536  -0.045   2.316  10.764  0.2314 -0.4604  0.6481
   74SLPC   O12 6537   0.072   2.525  10.754  0.3480 -0.8522  0.4142
   74SLPC   O11 6538  -0.011   2.446  10.548 -0.1069 -0.2768 -0.7079
   74SLPC    C1 6539   0.044   2.556  10.464 -0.0644 -0.0332 -0.2165
   74SLPC    HA 6540   0.016   2.655  10.504  3.8464  0.8741  0.7638
   74SLPC    HB 6541   0.155   2.558  10.471 -0.0007  0.1923 -1.1790
   74SLPC    C2 6542   0.002   2.535  10.314 -0.4998  0.4873 -0.1554
   74SLPC    HS 6543   0.041   2.620  10.254 -0.2923  1.9019  1.8797
   74SLPC   O21 6544  -0.137   2.516  10.292  0.0279 -0.0408 -0.3453
   74SLPC   C21 6545  -0.205   2.632  10.294  0.0761 -0.1793  0.2470
   74SLPC   O22 6546  -0.155   2.745  10.299  0.2600  0.4984  0.1901
   74SLPC   C22 6547  -0.355   2.608  10.248 -0.1886  0.1473 -0.7963
   74SLPC   H2R 6548  -0.387   2.526  10.315  1.8658 -1.5587 -1.7669
   74SLPC   H2S 6549  -0.413   2.698  10.277 -1.1817 -0.4831 -0.8017
   74SLPC    C3 6550   0.072   2.401  10.270 -0.0409 -0.2139  0.2815
   74SLPC    HX 6551   0.043   2.327  10.347  0.5813 -0.3888  0.3570
   74SLPC    HY 6552   0.183   2.405  10.272 -0.0285 -0.6521  1.3660
   74SLPC   O31 6553   0.041   2.355  10.139  0.4995  0.0507  0.2131
   74SLPC   C31 6554   0.133   2.373  10.039 -0.9254 -0.2701  0.1057
   74SLPC   O32 6555   0.246   2.408  10.056  0.0332  0.0118 -0.3762
   74SLPC   C32 6556   0.059   2.371   9.902 -0.3135  0.9148  0.4422
   74SLPC   H2X 6557  -0.051   2.367   9.917 -0.0792 -1.8588  2.1403
   74SLPC   H2Y 6558   0.084   2.273   9.856  2.7157  2.2045 -0.9472
   74SLPC   C23 6559  -0.379   2.556  10.109  0.4615 -0.3392  0.0074
   74SLPC   H3R 6560  -0.488   2.558  10.089  0.7969  2.8441 -2.3708
   74SLPC   H3S 6561  -0.338   2.452  10.108 -0.9397 -0.9122  0.1695
   74SLPC   C24 6562  -0.319   2.636   9.993  0.7860 -0.6385  0.3192
   74SLPC   H4R 6563  -0.210   2.658   9.995  0.8929 -1.0513 -0.5581
   74SLPC   H4S 6564  -0.350   2.743   9.987  0.9776 -0.6673 -2.0016
   74SLPC   C25 6565  -0.365   2.575   9.854 -0.7058  0.2006  0.5304
   74SLPC   H5R 6566  -0.458   2.514   9.866 -0.2841 -0.3053  1.3134
   74SLPC   H5S 6567  -0.284   2.504   9.828  0.1973  1.4555 -0.1847
   74SLPC   C26 6568  -0.377   2.680   9.745 -0.1265 -0.4585  0.4842
   74SLPC   H6R 6569  -0.282   2.736   9.756  0.4388 -1.5360  1.3164
   74SLPC   H6S 6570  -0.455   2.753   9.776  0.5606  0.4957 -0.0121
   74SLPC   C27 6571  -0.394   2.632   9.599  0.3384 -0.3599  0.2449
   74SLPC   H7R 6572  -0.475   2.556   9.596 -0.1702  0.1551 -3.2812
   74SLPC   H7S 6573  -0.305   2.581   9.557  2.1661  3.2087 -0.5665
   74SLPC   C28 6574  -0.438   2.745   9.499  0.0589  0.4340  1.1667
   74SLPC   H8R 6575  -0.542   2.774   9.526  0.3363  0.6793  2.0181
   74SLPC   H8S 6576  -0.431   2.689   9.403  2.4331  1.3906  0.7136
   74SLPC   C29 6577  -0.343   2.868   9.507  0.0436 -0.2965  0.4066
   74SLPC   H9R 6578  -0.320   2.913   9.604 -0.4204 -0.2336  0.4862
   74SLPC  C210 6579  -0.297   2.938   9.405  0.2588 -0.0885 -0.0267
   74SLPC  H10R 6580  -0.215   3.008   9.430 -0.0664  0.2123  0.2092
   74SLPC  C211 6581  -0.317   2.917   9.259 -0.3994 -0.0272  0.3886
   74SLPC  H11R 6582  -0.381   2.829   9.238  0.2511 -0.6677  1.0456
   74SLPC  H11S 6583  -0.218   2.894   9.215 -0.3100 -1.4742  1.2738
   74SLPC  C212 6584  -0.377   3.038   9.185 -0.3837 -0.1661  0.9385
   74SLPC  H12R 6585  -0.442   3.101   9.247  1.8824  0.9537  2.3164
   74SLPC  C213 6586  -0.357   3.067   9.053  0.0574  0.3342 -0.0873
   74SLPC  H13R 6587  -0.409   3.148   9.000  0.8675  0.5065 -0.6369
   74SLPC  C214 6588  -0.270   2.986   8.952  0.0594  0.1017 -0.4685
   74SLPC  H14R 6589  -0.336   2.919   8.893 -0.3324 -0.8228  0.9852
   74SLPC  H14S 6590  -0.192   2.927   9.005 -2.7167 -1.0294  2.6747
   74SLPC  C215 6591  -0.200   3.089   8.864  0.3090 -0.4636 -0.2449
   74SLPC  H15R 6592  -0.108   3.046   8.820  0.4184  0.6999 -1.2210
   74SLPC  H15S 6593  -0.170   3.179   8.922  0.1962 -0.8356  0.4026
   74SLPC  C216 6594  -0.303   3.146   8.762  0.0391  0.1654  0.0942
   74SLPC  H16R 6595  -0.371   3.218   8.812 -0.6292 -0.2620 -0.1840
   74SLPC  H16S 6596  -0.377   3.070   8.728 -1.2682 -0.1579  3.2769
   74SLPC  C217 6597  -0.236   3.222   8.651  0.0332 -0.2657  0.9429
   74SLPC  H17R 6598  -0.163   3.170   8.584  0.2997 -0.4647  1.3868
   74SLPC  H17S 6599  -0.166   3.297   8.695  0.2201 -0.0525  0.2956
   74SLPC  C218 6600  -0.335   3.290   8.559 -0.0998 -0.0898 -1.1835
   74SLPC  H18R 6601  -0.287   3.373   8.502  1.0713  1.7239  2.1379
   74SLPC  H18S 6602  -0.411   3.335   8.627  0.3453 -0.5951 -0.3410
   74SLPC  H18T 6603  -0.383   3.216   8.492  2.9456 -2.5343 -0.8779
   74SLPC   C33 6604   0.097   2.493   9.818 -0.1780  0.1405 -0.1874
   74SLPC   H3X 6605   0.206   2.498   9.793 -0.3157  1.4053 -0.6489
   74SLPC   H3Y 6606   0.072   2.582   9.880  0.0817 -0.4898  0.8473
   74SLPC   C34 6607   0.034   2.498   9.678 -0.0683 -0.0839  0.1268
   74SLPC   H4X 6608  -0.074   2.474   9.692  0.0504 -0.0500  1.1100
   74SLPC   H4Y 6609   0.070   2.422   9.606 -2.2389 -0.5801 -0.5222
   74SLPC   C35 6610   0.057   2.634   9.621 -0.5153 -0.2764 -0.4343
   74SLPC   H5X 6611   0.165   2.648   9.597 -0.7687 -0.2658 -1.5917
   74SLPC   H5Y 6612   0.037   2.720   9.689  0.1580 -0.8991  0.5957
   74SLPC   C36 6613  -0.040   2.664   9.503  0.5813 -0.0273 -0.6693
   74SLPC   H6X 6614  -0.005   2.755   9.448 -1.2819  0.2607 -1.4411
   74SLPC   H6Y 6615  -0.140   2.688   9.543  1.3938 -0.3811  1.7283
   74SLPC   C37 6616  -0.042   2.539   9.419 -0.4057  0.0084 -0.6827
   74SLPC   H7X 6617  -0.085   2.449   9.469 -1.3805  1.0751  0.4952
   74SLPC   H7Y 6618   0.060   2.513   9.385  0.3524 -0.9351  2.0365
   74SLPC   C38 6619  -0.121   2.558   9.289  0.5007  0.0643  0.4874
   74SLPC   H8X 6620  -0.081   2.640   9.226  0.6215 -0.4922 -0.1751
   74SLPC   H8Y 6621  -0.226   2.589   9.305  1.0779  2.8086 -0.5626
   74SLPC   C39 6622  -0.113   2.445   9.182 -0.0785 -0.4546 -0.6482
   74SLPC   H9X 6623  -0.004   2.439   9.161  0.7884 -1.3431  3.2918
   74SLPC   H9Y 6624  -0.171   2.487   9.097 -2.5498 -0.8612  0.7253
   74SLPC  C310 6625  -0.169   2.312   9.232  0.2501 -0.5575 -0.1112
   74SLPC  H10X 6626  -0.254   2.324   9.303  0.9354  0.2718  0.5929
   74SLPC  H10Y 6627  -0.085   2.261   9.284  1.3932  0.8972 -0.4408
   74SLPC  C311 6628  -0.208   2.225   9.107  0.8272  0.0146  1.4448
   74SLPC  H11X 6629  -0.239   2.128   9.152  0.2223 -1.6864 -2.2624
   74SLPC  H11Y 6630  -0.123   2.196   9.042  0.4944  0.4416  0.8104
   74SLPC  C312 6631  -0.322   2.277   9.023  0.0085 -0.2991  1.1798
   74SLPC  H12X 6632  -0.292   2.362   8.958 -0.4994 -0.1112  1.1886
   74SLPC  H12Y 6633  -0.400   2.312   9.094 -1.6172 -3.1250  0.9229
   74SLPC  C313 6634  -0.382   2.168   8.932  0.1789 -0.2094  0.6155
   74SLPC  H13X 6635  -0.433   2.226   8.852 -1.3099 -3.1910 -0.7238
   74SLPC  H13Y 6636  -0.462   2.108   8.981 -1.6600  0.4776 -1.3919
   74SLPC  C314 6637  -0.284   2.073   8.856  0.0415  0.3669  0.0176
   74SLPC  H14X 6638  -0.235   2.015   8.937 -0.1947  1.2344  0.7918
   74SLPC  H14Y 6639  -0.209   2.120   8.789  0.4337 -1.3833 -0.8406
   74SLPC  C315 6640  -0.366   1.987   8.757 -0.0202  0.2160  0.0219
   74SLPC  H15X 6641  -0.404   2.053   8.676 -2.1730  1.8316  2.1962
   74SLPC  H15Y 6642  -0.455   1.942   8.806  0.3574 -0.9271 -0.2992
   74SLPC  C316 6643  -0.296   1.863   8.693  0.2831  0.0671  0.1651
   74SLPC  H16X 6644  -0.238   1.907   8.608 -0.1929 -0.1169 -0.2595
   74SLPC  H16Y 6645  -0.379   1.806   8.648 -0.6188  0.1872  1.6486
   74SLPC  C317 6646  -0.209   1.777   8.794 -0.1057  1.1748 -0.3744
   74SLPC  H17X 6647  -0.286   1.735   8.861 -0.6953  0.8245 -1.2461
   74SLPC  H17Y 6648  -0.140   1.839   8.855  0.1725  1.6561 -1.1653
   74SLPC  C318 6649  -0.123   1.667   8.726  0.2500  0.2162  0.3820
   74SLPC  H18X 6650  -0.013   1.679   8.729  0.3770 -0.6016 -0.3990
   74SLPC  H18Y 6651  -0.151   1.654   8.620 -0.3086 -2.1362  0.7490
   74SLPC  H18Z 6652  -0.148   1.570   8.775  0.3324 -0.0119 -0.0289
   75SLPC     N 6653   4.428   5.898   6.310  0.2666 -0.2946  0.1029
   75SLPC   C13 6654   4.375   6.002   6.223 -0.2153  0.4017  0.6239
   75SLPC  H13A 6655   4.404   5.972   6.123  1.6128 -1.5400  1.6518
   75SLPC  H13B 6656   4.269   6.022   6.226 -0.6507 -1.0561 -1.8586
   75SLPC  H13C 6657   4.430   6.093   6.242  0.0657  0.8264 -1.9111
   75SLPC   C14 6658   4.574   5.891   6.278 -0.1676 -0.9935 -0.2336
   75SLPC  H14A 6659   4.625   5.827   6.348  1.0206  1.0588  0.8829
   75SLPC  H14B 6660   4.605   5.852   6.183 -0.2533  2.0066 -1.5998
   75SLPC  H14C 6661   4.626   5.984   6.293  1.7701 -1.7697 -1.7643
   75SLPC   C15 6662   4.360   5.767   6.281  0.1319 -0.5729  0.1928
   75SLPC  H15A 6663   4.254   5.773   6.301 -1.2608 -1.7557 -5.2052
   75SLPC  H15B 6664   4.367   5.753   6.174  1.0561 -1.3357  0.3333
   75SLPC  H15C 6665   4.400   5.681   6.334 -3.2709 -2.4518 -0.0211
   75SLPC   C12 6666   4.396   5.943   6.450  0.0185 -0.1451 -0.6244
   75SLPC  H12A 6667   4.293   5.976   6.449  0.8157  2.9085  2.2041
   75SLPC  H12B 6668   4.455   6.033   6.463  0.8241 -0.8871  1.1463
   75SLPC   C11 6669   4.432   5.848   6.561 -0.0192  1.3109  0.6120
   75SLPC  H11A 6670   4.382   5.750   6.549 -1.5526  2.1387 -0.1265
   75SLPC  H11B 6671   4.379   5.893   6.648 -2.8737 -1.0630  0.2643
   75SLPC     P 6672   4.651   5.963   6.641  0.3687 -0.1345  0.5804
   75SLPC   O13 6673   4.781   5.982   6.580  0.2381 -0.1797 -0.0439
   75SLPC   O14 6674   4.558   6.080   6.660 -0.6611 -0.0036  0.2486
   75SLPC   O12 6675   4.577   5.833   6.574  0.0080 -0.7090  1.0116
   75SLPC   O11 6676   4.681   5.914   6.792  0.2980  0.1997 -0.0301
   75SLPC    C1 6677   4.567   5.861   6.869 -0.5437  0.1243 -0.4085
   75SLPC    HA 6678   4.476   5.841   6.808 -0.3186 -0.8765 -0.4232
   75SLPC    HB 6679   4.597   5.762   6.908  1.0492  0.2308 -1.2834
   75SLPC    C2 6680   4.525   5.960   6.985  0.3726  0.2395 -0.4935
   75SLPC    HS 6681   4.506   6.054   6.929 -0.9060 -0.2076 -0.8399
   75SLPC   O21 6682   4.638   5.977   7.072  0.8008 -0.0494  0.3385
   75SLPC   C21 6683   4.649   6.090   7.126 -0.5533 -0.6540 -0.4157
   75SLPC   O22 6684   4.576   6.192   7.119 -0.2250  0.5944 -0.6082
   75SLPC   C22 6685   4.765   6.079   7.223 -0.8732 -0.4575  0.0107
   75SLPC   H2R 6686   4.850   6.031   7.169 -0.0034  1.4749 -0.4337
   75SLPC   H2S 6687   4.789   6.187   7.232 -0.5573 -0.5366  0.1420
   75SLPC    C3 6688   4.395   5.914   7.053 -0.2603 -0.3157 -0.8098
   75SLPC    HX 6689   4.421   5.835   7.126 -1.8709  0.8854  1.1858
   75SLPC    HY 6690   4.331   5.875   6.971  0.4759  1.2305 -2.2009
   75SLPC   O31 6691   4.328   6.027   7.116 -0.3306  0.9229  0.1138
   75SLPC   C31 6692   4.204   6.005   7.152  0.4701  0.4489 -0.2485
   75SLPC   O32 6693   4.135   5.909   7.112 -0.6676 -0.4594  0.0669
   75SLPC   C32 6694   4.159   6.118   7.250  0.1826  0.2513  0.6762
   75SLPC   H2X 6695   4.058   6.154   7.222 -0.0945  1.8792  3.3408
   75SLPC   H2Y 6696   4.219   6.209   7.228  0.3036 -0.1800 -0.8771
   75SLPC   C23 6697   4.719   6.008   7.353 -0.1943 -0.6886  0.1488
   75SLPC   H3R 6698   4.808   5.993   7.418 -1.3266 -0.2151  1.8630
   75SLPC   H3S 6699   4.668   5.914   7.325 -1.9366  0.0451  0.7378
   75SLPC   C24 6700   4.626   6.109   7.428  0.1269  0.5349 -0.1282
   75SLPC   H4R 6701   4.540   6.149   7.370 -0.7637  1.4321  1.7347
   75SLPC   H4S 6702   4.679   6.198   7.467 -0.3934  0.2343  1.3347
   75SLPC   C25 6703   4.567   6.024   7.542 -0.1758 -0.3062 -0.2563
   75SLPC   H5R 6704   4.647   5.967   7.595 -0.1314 -0.0790 -0.0729
   75SLPC   H5S 6705   4.492   5.952   7.504  0.4224 -0.7568 -0.5939
   75SLPC   C26 6706   4.504   6.115   7.643  0.2804  0.0728 -0.4822
   75SLPC   H6R 6707   4.411   6.155   7.600  0.7874  2.7160  0.7219
   75SLPC   H6S 6708   4.585   6.190   7.658  0.5500 -0.6885  2.7856
   75SLPC   C27 6709   4.471   6.054   7.787 -0.5292 -0.0405 -0.1451
   75SLPC   H7R 6710   4.435   5.950   7.772  2.1049 -1.0894  0.3250
   75SLPC   H7S 6711   4.392   6.116   7.834 -1.8551 -0.4546 -1.7454
   75SLPC   C28 6712   4.597   6.040   7.874 -0.6506 -0.0412 -0.2005
   75SLPC   H8R 6713   4.681   6.000   7.813 -2.0868 -0.9979 -1.6139
   75SLPC   H8S 6714   4.565   5.963   7.947 -0.6661  1.2300  1.1828
   75SLPC   C29 6715   4.649   6.151   7.957 -0.0843 -0.9692 -0.3663
   75SLPC   H9R 6716   4.751   6.180   7.926 -1.4991  0.9879 -3.7089
   75SLPC  C210 6717   4.582   6.220   8.055 -0.6427  0.9945  0.0213
   75SLPC  H10R 6718   4.643   6.294   8.108 -1.1626  1.7835 -0.4610
   75SLPC  C211 6719   4.447   6.182   8.116  0.6841  0.0421  0.2943
   75SLPC  H11R 6720   4.427   6.075   8.096  0.0012  0.3632 -0.8399
   75SLPC  H11S 6721   4.365   6.240   8.068  0.9633  0.7552  0.6646
   75SLPC  C212 6722   4.449   6.199   8.265  0.0651  0.0341  0.4733
   75SLPC  H12R 6723   4.413   6.294   8.306  0.4970  0.0685  0.7895
   75SLPC  C213 6724   4.481   6.101   8.350 -0.2989 -0.2207  0.1148
   75SLPC  H13R 6725   4.469   6.131   8.456  2.9879  0.5515  0.3920
   75SLPC  C214 6726   4.532   5.965   8.328  0.0497 -0.1715 -0.5435
   75SLPC  H14R 6727   4.636   5.941   8.359 -0.5342  0.0856  1.7187
   75SLPC  H14S 6728   4.539   5.956   8.217 -4.5785  0.9253 -1.1223
   75SLPC  C215 6729   4.427   5.860   8.362  0.1348 -0.3510  0.4316
   75SLPC  H15R 6730   4.468   5.760   8.337  1.8842  0.3408  0.4005
   75SLPC  H15S 6731   4.335   5.873   8.300  0.0060 -0.9968  0.4796
   75SLPC  C216 6732   4.388   5.853   8.516 -0.1521 -0.0265 -0.3281
   75SLPC  H16R 6733   4.301   5.788   8.538 -0.8021  1.2297  0.9285
   75SLPC  H16S 6734   4.353   5.950   8.557 -0.8277 -0.3544 -0.1129
   75SLPC  C217 6735   4.510   5.810   8.600 -0.3897 -0.4712 -0.1223
   75SLPC  H17R 6736   4.592   5.884   8.597  0.9259 -1.8989 -1.4296
   75SLPC  H17S 6737   4.549   5.716   8.556  0.4179 -0.3854  0.3753
   75SLPC  C218 6738   4.469   5.792   8.748 -0.3268 -0.3738  0.7470
   75SLPC  H18R 6739   4.388   5.718   8.765  0.7451 -1.9532 -0.7229
   75SLPC  H18S 6740   4.450   5.892   8.792 -0.5106 -0.6191  1.2414
   75SLPC  H18T 6741   4.560   5.751   8.797  0.1995  0.2458  0.2982
   75SLPC   C33 6742   4.155   6.082   7.399  0.4538 -0.1055  0.2322
   75SLPC   H3X 6743   4.255   6.048   7.435  0.9430  1.2135  0.1987
   75SLPC   H3Y 6744   4.131   6.174   7.457  0.4368 -0.7670  1.3048
   75SLPC   C34 6745   4.056   5.973   7.433  0.1734 -0.2152 -0.0251
   75SLPC   H4X 6746   4.092   5.881   7.383  0.8511  0.7856 -1.4690
   75SLPC   H4Y 6747   3.966   6.009   7.379  0.1286 -0.1330  0.1028
   75SLPC   C35 6748   4.028   5.949   7.585 -0.0263 -0.0317 -0.2709
   75SLPC   H5X 6749   3.933   5.893   7.595  0.3087 -0.9106 -1.8140
   75SLPC   H5Y 6750   4.010   6.048   7.634 -2.2743  0.4163 -1.8654
   75SLPC   C36 6751   4.140   5.869   7.655  0.7556  0.0449 -0.1042
   75SLPC   H6X 6752   4.238   5.917   7.633  2.3723 -1.6411  2.7783
   75SLPC   H6Y 6753   4.145   5.771   7.603 -0.2396  0.2818 -0.6838
   75SLPC   C37 6754   4.127   5.849   7.806 -0.6704 -0.0162  0.2560
   75SLPC   H7X 6755   4.025   5.815   7.831 -0.7202  0.5060  0.8066
   75SLPC   H7Y 6756   4.157   5.940   7.864  2.4323 -0.8543  0.1760
   75SLPC   C38 6757   4.210   5.731   7.855 -0.5032 -0.1873  0.3858
   75SLPC   H8X 6758   4.317   5.745   7.827 -0.1765 -0.7993  1.2979
   75SLPC   H8Y 6759   4.192   5.637   7.798 -0.7870  0.4312 -0.5749
   75SLPC   C39 6760   4.213   5.713   8.013 -0.2761  0.3084  0.8171
   75SLPC   H9X 6761   4.232   5.815   8.052 -1.0286  0.6786  0.2432
   75SLPC   H9Y 6762   4.317   5.676   8.028  0.1650  1.6352  1.0964
   75SLPC  C310 6763   4.095   5.638   8.066  0.5199  0.0722  0.8855
   75SLPC  H10X 6764   4.097   5.547   8.002  0.3164 -0.9208  2.2435
   75SLPC  H10Y 6765   4.000   5.693   8.046  0.7790  0.5804  1.0428
   75SLPC  C311 6766   4.110   5.612   8.217 -0.0121  0.2096 -0.0913
   75SLPC  H11X 6767   4.116   5.703   8.281  2.0927  0.0753 -0.0328
   75SLPC  H11Y 6768   4.207   5.558   8.227 -0.7905 -0.8744  2.8590
   75SLPC  C312 6769   4.012   5.515   8.273  0.1249 -0.0177  0.7849
   75SLPC  H12X 6770   4.025   5.414   8.228  0.0439 -0.5826  1.9765
   75SLPC  H12Y 6771   3.914   5.554   8.240  0.5708 -0.7532 -1.6336
   75SLPC  C313 6772   4.025   5.497   8.426  0.2390 -0.6455  0.1637
   75SLPC  H13X 6773   4.013   5.599   8.467  1.2910 -0.4243 -0.0529
   75SLPC  H13Y 6774   4.125   5.455   8.447  1.0793  0.1215 -2.0476
   75SLPC  C314 6775   3.910   5.399   8.481  0.8726  0.2450  0.9375
   75SLPC  H14X 6776   3.940   5.369   8.584  3.3344  0.8980  0.4840
   75SLPC  H14Y 6777   3.916   5.309   8.416  0.9594  2.2742 -2.0421
   75SLPC  C315 6778   3.771   5.465   8.492 -0.3483  0.6387  0.6410
   75SLPC  H15X 6779   3.699   5.380   8.495 -2.0690  1.7595 -2.9354
   75SLPC  H15Y 6780   3.749   5.516   8.396  2.9585  0.2199 -0.4710
   75SLPC  C316 6781   3.756   5.554   8.624  0.6479  0.2448  0.8246
   75SLPC  H16X 6782   3.837   5.630   8.620  0.3499  0.5160 -1.4579
   75SLPC  H16Y 6783   3.779   5.503   8.720  1.8617 -1.7559 -0.4638
   75SLPC  C317 6784   3.623   5.630   8.628 -1.1389 -0.7327 -0.5693
   75SLPC  H17X 6785   3.621   5.695   8.538 -0.7459  1.3816  0.8773
   75SLPC  H17Y 6786   3.632   5.695   8.717  0.8104 -0.7474 -0.7032
   75SLPC  C318 6787   3.502   5.539   8.635  0.5184 -0.2054 -0.3304
   75SLPC  H18X 6788   3.507   5.467   8.551  1.0454 -0.1277 -0.3668
   75SLPC  H18Y 6789   3.415   5.608   8.625  0.2024 -0.7436 -1.5550
   75SLPC  H18Z 6790   3.490   5.491   8.734 -0.9490  2.6968  1.0341
   76SLPC     N 6791   2.005   3.528   5.997 -0.3120  0.1251  0.2242
   76SLPC   C13 6792   2.021   3.499   5.852  0.0176 -0.2781  0.1456
   76SLPC  H13A 6793   1.946   3.555   5.799 -2.6937 -3.0104  0.8196
   76SLPC  H13B 6794   2.122   3.516   5.819  0.5270 -3.3391 -0.1509
   76SLPC  H13C 6795   2.006   3.396   5.824  0.1444 -0.1396 -0.4420
   76SLPC   C14 6796   2.121   3.463   6.071  0.3895 -0.4411  0.1141
   76SLPC  H14A 6797   2.137   3.489   6.175  0.8930 -0.7401  0.1163
   76SLPC  H14B 6798   2.103   3.356   6.076 -2.0727 -0.0376  2.3196
   76SLPC  H14C 6799   2.213   3.487   6.020 -0.1216  0.7379 -0.2666
   76SLPC   C15 6800   1.869   3.480   6.041 -0.3374  0.1075 -0.4298
   76SLPC  H15A 6801   1.809   3.541   5.976  0.5108  2.9864  1.3385
   76SLPC  H15B 6802   1.868   3.373   6.023  0.3752 -0.0080  0.1746
   76SLPC  H15C 6803   1.840   3.506   6.141 -0.7708 -1.1141 -0.2223
   76SLPC   C12 6804   2.024   3.669   6.014  0.8596 -0.2063 -0.3986
   76SLPC  H12A 6805   2.122   3.692   5.973  1.6508  0.5559  1.7599
   76SLPC  H12B 6806   2.027   3.701   6.117 -1.7043  2.8207 -1.1069
   76SLPC   C11 6807   1.923   3.773   5.955 -0.0576 -0.6441  0.6699
   76SLPC  H11A 6808   1.903   3.756   5.847 -0.6981  0.9171  0.5075
   76SLPC  H11B 6809   1.978   3.870   5.952  0.4896 -0.9606 -0.1068
   76SLPC     P 6810   1.751   3.896   6.103 -0.0341 -0.0701  0.1187
   76SLPC   O13 6811   1.848   3.906   6.213 -0.2671 -0.3846  0.2046
   76SLPC   O14 6812   1.741   4.017   6.020  0.2222  0.2285  0.1686
   76SLPC   O12 6813   1.798   3.768   6.020  0.7664 -0.4066  0.2060
   76SLPC   O11 6814   1.612   3.853   6.159  0.2221 -0.7174  0.1968
   76SLPC    C1 6815   1.567   3.727   6.209  0.2230  1.0338  0.3666
   76SLPC    HA 6816   1.465   3.707   6.171 -0.3082  1.1033  1.7256
   76SLPC    HB 6817   1.633   3.643   6.178 -1.7016 -0.1855 -0.6336
   76SLPC    C2 6818   1.539   3.732   6.361  0.0471 -0.0812 -0.0074
   76SLPC    HS 6819   1.485   3.824   6.391  0.5850  1.2190 -2.7505
   76SLPC   O21 6820   1.672   3.735   6.414  0.0575  0.0183  0.8904
   76SLPC   C21 6821   1.698   3.813   6.508 -0.2521  0.2250  0.0181
   76SLPC   O22 6822   1.624   3.875   6.578 -0.0549  0.2959 -0.2040
   76SLPC   C22 6823   1.852   3.806   6.528 -0.3471 -0.0981 -0.4261
   76SLPC   H2R 6824   1.888   3.710   6.487 -0.7770 -1.4391  2.1375
   76SLPC   H2S 6825   1.900   3.884   6.464 -2.0118  2.3085  1.0645
   76SLPC    C3 6826   1.467   3.607   6.416 -0.0308 -0.0548  0.2728
   76SLPC    HX 6827   1.527   3.514   6.402  1.2507  0.5536  1.4059
   76SLPC    HY 6828   1.378   3.589   6.353 -0.5253 -0.7848  1.1459
   76SLPC   O31 6829   1.446   3.620   6.556  0.6253 -0.2863  0.0649
   76SLPC   C31 6830   1.328   3.674   6.592  0.3107  0.4951 -0.0810
   76SLPC   O32 6831   1.236   3.691   6.514 -0.6032  0.3410  0.0897
   76SLPC   C32 6832   1.306   3.710   6.738  0.8999  0.5807  0.1655
   76SLPC   H2X 6833   1.349   3.811   6.757  0.6907  0.4560  1.4020
   76SLPC   H2Y 6834   1.355   3.642   6.812  1.0971 -1.1233 -1.4656
   76SLPC   C23 6835   1.898   3.813   6.679 -0.0281  0.4156  0.4198
   76SLPC   H3R 6836   1.825   3.758   6.742 -1.9082 -0.0534 -2.0373
   76SLPC   H3S 6837   1.898   3.920   6.710  2.8440 -0.0212  2.3192
   76SLPC   C24 6838   2.043   3.778   6.708 -0.8513  0.6550  0.2848
   76SLPC   H4R 6839   2.095   3.816   6.617 -1.6327  0.0655 -0.4210
   76SLPC   H4S 6840   2.060   3.668   6.712 -1.4233  0.5653  0.3179
   76SLPC   C25 6841   2.108   3.847   6.822 -0.1456 -0.0252 -0.2752
   76SLPC   H5R 6842   2.079   3.954   6.825 -4.4822 -0.9602 -1.1069
   76SLPC   H5S 6843   2.216   3.857   6.798 -0.0924  0.0827  0.0045
   76SLPC   C26 6844   2.090   3.787   6.966 -0.7155 -0.2694  0.5323
   76SLPC   H6R 6845   2.082   3.678   6.949 -1.2508 -0.4162  1.6677
   76SLPC   H6S 6846   1.996   3.827   7.008 -0.6797 -0.7699  1.1009
   76SLPC   C27 6847   2.203   3.836   7.053 -0.1759  0.2285  0.3588
   76SLPC   H7R 6848   2.210   3.945   7.074  1.0741  0.2919 -0.2602
   76SLPC   H7S 6849   2.295   3.804   6.999 -1.1111 -0.1304 -1.0659
   76SLPC   C28 6850   2.213   3.774   7.190 -0.5372  0.4150 -0.3093
   76SLPC   H8R 6851   2.304   3.818   7.237  1.2656 -2.8990 -0.3530
   76SLPC   H8S 6852   2.119   3.800   7.243 -1.2176 -0.4320 -1.0695
   76SLPC   C29 6853   2.238   3.621   7.189  0.7608 -0.6049  0.1663
   76SLPC   H9R 6854   2.322   3.599   7.122  1.0299  0.2116  0.2227
   76SLPC  C210 6855   2.170   3.528   7.263  0.0854 -0.0727  0.2930
   76SLPC  H10R 6856   2.206   3.424   7.258  1.9827  0.5817 -0.5675
   76SLPC  C211 6857   2.066   3.570   7.358  0.6369 -0.1016 -0.5006
   76SLPC  H11R 6858   1.993   3.633   7.303 -1.6541 -1.9630  0.2826
   76SLPC  H11S 6859   2.096   3.641   7.439 -0.5303  0.8708 -0.8880
   76SLPC  C212 6860   1.981   3.451   7.398 -0.2943 -0.7874  0.4094
   76SLPC  H12R 6861   1.925   3.407   7.314  0.3558  0.9040 -0.9707
   76SLPC  C213 6862   1.980   3.399   7.518  0.6998  0.2613  0.0175
   76SLPC  H13R 6863   1.914   3.313   7.534 -2.8110  2.6096 -0.7887
   76SLPC  C214 6864   2.051   3.453   7.647 -0.6972  0.0563  0.0992
   76SLPC  H14R 6865   2.064   3.562   7.630 -2.1687  0.2788  0.2132
   76SLPC  H14S 6866   2.145   3.395   7.660 -0.8770  0.0037  1.3216
   76SLPC  C215 6867   1.985   3.443   7.785 -0.1684  0.4486  0.3949
   76SLPC  H15R 6868   1.874   3.455   7.786 -0.2041  0.0959  0.7074
   76SLPC  H15S 6869   2.036   3.512   7.855 -0.5602  1.0703  0.0859
   76SLPC  C216 6870   2.004   3.297   7.844  0.1195 -0.1887 -0.2043
   76SLPC  H16R 6871   2.108   3.258   7.835  1.8725  3.2435  2.5766
   76SLPC  H16S 6872   1.947   3.227   7.779 -3.3203  0.5074  1.8059
   76SLPC  C217 6873   1.936   3.264   7.978  0.5563  0.0324  0.4916
   76SLPC  H17R 6874   1.944   3.156   8.003 -3.3931 -1.1233 -2.2019
   76SLPC  H17S 6875   1.828   3.290   7.966  0.6701  1.1281  1.6762
   76SLPC  C218 6876   1.981   3.348   8.098 -0.8006  0.7222 -0.1533
   76SLPC  H18R 6877   1.988   3.458   8.081  1.4255  0.5048 -1.0128
   76SLPC  H18S 6878   2.086   3.323   8.123 -0.7837  1.0647  0.1279
   76SLPC  H18T 6879   1.912   3.326   8.182 -0.7014  0.3475 -0.1709
   76SLPC   C33 6880   1.160   3.717   6.783 -0.5550  0.5464 -0.1761
   76SLPC   H3X 6881   1.095   3.774   6.713 -2.2566 -0.3627  0.6031
   76SLPC   H3Y 6882   1.145   3.767   6.881 -2.5466  1.4146 -0.8695
   76SLPC   C34 6883   1.084   3.586   6.812  0.0007  0.1213  0.3039
   76SLPC   H4X 6884   1.075   3.528   6.718 -3.1951 -0.3074  0.7637
   76SLPC   H4Y 6885   0.984   3.619   6.849 -0.1206  0.5669 -0.4062
   76SLPC   C35 6886   1.147   3.488   6.917  0.0877  0.1214 -0.4734
   76SLPC   H5X 6887   1.258   3.485   6.912  0.1470 -1.2187  0.9249
   76SLPC   H5Y 6888   1.115   3.387   6.883  0.3085  0.4314 -1.6537
   76SLPC   C36 6889   1.094   3.525   7.054 -0.0934 -0.0611  0.4498
   76SLPC   H6X 6890   0.983   3.524   7.068 -0.0926 -0.5034  0.4256
   76SLPC   H6Y 6891   1.137   3.625   7.077  1.5592 -0.3728 -1.1290
   76SLPC   C37 6892   1.147   3.428   7.164  0.5647  0.0138 -0.2619
   76SLPC   H7X 6893   1.258   3.419   7.166  0.6330  0.8631  1.0949
   76SLPC   H7Y 6894   1.099   3.331   7.140 -0.2633  0.8407 -2.2314
   76SLPC   C38 6895   1.093   3.461   7.305 -0.0499 -0.4322 -0.1962
   76SLPC   H8X 6896   0.982   3.469   7.300  0.0825  1.3607 -1.1973
   76SLPC   H8Y 6897   1.118   3.565   7.336  0.6801 -0.0351 -1.9886
   76SLPC   C39 6898   1.131   3.361   7.417 -0.3179  0.3473  0.1834
   76SLPC   H9X 6899   1.241   3.365   7.434 -0.5059  0.4829  1.4178
   76SLPC   H9Y 6900   1.111   3.264   7.366  2.7482  0.4188 -1.3747
   76SLPC  C310 6901   1.065   3.386   7.550 -0.5532 -0.1298  0.4480
   76SLPC  H10X 6902   0.955   3.369   7.558 -0.4707 -0.0095  2.5514
   76SLPC  H10Y 6903   1.073   3.492   7.583 -1.8533  0.0087  0.3954
   76SLPC  C311 6904   1.120   3.299   7.665 -0.1343  0.4758  0.1129
   76SLPC  H11X 6905   1.230   3.298   7.653 -0.3160  0.8520 -1.9015
   76SLPC  H11Y 6906   1.082   3.195   7.656  0.4276  0.2763 -0.0039
   76SLPC  C312 6907   1.070   3.356   7.804 -0.6577  0.1440 -0.0656
   76SLPC  H12X 6908   0.960   3.367   7.796 -0.9110 -1.3951  0.8644
   76SLPC  H12Y 6909   1.122   3.452   7.822 -1.3155  0.7473 -1.2708
   76SLPC  C313 6910   1.108   3.262   7.919 -0.1791 -0.0132  0.2984
   76SLPC  H13X 6911   1.218   3.250   7.919  0.0791  1.9930  0.2009
   76SLPC  H13Y 6912   1.092   3.155   7.897 -1.0894 -0.0151  0.9247
   76SLPC  C314 6913   1.060   3.309   8.056 -0.7163  0.4455  1.2017
   76SLPC  H14X 6914   0.958   3.347   8.038 -0.5063 -0.5829 -3.0983
   76SLPC  H14Y 6915   1.119   3.397   8.088  1.3012 -0.1148 -0.7597
   76SLPC  C315 6916   1.084   3.209   8.169  0.3938 -0.0694 -0.3488
   76SLPC  H15X 6917   1.194   3.192   8.171  0.6153  1.2712  0.3105
   76SLPC  H15Y 6918   1.028   3.119   8.137  0.5460 -0.1668 -0.3395
   76SLPC  C316 6919   1.038   3.259   8.307 -0.7014 -0.6193  0.1233
   76SLPC  H16X 6920   0.934   3.291   8.285 -0.2687  1.0903  0.4281
   76SLPC  H16Y 6921   1.100   3.340   8.353  1.7297 -2.0393 -0.4676
   76SLPC  C317 6922   1.033   3.163   8.427  0.3878  0.9046  0.0593
   76SLPC  H17X 6923   1.132   3.116   8.445  0.5970  0.5823 -1.7664
   76SLPC  H17Y 6924   0.966   3.080   8.395  0.8922 -0.1375  1.5942
   76SLPC  C318 6925   0.988   3.227   8.552 -0.0913 -0.2124 -0.2345
   76SLPC  H18X 6926   1.056   3.313   8.571 -1.7399  1.4118 -1.3572
   76SLPC  H18Y 6927   0.991   3.161   8.642 -2.0109  0.5256  0.4238
   76SLPC  H18Z 6928   0.883   3.263   8.543  0.3930  0.8859 -1.8402
   77SLPC     N 6929   3.568   4.051   6.183 -0.0567  0.3473  0.3394
   77SLPC   C13 6930   3.643   4.161   6.113  1.0208  0.3755 -0.2592
   77SLPC  H13A 6931   3.591   4.253   6.132  1.6377  0.4330  1.3566
   77SLPC  H13B 6932   3.745   4.173   6.149  0.8489 -1.5477  1.0196
   77SLPC  H13C 6933   3.642   4.143   6.007 -0.9639  0.7116 -0.3302
   77SLPC   C14 6934   3.567   4.065   6.334 -0.1222  0.3448  0.2735
   77SLPC  H14A 6935   3.667   4.083   6.370 -0.2367 -2.9766  2.6305
   77SLPC  H14B 6936   3.511   4.150   6.370  0.7752 -0.0949  2.8973
   77SLPC  H14C 6937   3.543   3.973   6.386  0.4226 -0.0185 -0.1104
   77SLPC   C15 6938   3.631   3.918   6.150 -0.4181  0.0291  0.3473
   77SLPC  H15A 6939   3.633   3.907   6.043 -3.9058  0.6940  0.1054
   77SLPC  H15B 6940   3.737   3.928   6.165 -0.3576 -0.3491  0.1810
   77SLPC  H15C 6941   3.575   3.840   6.200  0.8807 -0.2047  1.4980
   77SLPC   C12 6942   3.422   4.056   6.139  0.6111  0.3334 -0.1066
   77SLPC  H12A 6943   3.411   4.042   6.032  0.1954  0.6686 -0.1100
   77SLPC  H12B 6944   3.381   4.154   6.158 -0.4833  0.4151 -2.5236
   77SLPC   C11 6945   3.322   3.948   6.188 -0.2420 -0.2886  0.6991
   77SLPC  H11A 6946   3.368   3.849   6.169 -1.9605 -0.4223 -4.3432
   77SLPC  H11B 6947   3.232   3.963   6.123  0.5697  1.0094 -0.1799
   77SLPC     P 6948   3.185   3.892   6.407 -0.2762  0.1229 -0.0427
   77SLPC   O13 6949   3.057   3.966   6.416 -0.8455  0.0878  0.2582
   77SLPC   O14 6950   3.178   3.758   6.349  0.4804  0.4074  0.2839
   77SLPC   O12 6951   3.296   3.978   6.326 -0.4434  0.1196 -0.1697
   77SLPC   O11 6952   3.246   3.881   6.548 -0.1792 -0.9057  0.1762
   77SLPC    C1 6953   3.281   4.005   6.623  0.7312 -0.4141  0.1348
   77SLPC    HA 6954   3.376   3.981   6.674 -0.5985 -1.8629  2.0895
   77SLPC    HB 6955   3.288   4.094   6.557 -0.6349 -0.5850 -0.2730
   77SLPC    C2 6956   3.186   4.043   6.742 -0.8448  0.1775 -0.0618
   77SLPC    HS 6957   3.223   4.145   6.767 -2.2313  0.7422 -0.1677
   77SLPC   O21 6958   3.204   3.948   6.853 -0.0542  0.1277 -0.0467
   77SLPC   C21 6959   3.210   4.008   6.972 -0.8032  0.4422 -0.1281
   77SLPC   O22 6960   3.185   4.125   6.998 -0.2112  0.2046  0.5521
   77SLPC   C22 6961   3.248   3.903   7.078  0.0734 -0.2751 -0.0638
   77SLPC   H2R 6962   3.190   3.809   7.066  0.0588 -0.1593 -1.0076
   77SLPC   H2S 6963   3.350   3.864   7.055  0.9951  1.4812  0.8260
   77SLPC    C3 6964   3.040   4.055   6.703  0.2275 -0.5317  0.1815
   77SLPC    HX 6965   3.015   3.958   6.654 -2.6400 -0.1344  0.6732
   77SLPC    HY 6966   3.042   4.135   6.626  0.0607 -0.5779  0.1295
   77SLPC   O31 6967   2.951   4.098   6.812 -0.1081 -0.0660  0.0646
   77SLPC   C31 6968   2.946   4.228   6.841 -0.5428  0.0838 -0.1520
   77SLPC   O32 6969   2.999   4.312   6.772 -0.0712 -0.1457 -0.5651
   77SLPC   C32 6970   2.867   4.250   6.967 -0.0782  0.0444  0.7076
   77SLPC   H2X 6971   2.834   4.153   7.011 -1.7529  0.7142  1.0008
   77SLPC   H2Y 6972   2.770   4.289   6.930 -0.3268 -2.3029 -1.3753
   77SLPC   C23 6973   3.254   3.960   7.228 -0.1580  0.3032 -0.3755
   77SLPC   H3R 6974   3.153   3.998   7.256  0.0073  1.0374 -0.7625
   77SLPC   H3S 6975   3.329   4.040   7.239 -1.3007  1.6923 -2.0961
   77SLPC   C24 6976   3.292   3.845   7.315 -0.3190  0.5658  0.1236
   77SLPC   H4R 6977   3.382   3.789   7.284 -1.4835 -2.3090  1.6270
   77SLPC   H4S 6978   3.225   3.758   7.303  0.8979 -0.5302  1.0921
   77SLPC   C25 6979   3.282   3.894   7.457 -0.0949  0.0583 -0.0531
   77SLPC   H5R 6980   3.199   3.968   7.461  0.9123  1.1901  0.8399
   77SLPC   H5S 6981   3.370   3.960   7.475 -1.1690  1.4788  0.1828
   77SLPC   C26 6982   3.274   3.795   7.571 -0.4938 -0.7404  0.0818
   77SLPC   H6R 6983   3.366   3.734   7.576  0.1465  0.1078 -0.7619
   77SLPC   H6S 6984   3.190   3.725   7.549 -1.0453 -0.1484  0.2424
   77SLPC   C27 6985   3.222   3.848   7.706  0.4614  0.5799  0.5042
   77SLPC   H7R 6986   3.136   3.913   7.681  0.3831  0.5695  0.7445
   77SLPC   H7S 6987   3.297   3.910   7.759  1.8650 -2.0454  1.7821
   77SLPC   C28 6988   3.182   3.734   7.805  0.4690 -0.3689  0.0206
   77SLPC   H8R 6989   3.095   3.675   7.770 -0.3594  0.9514 -0.1987
   77SLPC   H8S 6990   3.142   3.777   7.900 -0.0968 -1.1389  0.1352
   77SLPC   C29 6991   3.298   3.643   7.839  0.3423  0.0839  1.2023
   77SLPC   H9R 6992   3.346   3.576   7.766 -1.2880 -1.3724  1.4206
   77SLPC  C210 6993   3.369   3.648   7.950  0.5160  0.4958  0.1981
   77SLPC  H10R 6994   3.443   3.567   7.963 -0.2751 -0.3679 -0.5242
   77SLPC  C211 6995   3.340   3.740   8.065  0.1251 -0.1575  0.4384
   77SLPC  H11R 6996   3.239   3.722   8.107 -0.2422 -0.8404 -0.6826
   77SLPC  H11S 6997   3.335   3.842   8.019 -0.1877 -0.9623 -1.4270
   77SLPC  C212 6998   3.446   3.722   8.162  0.8562  0.2883 -0.8438
   77SLPC  H12R 6999   3.520   3.800   8.144  0.4816  0.6371 -0.8830
   77SLPC  C213 7000   3.459   3.634   8.263  0.0804 -0.1830 -0.0436
   77SLPC  H13R 7001   3.550   3.637   8.326  1.2868 -1.9134 -1.5910
   77SLPC  C214 7002   3.365   3.517   8.307  0.3783 -0.8100  0.1221
   77SLPC  H14R 7003   3.420   3.423   8.285  0.6774 -0.1310 -2.4120
   77SLPC  H14S 7004   3.276   3.515   8.239  0.9874  0.8078 -0.7792
   77SLPC  C215 7005   3.308   3.526   8.451 -0.0360  0.5808  0.5498
   77SLPC  H15R 7006   3.394   3.554   8.516  1.5140  0.6478 -1.4069
   77SLPC  H15S 7007   3.275   3.426   8.487  1.3535 -0.2110 -0.2408
   77SLPC  C216 7008   3.193   3.632   8.466 -0.0953 -0.2146  0.1539
   77SLPC  H16R 7009   3.108   3.616   8.395 -2.3892  0.9929  2.4493
   77SLPC  H16S 7010   3.227   3.738   8.468 -1.6791  0.3129  1.1742
   77SLPC  C217 7011   3.121   3.603   8.598 -0.0564 -0.3446  0.4364
   77SLPC  H17R 7012   3.067   3.695   8.629 -0.7183 -0.1471 -1.1958
   77SLPC  H17S 7013   3.188   3.578   8.683  2.5274  0.0665 -1.3544
   77SLPC  C218 7014   3.017   3.490   8.579  0.2023  0.7844  0.1055
   77SLPC  H18R 7015   2.950   3.480   8.667 -0.4027  1.7945 -0.2289
   77SLPC  H18S 7016   3.067   3.394   8.554 -1.3804 -0.2339  0.7351
   77SLPC  H18T 7017   2.950   3.509   8.492 -1.3223 -0.3875  0.9752
   77SLPC   C33 7018   2.924   4.354   7.058 -0.2018  0.6020 -0.7658
   77SLPC   H3X 7019   2.928   4.450   7.002 -2.0592  0.7397 -0.7095
   77SLPC   H3Y 7020   3.026   4.326   7.093 -0.6233 -1.1686 -0.8308
   77SLPC   C34 7021   2.837   4.380   7.174 -0.8823  0.6149 -0.4365
   77SLPC   H4X 7022   2.838   4.291   7.240 -0.9271  0.6445 -0.3965
   77SLPC   H4Y 7023   2.734   4.399   7.136 -0.5556  1.5705 -0.8793
   77SLPC   C35 7024   2.885   4.501   7.254 -0.1546 -0.0577 -0.6979
   77SLPC   H5X 7025   2.981   4.481   7.307 -1.0879 -2.0315  0.3436
   77SLPC   H5Y 7026   2.806   4.492   7.332  1.2179  0.1903  0.7685
   77SLPC   C36 7027   2.882   4.640   7.186  0.1348  0.6852  0.1977
   77SLPC   H6X 7028   2.805   4.643   7.105  2.5538  0.1594 -2.2844
   77SLPC   H6Y 7029   2.971   4.673   7.128 -0.3128  0.0758 -0.8805
   77SLPC   C37 7030   2.831   4.746   7.289  0.0178  0.2157 -0.5074
   77SLPC   H7X 7031   2.722   4.735   7.304  0.0507 -0.7341 -0.9152
   77SLPC   H7Y 7032   2.848   4.842   7.235  1.9847 -0.5262 -1.2761
   77SLPC   C38 7033   2.916   4.750   7.431  0.5872  0.8497  0.8472
   77SLPC   H8X 7034   2.937   4.854   7.462  0.3050  0.7535  1.3724
   77SLPC   H8Y 7035   3.010   4.698   7.403  1.5270  2.4380  0.9628
   77SLPC   C39 7036   2.830   4.696   7.549 -0.1783  0.2561  0.5954
   77SLPC   H9X 7037   2.827   4.585   7.539 -0.1229  0.2773  0.3439
   77SLPC   H9Y 7038   2.733   4.749   7.545  0.1179  0.8228  0.7859
   77SLPC  C310 7039   2.895   4.734   7.679  0.5672 -0.5475 -0.5400
   77SLPC  H10X 7040   2.898   4.844   7.691 -2.0848 -0.3802 -0.8435
   77SLPC  H10Y 7041   3.002   4.704   7.676  1.3018  0.7434  4.3512
   77SLPC  C311 7042   2.817   4.670   7.795  0.0624 -0.2523  0.6515
   77SLPC  H11X 7043   2.818   4.559   7.788  2.1239 -0.2343 -0.0637
   77SLPC  H11Y 7044   2.713   4.705   7.788 -0.4053 -1.5094  0.9762
   77SLPC  C312 7045   2.871   4.699   7.937  0.9464  0.0152 -0.1623
   77SLPC  H12X 7046   2.868   4.809   7.952 -0.4343 -0.3137  2.4574
   77SLPC  H12Y 7047   2.979   4.674   7.942  0.7633 -1.2325 -1.5590
   77SLPC  C313 7048   2.785   4.632   8.048 -0.1343  0.0166 -0.4865
   77SLPC  H13X 7049   2.830   4.655   8.147 -3.4463  0.4285  1.0966
   77SLPC  H13Y 7050   2.800   4.523   8.041  1.8588  0.3009 -1.2358
   77SLPC  C314 7051   2.630   4.657   8.041 -0.9857  0.3864 -0.2775
   77SLPC  H14X 7052   2.596   4.610   7.946  1.3274 -0.8650 -0.5535
   77SLPC  H14Y 7053   2.615   4.767   8.039 -0.5265  0.4824  0.7605
   77SLPC  C315 7054   2.550   4.609   8.163 -0.3518 -0.0015 -0.0570
   77SLPC  H15X 7055   2.619   4.628   8.248  0.0442  0.9978 -0.5864
   77SLPC  H15Y 7056   2.537   4.499   8.159  0.7483 -0.1282 -0.5917
   77SLPC  C316 7057   2.413   4.678   8.182 -0.6235 -0.0762  0.0921
   77SLPC  H16X 7058   2.350   4.676   8.090 -1.2681 -1.6319  0.5285
   77SLPC  H16Y 7059   2.427   4.782   8.217 -2.7858  0.7416 -1.2693
   77SLPC  C317 7060   2.324   4.613   8.289  0.1612 -0.0613 -0.3981
   77SLPC  H17X 7061   2.289   4.516   8.245 -0.6046 -1.2223  2.5586
   77SLPC  H17Y 7062   2.237   4.679   8.307 -0.3457 -1.2194  1.7338
   77SLPC  C318 7063   2.384   4.579   8.424 -0.1177  0.3779  0.2990
   77SLPC  H18X 7064   2.449   4.662   8.461 -0.3606  0.3271  0.8534
   77SLPC  H18Y 7065   2.450   4.490   8.413  1.6043  1.8005 -1.5466
   77SLPC  H18Z 7066   2.308   4.564   8.504  1.4468 -2.1891  1.4630
   78SLPC     N 7067   6.480   3.140   6.083  0.0283 -0.5173 -0.2548
   78SLPC   C13 7068   6.439   3.142   6.228  0.2739  0.3857 -0.4212
   78SLPC  H13A 7069   6.479   3.049   6.267 -0.5570 -0.5142 -1.6564
   78SLPC  H13B 7070   6.465   3.232   6.281 -2.0208  0.5021  0.6420
   78SLPC  H13C 7071   6.331   3.136   6.232  0.1592  1.9589 -0.7241
   78SLPC   C14 7072   6.440   3.272   6.024 -0.1076  0.0540 -0.5506
   78SLPC  H14A 7073   6.335   3.285   6.046 -0.4741 -2.0054 -0.8976
   78SLPC  H14B 7074   6.495   3.353   6.069 -0.4393 -0.7510  1.3747
   78SLPC  H14C 7075   6.437   3.275   5.916  2.0488 -0.0669 -0.6678
   78SLPC   C15 7076   6.406   3.031   6.021 -0.0550 -0.1276  0.0770
   78SLPC  H15A 7077   6.298   3.037   6.023 -0.0312  0.9383 -0.8195
   78SLPC  H15B 7078   6.444   3.010   5.922  0.9645  0.4089  0.3419
   78SLPC  H15C 7079   6.419   2.935   6.067 -1.0202 -0.6828 -0.7455
   78SLPC   C12 7080   6.629   3.117   6.076 -0.6511 -0.0039 -0.2030
   78SLPC  H12A 7081   6.682   3.200   6.122 -0.1265  0.5663 -1.7594
   78SLPC  H12B 7082   6.663   3.127   5.974  0.6404 -2.4557 -0.0870
   78SLPC   C11 7083   6.692   2.980   6.123  0.2886 -0.4977 -0.8376
   78SLPC  H11A 7084   6.802   2.978   6.106  0.1801  0.9215 -1.8397
   78SLPC  H11B 7085   6.650   2.896   6.063  0.0504 -1.3537  0.4912
   78SLPC     P 7086   6.629   2.804   6.308 -0.2431  0.3810 -0.1770
   78SLPC   O13 7087   6.486   2.784   6.285  0.3168 -0.6054 -0.3557
   78SLPC   O14 7088   6.725   2.709   6.241 -0.5580  0.0816  0.1343
   78SLPC   O12 7089   6.670   2.950   6.265 -0.1514  0.3343 -0.0784
   78SLPC   O11 7090   6.667   2.797   6.460 -0.0504 -0.3864 -0.1252
   78SLPC    C1 7091   6.798   2.825   6.502 -0.4487  0.6471 -0.1466
   78SLPC    HA 7092   6.851   2.727   6.507 -1.7986 -0.0688  0.7945
   78SLPC    HB 7093   6.856   2.892   6.435  0.4852 -1.0396 -1.0827
   78SLPC    C2 7094   6.797   2.887   6.640 -0.3926 -0.0697  1.1445
   78SLPC    HS 7095   6.731   2.816   6.696 -0.4979 -0.2981  0.7347
   78SLPC   O21 7096   6.733   3.015   6.624  0.1882 -0.3679  0.0299
   78SLPC   C21 7097   6.674   3.062   6.743  0.6781 -0.3617  0.1759
   78SLPC   O22 7098   6.662   2.997   6.845  0.0940 -0.0616 -0.2834
   78SLPC   C22 7099   6.621   3.200   6.713  0.3533  0.7212 -0.5076
   78SLPC   H2R 7100   6.684   3.266   6.649 -2.0381  1.0138 -2.7241
   78SLPC   H2S 7101   6.518   3.186   6.672 -1.1333  0.6259  2.9115
   78SLPC    C3 7102   6.942   2.902   6.690 -0.2059 -0.5502 -0.3238
   78SLPC    HX 7103   6.987   2.982   6.627 -1.6244  1.3949  0.9931
   78SLPC    HY 7104   7.010   2.815   6.679 -2.3776 -2.2971 -0.5955
   78SLPC   O31 7105   6.938   2.938   6.827 -0.3812 -0.4426 -0.1483
   78SLPC   C31 7106   6.910   2.843   6.914 -0.1014 -0.2785 -0.0225
   78SLPC   O32 7107   6.906   2.723   6.893 -0.0186  0.4177 -0.1814
   78SLPC   C32 7108   6.886   2.919   7.041 -0.7820  0.3029 -0.5871
   78SLPC   H2X 7109   6.825   3.012   7.035  0.5620  1.6443  3.4391
   78SLPC   H2Y 7110   6.981   2.960   7.083 -2.3148  3.5791  0.0369
   78SLPC   C23 7111   6.584   3.278   6.849  0.0856  0.2098 -0.8657
   78SLPC   H3R 7112   6.553   3.372   6.799  0.1620 -0.4614 -2.2292
   78SLPC   H3S 7113   6.674   3.293   6.912 -0.6475  0.1725  0.2309
   78SLPC   C24 7114   6.483   3.233   6.950  0.5240  0.4793 -0.3497
   78SLPC   H4R 7115   6.519   3.147   7.009  1.7272  1.7686  0.8654
   78SLPC   H4S 7116   6.395   3.202   6.889 -0.1239  1.0330  0.2910
   78SLPC   C25 7117   6.443   3.347   7.049 -0.0933 -0.5427 -0.2848
   78SLPC   H5R 7118   6.342   3.329   7.090 -0.5787 -2.7448 -2.2390
   78SLPC   H5S 7119   6.423   3.436   6.986  0.1696  0.5610  1.1302
   78SLPC   C26 7120   6.538   3.376   7.160 -0.4601 -0.1900  0.6933
   78SLPC   H6R 7121   6.623   3.426   7.109 -0.9904 -1.1587 -1.2246
   78SLPC   H6S 7122   6.584   3.289   7.212 -0.1480 -1.4438 -1.5494
   78SLPC   C27 7123   6.486   3.486   7.260  0.0158 -0.1146  0.2953
   78SLPC   H7R 7124   6.418   3.439   7.334  1.9760 -0.5950  1.8953
   78SLPC   H7S 7125   6.434   3.563   7.198  1.7142 -0.3419 -1.4935
   78SLPC   C28 7126   6.600   3.556   7.349 -0.2225  0.7738 -1.2202
   78SLPC   H8R 7127   6.695   3.573   7.293  1.4224  0.2443  1.2220
   78SLPC   H8S 7128   6.631   3.494   7.435  0.8222  2.1602 -0.5581
   78SLPC   C29 7129   6.539   3.684   7.407  0.6771 -0.0207 -0.2697
   78SLPC   H9R 7130   6.505   3.750   7.327  0.2903 -1.0946 -1.0140
   78SLPC  C210 7131   6.530   3.727   7.537 -0.5032  0.4506  0.4452
   78SLPC  H10R 7132   6.485   3.826   7.556 -2.6016 -0.4608  0.5206
   78SLPC  C211 7133   6.586   3.649   7.648  1.1688 -0.1659 -0.7131
   78SLPC  H11R 7134   6.671   3.585   7.618  2.4439  0.0174  2.1745
   78SLPC  H11S 7135   6.501   3.586   7.684 -1.3477  2.5421 -1.5424
   78SLPC  C212 7136   6.626   3.732   7.765 -0.4888 -0.4021  0.0213
   78SLPC  H12R 7137   6.733   3.755   7.752 -0.0997 -1.6114  0.9302
   78SLPC  C213 7138   6.558   3.769   7.878 -0.5864 -0.2800 -0.1701
   78SLPC  H13R 7139   6.605   3.842   7.946 -1.4434 -0.6919  0.9096
   78SLPC  C214 7140   6.422   3.723   7.917  0.3586  0.8143  0.0640
   78SLPC  H14R 7141   6.382   3.658   7.836  0.6822  0.3513  0.2773
   78SLPC  H14S 7142   6.348   3.806   7.924 -1.2223 -0.4429 -0.9429
   78SLPC  C215 7143   6.428   3.631   8.046  0.0458  0.8705  0.0725
   78SLPC  H15R 7144   6.472   3.685   8.132  1.0420  2.2791 -1.2722
   78SLPC  H15S 7145   6.500   3.549   8.024 -2.0748 -0.9769 -0.4363
   78SLPC  C216 7146   6.293   3.576   8.088  0.9496  0.0024 -0.3815
   78SLPC  H16R 7147   6.266   3.484   8.033  2.5303 -2.5283  2.7543
   78SLPC  H16S 7148   6.217   3.653   8.064 -0.6196 -1.4118 -0.0441
   78SLPC  C217 7149   6.286   3.537   8.234 -0.3688  0.2162  0.1573
   78SLPC  H17R 7150   6.281   3.634   8.289  1.9670  0.6549 -0.2887
   78SLPC  H17S 7151   6.374   3.476   8.261  0.4630  2.1741  2.1304
   78SLPC  C218 7152   6.161   3.457   8.272  0.4510  0.5063  0.4110
   78SLPC  H18R 7153   6.062   3.504   8.255 -0.3438 -1.1860  0.1478
   78SLPC  H18S 7154   6.161   3.429   8.380 -0.0378  0.8163  0.4956
   78SLPC  H18T 7155   6.158   3.364   8.212  0.2860  0.2203  0.8606
   78SLPC   C33 7156   6.835   2.831   7.156 -0.1149  0.3118  0.3920
   78SLPC   H3X 7157   6.892   2.736   7.160  1.5145  1.1622 -1.1547
   78SLPC   H3Y 7158   6.730   2.800   7.137 -0.4553  2.2674 -1.4161
   78SLPC   C34 7159   6.846   2.922   7.281 -0.0216  0.0548 -0.3507
   78SLPC   H4X 7160   6.763   2.996   7.279 -0.8574 -0.8856 -1.8531
   78SLPC   H4Y 7161   6.947   2.966   7.293 -0.6921  1.4190  0.5782
   78SLPC   C35 7162   6.819   2.828   7.402 -0.5109 -0.8101 -0.1258
   78SLPC   H5X 7163   6.889   2.741   7.400 -0.2842 -0.6383 -2.3837
   78SLPC   H5Y 7164   6.711   2.806   7.409 -0.4489 -1.1041 -0.0798
   78SLPC   C36 7165   6.835   2.897   7.538 -1.3787  0.0971  0.2284
   78SLPC   H6X 7166   6.785   2.996   7.529 -0.4840  0.4086 -1.9156
   78SLPC   H6Y 7167   6.942   2.924   7.544 -1.8870  2.5754 -0.5267
   78SLPC   C37 7168   6.778   2.819   7.653  0.0050 -0.1344 -0.3214
   78SLPC   H7X 7169   6.803   2.711   7.640 -1.6113 -0.4234 -1.2932
   78SLPC   H7Y 7170   6.668   2.826   7.643 -0.1630 -1.1809  0.4995
   78SLPC   C38 7171   6.813   2.864   7.795 -0.5117 -0.7034 -0.9718
   78SLPC   H8X 7172   6.817   2.975   7.802  0.9168 -0.8284  1.4735
   78SLPC   H8Y 7173   6.916   2.828   7.817 -0.3228  0.8530  1.0116
   78SLPC   C39 7174   6.725   2.801   7.900  0.8297  0.0299 -1.2569
   78SLPC   H9X 7175   6.710   2.692   7.883 -0.1862  0.0569 -0.6459
   78SLPC   H9Y 7176   6.626   2.850   7.909  1.1639  0.3250  1.8326
   78SLPC  C310 7177   6.788   2.806   8.040 -0.0142  0.9029 -0.3543
   78SLPC  H10X 7178   6.771   2.907   8.085 -1.7664  1.8770 -2.9776
   78SLPC  H10Y 7179   6.897   2.789   8.027 -0.1285  0.7303 -1.1034
   78SLPC  C311 7180   6.740   2.709   8.135  0.8527  0.0731 -0.4009
   78SLPC  H11X 7181   6.751   2.604   8.099 -0.3710 -0.2314  0.0903
   78SLPC  H11Y 7182   6.630   2.710   8.151  0.6842 -0.6305 -1.4429
   78SLPC  C312 7183   6.809   2.718   8.280  0.7240 -0.5675 -0.8172
   78SLPC  H12X 7184   6.919   2.726   8.269  0.6508 -0.3830 -1.4896
   78SLPC  H12Y 7185   6.783   2.620   8.325  0.1751  0.1326  0.4306
   78SLPC  C313 7186   6.755   2.831   8.365 -0.1446  0.1139 -0.3600
   78SLPC  H13X 7187   6.655   2.803   8.403 -1.2914  0.6361 -2.7759
   78SLPC  H13Y 7188   6.735   2.927   8.312 -2.0317  0.1085  0.2693
   78SLPC  C314 7189   6.840   2.859   8.490 -0.4341  0.3455 -0.1407
   78SLPC  H14X 7190   6.872   2.758   8.524 -1.3899 -0.3464 -1.2019
   78SLPC  H14Y 7191   6.794   2.909   8.578  1.9976  1.4571  0.5612
   78SLPC  C315 7192   6.963   2.941   8.470 -0.1510 -0.2616  0.2284
   78SLPC  H15X 7193   6.946   3.042   8.427  1.2741 -0.2699 -0.4007
   78SLPC  H15Y 7194   7.027   2.886   8.398  0.8530  3.3530 -1.8995
   78SLPC  C316 7195   7.017   2.970   8.613 -0.6458  1.0840  0.3320
   78SLPC  H16X 7196   7.000   2.880   8.675 -1.8378 -0.2745 -1.8504
   78SLPC  H16Y 7197   6.963   3.059   8.651 -0.6526  1.4631 -0.5326
   78SLPC  C317 7198   7.168   3.003   8.627 -0.7427 -0.0090 -1.1449
   78SLPC  H17X 7199   7.179   3.100   8.575  0.5390  0.3798 -0.1946
   78SLPC  H17Y 7200   7.219   2.921   8.572 -0.4048  0.5743 -1.7185
   78SLPC  C318 7201   7.204   3.029   8.775 -0.9376 -0.1827 -0.4199
   78SLPC  H18X 7202   7.137   3.108   8.814  0.8751  1.8626 -1.2623
   78SLPC  H18Y 7203   7.312   3.054   8.782 -0.7915 -1.0150  0.6173
   78SLPC  H18Z 7204   7.181   2.933   8.827  1.7330 -0.7135 -0.0719
   79SLPC     N 7205   6.341   5.791   6.040 -0.1753  0.2952  0.2605
   79SLPC   C13 7206   6.479   5.741   6.061 -0.1688  0.2793  0.5332
   79SLPC  H13A 7207   6.523   5.700   5.970  2.7007  2.5575  0.7431
   79SLPC  H13B 7208   6.538   5.824   6.096 -0.9316  0.1340  2.2542
   79SLPC  H13C 7209   6.486   5.665   6.138  0.1411 -0.5923 -0.3201
   79SLPC   C14 7210   6.253   5.681   5.984 -0.5045 -0.1092 -0.1688
   79SLPC  H14A 7211   6.152   5.716   5.968 -1.7048 -3.1200  0.1454
   79SLPC  H14B 7212   6.297   5.638   5.895  0.0648 -0.0471  0.0737
   79SLPC  H14C 7213   6.234   5.609   6.063 -1.3591  0.0171 -0.2491
   79SLPC   C15 7214   6.340   5.890   5.931 -0.0851  0.2361 -0.1209
   79SLPC  H15A 7215   6.245   5.940   5.920 -1.4876 -2.0093  0.9700
   79SLPC  H15B 7216   6.416   5.964   5.951  0.0325  0.3911 -1.1191
   79SLPC  H15C 7217   6.368   5.838   5.840 -1.4168  0.9887 -0.9918
   79SLPC   C12 7218   6.273   5.848   6.164 -0.6446 -0.0929  0.1760
   79SLPC  H12A 7219   6.268   5.775   6.243 -0.8428  1.5727  1.7555
   79SLPC  H12B 7220   6.174   5.880   6.135 -0.2309 -0.0658 -1.2912
   79SLPC   C11 7221   6.346   5.969   6.235  0.2727  0.4582 -0.1570
   79SLPC  H11A 7222   6.442   5.928   6.271  1.1123  0.7206 -1.9841
   79SLPC  H11B 7223   6.278   5.994   6.319 -0.0663  1.2293 -0.6496
   79SLPC     P 7224   6.484   6.173   6.171 -0.2045 -0.1915 -0.2043
   79SLPC   O13 7225   6.606   6.095   6.135  0.0678  0.3085 -0.6202
   79SLPC   O14 7226   6.449   6.297   6.109 -0.2022 -0.0328 -0.0191
   79SLPC   O12 7227   6.363   6.076   6.153  0.0412 -0.4984 -0.0404
   79SLPC   O11 7228   6.475   6.198   6.328 -0.3473  0.7009 -0.4269
   79SLPC    C1 7229   6.359   6.273   6.367 -0.0149  0.2422 -0.9149
   79SLPC    HA 7230   6.390   6.375   6.336 -0.3144  0.0173 -2.0027
   79SLPC    HB 7231   6.267   6.238   6.315 -0.2432 -1.2975  0.4463
   79SLPC    C2 7232   6.330   6.275   6.523 -0.4835  0.4987  0.0082
   79SLPC    HS 7233   6.239   6.338   6.535  0.2883  1.5740  0.3450
   79SLPC   O21 7234   6.446   6.324   6.593  0.3334 -0.1260  0.2276
   79SLPC   C21 7235   6.455   6.452   6.597 -0.5599 -0.9162  0.4266
   79SLPC   O22 7236   6.392   6.536   6.535  0.0843  0.3636  0.1294
   79SLPC   C22 7237   6.546   6.505   6.709  0.3148  0.1429  0.3837
   79SLPC   H2R 7238   6.654   6.498   6.685 -0.0239 -0.3166 -1.1547
   79SLPC   H2S 7239   6.505   6.608   6.718 -1.6209 -0.6013  0.5783
   79SLPC    C3 7240   6.281   6.133   6.577  0.1398 -0.2649  0.2138
   79SLPC    HX 7241   6.365   6.061   6.577 -0.0178 -0.4498  0.4108
   79SLPC    HY 7242   6.204   6.088   6.512 -1.9278 -0.3614  2.5956
   79SLPC   O31 7243   6.237   6.145   6.713 -0.0058  0.3172  0.4249
   79SLPC   C31 7244   6.109   6.173   6.728 -0.5137  0.5337 -0.4169
   79SLPC   O32 7245   6.036   6.206   6.642 -0.0288  0.1219  0.3578
   79SLPC   C32 7246   6.072   6.144   6.874 -0.3731  0.4091  0.3599
   79SLPC   H2X 7247   6.089   6.036   6.894  3.4222  0.3379 -2.1435
   79SLPC   H2Y 7248   5.971   6.186   6.888 -1.0768 -1.4478  1.1718
   79SLPC   C23 7249   6.542   6.415   6.827 -0.3177  0.6873 -0.1456
   79SLPC   H3R 7250   6.586   6.317   6.799  0.6033  1.0059  0.1395
   79SLPC   H3S 7251   6.439   6.400   6.866 -0.1771  0.5675  0.1853
   79SLPC   C24 7252   6.621   6.482   6.941 -0.2286  0.4508  0.4844
   79SLPC   H4R 7253   6.562   6.574   6.961 -0.6225 -0.0353  1.6423
   79SLPC   H4S 7254   6.724   6.511   6.908 -1.0177  1.5178 -1.1923
   79SLPC   C25 7255   6.620   6.404   7.072  0.6726 -0.5099  0.1327
   79SLPC   H5R 7256   6.684   6.313   7.070  2.4683  0.7046 -0.2381
   79SLPC   H5S 7257   6.515   6.384   7.104  0.4385  1.9546  1.1655
   79SLPC   C26 7258   6.671   6.484   7.195 -0.3398 -0.4031 -0.3078
   79SLPC   H6R 7259   6.618   6.582   7.189  2.1670  0.9252 -4.0408
   79SLPC   H6S 7260   6.781   6.496   7.195 -0.4336  1.6788  2.7606
   79SLPC   C27 7261   6.632   6.409   7.326  0.3441  0.1756 -0.4509
   79SLPC   H7R 7262   6.693   6.316   7.318 -0.9971 -0.5755 -2.8435
   79SLPC   H7S 7263   6.524   6.388   7.342  0.6108  0.7326  2.7281
   79SLPC   C28 7264   6.674   6.490   7.451  0.4522 -1.0369  0.7323
   79SLPC   H8R 7265   6.772   6.538   7.429 -0.3660  0.4692  0.2356
   79SLPC   H8S 7266   6.694   6.424   7.538 -0.7506  2.0829  3.6022
   79SLPC   C29 7267   6.572   6.604   7.500  0.0164  0.2702 -0.0845
   79SLPC   H9R 7268   6.571   6.689   7.431  1.7618  0.4668  0.0720
   79SLPC  C210 7269   6.499   6.611   7.615  0.4883 -0.1269 -0.5616
   79SLPC  H10R 7270   6.434   6.698   7.628 -1.1686 -1.4052  0.0640
   79SLPC  C211 7271   6.491   6.500   7.723 -0.4018 -0.0302  0.6890
   79SLPC  H11R 7272   6.490   6.398   7.679  0.6678  0.5502 -0.7915
   79SLPC  H11S 7273   6.400   6.510   7.785 -0.3512 -0.5149  0.8455
   79SLPC  C212 7274   6.597   6.509   7.830 -0.1732 -0.2137 -0.5592
   79SLPC  H12R 7275   6.693   6.458   7.814 -0.1845 -0.6296  0.5693
   79SLPC  C213 7276   6.593   6.569   7.952 -0.7270  0.2473 -0.0708
   79SLPC  H13R 7277   6.682   6.566   8.016 -0.6450  2.1273 -0.0412
   79SLPC  C214 7278   6.481   6.633   8.021  0.5245  0.4426 -0.0313
   79SLPC  H14R 7279   6.459   6.579   8.116  0.4019 -1.1328 -0.9183
   79SLPC  H14S 7280   6.393   6.631   7.954  0.4579 -2.2690  0.0067
   79SLPC  C215 7281   6.505   6.773   8.081 -0.3724 -0.3717 -0.0778
   79SLPC  H15R 7282   6.543   6.831   7.994 -2.7133  2.3542  0.5347
   79SLPC  H15S 7283   6.586   6.775   8.157  0.5031 -2.1973 -0.9035
   79SLPC  C216 7284   6.384   6.846   8.144 -1.2482 -0.4535  0.1660
   79SLPC  H16R 7285   6.316   6.775   8.195 -0.9338 -0.8781 -0.0043
   79SLPC  H16S 7286   6.332   6.892   8.057 -2.5739 -0.9596  0.6734
   79SLPC  C217 7287   6.406   6.966   8.243  0.0089 -0.5187 -0.2220
   79SLPC  H17R 7288   6.302   6.994   8.269 -0.5293 -0.2144 -2.5209
   79SLPC  H17S 7289   6.448   7.053   8.188 -0.5451  0.4914  0.9138
   79SLPC  C218 7290   6.478   6.931   8.373  0.2401  0.4285 -0.6439
   79SLPC  H18R 7291   6.499   7.025   8.427  1.9308 -1.3155  1.9537
   79SLPC  H18S 7292   6.578   6.883   8.373 -0.1210 -0.4144 -2.1799
   79SLPC  H18T 7293   6.422   6.873   8.450  1.8525  2.2013  2.0306
   79SLPC   C33 7294   6.155   6.228   6.969 -0.3391 -0.7661 -0.2749
   79SLPC   H3X 7295   6.154   6.333   6.931  0.4002 -1.2432 -1.6916
   79SLPC   H3Y 7296   6.262   6.199   6.979  0.1173  0.6333 -0.7309
   79SLPC   C34 7297   6.096   6.218   7.115 -0.1718 -0.0025  0.5407
   79SLPC   H4X 7298   6.077   6.109   7.130 -0.2594 -0.3656 -1.9035
   79SLPC   H4Y 7299   5.997   6.268   7.104 -0.2281  0.1976  1.7458
   79SLPC   C35 7300   6.171   6.278   7.231 -0.1086 -0.6953  0.2922
   79SLPC   H5X 7301   6.184   6.387   7.217 -0.1923 -0.8914 -1.6342
   79SLPC   H5Y 7302   6.279   6.252   7.237  0.9736  3.3821  3.4247
   79SLPC   C36 7303   6.101   6.259   7.366 -0.1881 -0.7632 -0.2005
   79SLPC   H6X 7304   6.061   6.156   7.377 -0.3962 -0.9960 -2.6217
   79SLPC   H6Y 7305   6.009   6.321   7.368  0.0071 -0.4640 -0.4576
   79SLPC   C37 7306   6.178   6.289   7.495 -0.0207 -0.4790 -0.3442
   79SLPC   H7X 7307   6.206   6.395   7.473 -4.2542  1.0080  0.5662
   79SLPC   H7Y 7308   6.273   6.232   7.499  1.0522  1.0866 -1.7706
   79SLPC   C38 7309   6.088   6.283   7.613  0.4715  0.7101  0.3022
   79SLPC   H8X 7310   6.046   6.180   7.608  2.8850 -0.2846 -1.6834
   79SLPC   H8Y 7311   6.007   6.357   7.592 -0.5208 -0.9173 -2.1530
   79SLPC   C39 7312   6.159   6.311   7.750 -0.0211 -0.7172  0.5864
   79SLPC   H9X 7313   6.203   6.413   7.742 -0.2664 -0.5898  0.8411
   79SLPC   H9Y 7314   6.241   6.242   7.778 -2.9105 -4.6248  0.1702
   79SLPC  C310 7315   6.075   6.299   7.881 -0.2618  0.4221  0.0666
   79SLPC  H10X 7316   6.052   6.192   7.899 -1.1949  0.6966  0.5765
   79SLPC  H10Y 7317   5.976   6.343   7.856 -0.5634 -0.5100 -0.4218
   79SLPC  C311 7318   6.145   6.369   7.994  0.2808  0.0963 -1.5130
   79SLPC  H11X 7319   6.162   6.474   7.960  1.9054  0.8933  1.4209
   79SLPC  H11Y 7320   6.242   6.317   8.010  0.4413  0.7166 -0.3809
   79SLPC  C312 7321   6.055   6.372   8.125  0.0713  0.7452 -0.5659
   79SLPC  H12X 7322   6.117   6.386   8.216 -1.6315 -2.0945  1.1951
   79SLPC  H12Y 7323   6.005   6.272   8.129 -2.0206  1.7392 -0.5806
   79SLPC  C313 7324   5.946   6.488   8.143 -0.3202  0.5222  0.1312
   79SLPC  H13X 7325   5.875   6.472   8.058 -4.3381 -1.0296  3.3998
   79SLPC  H13Y 7326   5.995   6.587   8.139 -1.0381  0.8659 -0.6005
   79SLPC  C314 7327   5.871   6.475   8.274  0.7377 -0.0339 -0.0359
   79SLPC  H14X 7328   5.814   6.379   8.274 -0.5408  0.6686 -1.5821
   79SLPC  H14Y 7329   5.787   6.548   8.279  0.2007 -0.7261  2.4014
   79SLPC  C315 7330   5.965   6.504   8.394  0.2673 -0.0912 -0.2737
   79SLPC  H15X 7331   6.035   6.590   8.385 -2.0506  1.7634 -1.6630
   79SLPC  H15Y 7332   6.020   6.409   8.407  0.7202 -0.4997 -4.0373
   79SLPC  C316 7333   5.885   6.539   8.526  0.1289 -0.0617 -0.1030
   79SLPC  H16X 7334   5.821   6.452   8.549 -1.1206  0.8918  0.1037
   79SLPC  H16Y 7335   5.825   6.629   8.501 -0.4928 -0.5817 -0.4830
   79SLPC  C317 7336   5.985   6.563   8.639  0.4659 -0.7040  0.5591
   79SLPC  H17X 7337   6.016   6.669   8.642 -2.1730  0.1107  1.4893
   79SLPC  H17Y 7338   6.068   6.489   8.635 -0.2409 -1.4766 -0.5741
   79SLPC  C318 7339   5.910   6.530   8.771 -0.8097  0.6958 -0.0511
   79SLPC  H18X 7340   5.868   6.427   8.775 -1.2321  0.9029  1.7319
   79SLPC  H18Y 7341   5.832   6.609   8.777 -0.7042  0.9266 -1.4362
   79SLPC  H18Z 7342   5.976   6.538   8.860  0.2453  0.0768 -0.7612
   80SLPC     N 7343   1.977   1.131   5.923  0.0223 -0.9407 -0.1977
   80SLPC   C13 7344   1.842   1.087   5.979  0.0559  0.1210 -0.9516
   80SLPC  H13A 7345   1.759   1.082   5.911  1.0073 -0.6284 -2.0966
   80SLPC  H13B 7346   1.847   0.990   6.028  1.6383 -0.1970 -1.6786
   80SLPC  H13C 7347   1.819   1.168   6.047  1.9518  0.2450 -0.3906
   80SLPC   C14 7348   1.972   1.270   5.864  0.8466  0.3967 -0.1483
   80SLPC  H14A 7349   2.063   1.297   5.812  0.3085 -1.6443 -2.3660
   80SLPC  H14B 7350   1.891   1.265   5.792 -0.2802 -1.7739  1.1493
   80SLPC  H14C 7351   1.951   1.344   5.939  1.7742 -2.4448  3.2017
   80SLPC   C15 7352   2.004   1.028   5.826 -1.0436 -0.1972  0.1904
   80SLPC  H15A 7353   2.099   1.060   5.786 -0.4140  0.7431  2.2990
   80SLPC  H15B 7354   2.015   0.932   5.874  0.6129  1.0739  2.6020
   80SLPC  H15C 7355   1.918   1.016   5.762  0.0889  0.1941 -1.4520
   80SLPC   C12 7356   2.085   1.126   6.037 -0.0294 -0.0136 -0.1402
   80SLPC  H12A 7357   2.178   1.138   5.982 -0.5151 -1.2016 -1.2521
   80SLPC  H12B 7358   2.084   1.025   6.074 -0.4455 -1.5468 -3.8711
   80SLPC   C11 7359   2.072   1.231   6.152 -0.2840 -1.0711  0.7960
   80SLPC  H11A 7360   2.076   1.338   6.120  0.6277 -0.6675  2.2097
   80SLPC  H11B 7361   2.169   1.215   6.203 -0.5322 -0.8919  1.3360
   80SLPC     P 7362   1.970   1.116   6.355 -0.2449 -0.3740  0.2434
   80SLPC   O13 7363   1.836   1.094   6.413 -0.2539 -0.5511  0.0053
   80SLPC   O14 7364   2.048   0.996   6.324  0.0866 -0.0692 -0.3991
   80SLPC   O12 7365   1.953   1.214   6.231 -0.3766  0.2306  0.2041
   80SLPC   O11 7366   2.053   1.204   6.452  0.3892 -0.5349  0.5655
   80SLPC    C1 7367   2.039   1.339   6.496  0.4175  0.3642  0.4182
   80SLPC    HA 7368   2.130   1.400   6.476  1.5074 -0.5234  2.3698
   80SLPC    HB 7369   1.951   1.384   6.447 -0.3501 -2.2624 -0.7690
   80SLPC    C2 7370   2.010   1.342   6.653 -0.6355  0.3295  0.9196
   80SLPC    HS 7371   1.979   1.446   6.674  1.4820  0.7898  2.0251
   80SLPC   O21 7372   2.133   1.301   6.721  0.1077  0.3000  0.6250
   80SLPC   C21 7373   2.229   1.395   6.718  0.4131  1.4734 -0.7204
   80SLPC   O22 7374   2.206   1.510   6.685 -0.2145  0.3516 -0.2121
   80SLPC   C22 7375   2.357   1.330   6.758 -0.1518 -0.7479 -0.1365
   80SLPC   H2R 7376   2.349   1.259   6.843 -3.1877 -0.9634 -0.4926
   80SLPC   H2S 7377   2.407   1.287   6.669  0.3091  1.4568 -1.0175
   80SLPC    C3 7378   1.895   1.238   6.689 -0.2723  0.0173 -1.2134
   80SLPC    HX 7379   1.917   1.135   6.653 -0.3606  0.0258 -1.2906
   80SLPC    HY 7380   1.804   1.273   6.637 -2.0178  0.1685  1.7723
   80SLPC   O31 7381   1.865   1.244   6.829  0.2644  0.0792 -0.4699
   80SLPC   C31 7382   1.930   1.152   6.908 -0.0488  0.5357 -0.7105
   80SLPC   O32 7383   2.021   1.083   6.871  0.6151 -0.8600 -0.4609
   80SLPC   C32 7384   1.867   1.156   7.053 -0.3990  0.4445 -0.1400
   80SLPC   H2X 7385   1.783   1.084   7.045 -0.7428  0.8316 -0.0522
   80SLPC   H2Y 7386   1.829   1.258   7.074 -0.6377  0.4864 -0.7656
   80SLPC   C23 7387   2.460   1.443   6.800 -0.1871 -0.2528 -0.2309
   80SLPC   H3R 7388   2.473   1.520   6.721 -1.8268  0.1758 -0.1255
   80SLPC   H3S 7389   2.564   1.408   6.817 -0.1632  0.0462  0.2395
   80SLPC   C24 7390   2.425   1.513   6.928 -0.4340  0.4848 -0.7624
   80SLPC   H4R 7391   2.315   1.521   6.926 -0.5267 -0.6617 -1.1220
   80SLPC   H4S 7392   2.479   1.610   6.935  1.5443 -0.5907 -0.2114
   80SLPC   C25 7393   2.453   1.424   7.049 -0.2244  0.2559  0.5399
   80SLPC   H5R 7394   2.546   1.365   7.030  0.3458  1.6364 -1.2213
   80SLPC   H5S 7395   2.371   1.356   7.081  0.3180 -0.3502  0.6681
   80SLPC   C26 7396   2.483   1.518   7.169  0.5226  0.1516 -0.3701
   80SLPC   H6R 7397   2.392   1.571   7.206 -0.3584 -0.4160 -1.6501
   80SLPC   H6S 7398   2.557   1.592   7.133  0.0579  1.0888  0.5578
   80SLPC   C27 7399   2.542   1.433   7.285 -0.0967 -0.5972  0.8108
   80SLPC   H7R 7400   2.631   1.381   7.245 -1.3118 -2.3969  0.2952
   80SLPC   H7S 7401   2.474   1.350   7.315 -1.5861  0.0034 -0.7443
   80SLPC   C28 7402   2.580   1.525   7.407  0.5175  0.3673 -1.0394
   80SLPC   H8R 7403   2.652   1.602   7.370  1.1164 -0.2792 -1.2445
   80SLPC   H8S 7404   2.632   1.452   7.472  0.7505 -2.3444 -4.0182
   80SLPC   C29 7405   2.457   1.578   7.481 -0.4861 -0.0804 -0.4941
   80SLPC   H9R 7406   2.356   1.552   7.448 -1.7103  1.0364  2.0990
   80SLPC  C210 7407   2.470   1.657   7.594 -0.3404  0.0630 -0.0769
   80SLPC  H10R 7408   2.374   1.693   7.636  0.3401  2.4984 -0.4203
   80SLPC  C211 7409   2.594   1.714   7.662  0.2862  0.5370 -1.0477
   80SLPC  H11R 7410   2.673   1.720   7.585  1.0520 -1.3009 -0.4572
   80SLPC  H11S 7411   2.638   1.636   7.727  0.0322  0.0925 -1.4021
   80SLPC  C212 7412   2.568   1.845   7.743 -0.5589  0.2064  0.1449
   80SLPC  H12R 7413   2.592   1.940   7.692 -1.4843  0.5191  0.2717
   80SLPC  C213 7414   2.532   1.847   7.873  0.0553 -0.5413  0.1987
   80SLPC  H13R 7415   2.526   1.946   7.921 -3.1672 -0.3729 -0.3226
   80SLPC  C214 7416   2.511   1.735   7.969  0.1563  0.3853 -0.0040
   80SLPC  H14R 7417   2.542   1.776   8.068  0.3752  0.1371  0.0328
   80SLPC  H14S 7418   2.575   1.650   7.935  0.2261  0.3613  0.1827
   80SLPC  C215 7419   2.364   1.681   7.959 -0.5373 -0.7020  0.2973
   80SLPC  H15R 7420   2.351   1.590   8.021 -0.5525  0.7738  2.5726
   80SLPC  H15S 7421   2.346   1.664   7.851 -0.1262  0.6238  0.0024
   80SLPC  C216 7422   2.265   1.787   8.008  0.5281 -0.3742 -0.3648
   80SLPC  H16R 7423   2.171   1.749   7.961  0.5928 -0.2663 -0.5812
   80SLPC  H16S 7424   2.282   1.893   7.979  1.6603 -0.3060  0.4906
   80SLPC  C217 7425   2.246   1.787   8.163 -0.0488  0.5348  0.6544
   80SLPC  H17R 7426   2.273   1.687   8.206 -1.3916  0.0292  0.3463
   80SLPC  H17S 7427   2.140   1.802   8.190  0.3120  0.7890  2.0257
   80SLPC  C218 7428   2.321   1.899   8.240  0.2083  0.5775  0.2318
   80SLPC  H18R 7429   2.428   1.904   8.213  0.7355 -0.4180  1.9960
   80SLPC  H18S 7430   2.314   1.876   8.349 -0.3731  1.1189  0.3165
   80SLPC  H18T 7431   2.254   1.988   8.237 -1.2181 -0.4817 -2.4969
   80SLPC   C33 7432   1.951   1.115   7.172 -0.1094 -0.0186  0.3226
   80SLPC   H3X 7433   2.021   1.198   7.194  1.4054 -1.5862  1.8118
   80SLPC   H3Y 7434   2.015   1.031   7.138 -1.9074 -0.6949 -1.6198
   80SLPC   C34 7435   1.868   1.077   7.294 -0.3723 -0.4946  0.3851
   80SLPC   H4X 7436   1.798   0.994   7.269  0.2013 -1.2984  1.4029
   80SLPC   H4Y 7437   1.803   1.163   7.322 -2.1519 -1.7433  0.2395
   80SLPC   C35 7438   1.952   1.035   7.419 -0.7219 -0.3132 -0.9245
   80SLPC   H5X 7439   2.026   1.117   7.431  0.1066 -1.0137 -1.1638
   80SLPC   H5Y 7440   2.009   0.940   7.416  1.5583  0.8198  1.3729
   80SLPC   C36 7441   1.862   1.032   7.539  0.2684  0.3173 -0.6155
   80SLPC   H6X 7442   1.780   0.961   7.515  0.0224  0.2166  0.4627
   80SLPC   H6Y 7443   1.824   1.134   7.563 -0.9389  0.2586 -2.1105
   80SLPC   C37 7444   1.933   1.004   7.670  0.1810  0.4408  0.6686
   80SLPC   H7X 7445   2.019   1.073   7.683 -0.6987  1.7379 -0.2497
   80SLPC   H7Y 7446   1.979   0.903   7.664 -1.3315 -0.1988 -1.0003
   80SLPC   C38 7447   1.842   0.985   7.788  0.5038 -0.7929 -0.3782
   80SLPC   H8X 7448   1.770   0.904   7.766  1.6147 -1.4495 -1.7661
   80SLPC   H8Y 7449   1.789   1.082   7.793 -0.6110 -1.1967 -2.9628
   80SLPC   C39 7450   1.919   0.962   7.919 -0.3170 -0.0287  0.2659
   80SLPC   H9X 7451   2.012   1.024   7.919 -0.0989 -0.3525 -0.1526
   80SLPC   H9Y 7452   1.959   0.858   7.920  2.0629  0.8092 -0.0097
   80SLPC  C310 7453   1.849   0.996   8.052 -0.3924 -0.5253  0.1656
   80SLPC  H10X 7454   1.747   0.961   8.024  0.0243 -2.2071  0.6661
   80SLPC  H10Y 7455   1.850   1.104   8.078  0.5777 -0.3092 -0.7273
   80SLPC  C311 7456   1.881   0.919   8.183  0.0568  0.4257 -0.7024
   80SLPC  H11X 7457   1.807   0.958   8.257  0.5651 -0.8499  0.5138
   80SLPC  H11Y 7458   1.984   0.951   8.211 -0.0499  1.4117 -1.3745
   80SLPC  C312 7459   1.856   0.765   8.174 -0.1104 -0.4555 -0.0687
   80SLPC  H12X 7460   1.922   0.723   8.094 -0.9107  0.3824 -1.2084
   80SLPC  H12Y 7461   1.760   0.755   8.120 -0.5795  3.9378 -0.4340
   80SLPC  C313 7462   1.871   0.681   8.308 -1.0469  0.0696 -0.4103
   80SLPC  H13X 7463   1.877   0.571   8.303  0.0616 -0.0192  1.5924
   80SLPC  H13Y 7464   1.790   0.707   8.379 -0.6282 -1.0896  0.5349
   80SLPC  C314 7465   1.997   0.721   8.381  0.0295 -0.6504 -0.2543
   80SLPC  H14X 7466   1.990   0.826   8.418  1.3131 -0.1288 -1.4054
   80SLPC  H14Y 7467   2.089   0.715   8.319 -0.9930  2.3307 -2.2796
   80SLPC  C315 7468   2.018   0.636   8.511 -0.5897  0.2055 -0.5604
   80SLPC  H15X 7469   2.019   0.527   8.491  0.9341  0.0257  0.3817
   80SLPC  H15Y 7470   1.924   0.645   8.569  0.6287 -1.1460  1.8066
   80SLPC  C316 7471   2.144   0.675   8.596  0.1510  0.1899  0.1191
   80SLPC  H16X 7472   2.140   0.784   8.615  0.7487  0.0832  0.9036
   80SLPC  H16Y 7473   2.226   0.645   8.528 -0.9926 -2.0193 -0.3952
   80SLPC  C317 7474   2.152   0.613   8.732  0.0772  0.7670  0.0802
   80SLPC  H17X 7475   2.146   0.503   8.715  0.7454  0.8717 -0.8901
   80SLPC  H17Y 7476   2.061   0.644   8.789 -0.3635 -0.1454 -0.0994
   80SLPC  C318 7477   2.289   0.639   8.790  0.7215 -0.8553 -0.7893
   80SLPC  H18X 7478   2.363   0.607   8.713 -0.9266 -1.3989 -2.2378
   80SLPC  H18Y 7479   2.304   0.586   8.886  1.4179  2.3263  0.9902
   80SLPC  H18Z 7480   2.310   0.747   8.802 -2.9299 -0.0391 -0.4805
   81SAPS     N 7481   6.770   6.325  10.973  0.0621  0.8181  0.0937
   81SAPS   HN1 7482   6.839   6.343  10.898 -0.2817  1.5634 -0.0511
   81SAPS   HN2 7483   6.675   6.351  10.940  0.2140 -0.5480 -1.5594
   81SAPS   HN3 7484   6.790   6.381  11.059  0.8612 -0.4801  0.7899
   81SAPS   C12 7485   6.759   6.182  11.003 -0.8486 -0.2916  0.8949
   81SAPS  H12A 7486   6.846   6.143  11.055 -0.3775 -0.7479 -0.2027
   81SAPS   C13 7487   6.645   6.145  11.100  0.6126 -0.1348 -0.1509
   81SAPS  O13A 7488   6.593   6.239  11.165  0.1304  0.6427 -0.1025
   81SAPS  O13B 7489   6.603   6.025  11.110 -0.0165  0.1346 -0.7960
   81SAPS   C11 7490   6.743   6.113  10.861 -0.5965  0.7951 -0.2110
   81SAPS  H11A 7491   6.660   6.161  10.805  0.3843  1.4849 -1.1252
   81SAPS  H11B 7492   6.717   6.007  10.879  0.2859  0.3972 -1.1694
   81SAPS     P 7493   6.978   6.023  10.793  0.0999 -0.3205  0.0645
   81SAPS   O13 7494   7.094   6.089  10.738 -0.1254 -0.0605 -0.0463
   81SAPS   O14 7495   6.999   5.978  10.931 -0.4164  0.8033  0.1698
   81SAPS   O12 7496   6.862   6.124  10.779  0.1044  0.4070  0.1731
   81SAPS   O11 7497   6.945   5.906  10.693 -0.1365 -0.0683  0.3646
   81SAPS    C1 7498   6.825   5.903  10.613 -0.4412  0.5098 -0.2663
   81SAPS    HA 7499   6.733   5.911  10.675 -1.0704 -0.4858 -1.0230
   81SAPS    HB 7500   6.838   5.976  10.530 -0.7814 -0.1549 -0.9101
   81SAPS    C2 7501   6.802   5.760  10.541  0.7769  0.5322  0.4617
   81SAPS    HS 7502   6.821   5.686  10.621  0.4645  0.4613  0.4704
   81SAPS   O21 7503   6.889   5.751  10.421 -0.6056  0.7342 -0.1944
   81SAPS   C21 7504   6.902   5.631  10.351 -1.1794  0.7961  1.1612
   81SAPS   O22 7505   6.839   5.529  10.363  0.1046  0.0018 -0.1723
   81SAPS   C22 7506   7.005   5.650  10.231  0.0789  0.8738 -0.0431
   81SAPS   H2R 7507   7.106   5.676  10.268  0.4435  1.6937 -1.5250
   81SAPS   H2S 7508   7.014   5.552  10.180 -4.8812 -0.7374  1.6138
   81SAPS    C3 7509   6.646   5.747  10.495 -0.6668  0.4347 -0.1340
   81SAPS    HX 7510   6.585   5.767  10.586 -2.6882  0.0983 -1.3515
   81SAPS    HY 7511   6.649   5.641  10.462 -2.1738  0.5038 -0.5396
   81SAPS   O31 7512   6.613   5.848  10.393 -0.4267 -0.3183  0.2259
   81SAPS   C31 7513   6.579   5.800  10.276 -0.1338 -0.4699 -0.0775
   81SAPS   O32 7514   6.567   5.677  10.252 -0.0767 -0.3204  0.2043
   81SAPS   C32 7515   6.558   5.910  10.172  0.5237  0.0037 -0.0473
   81SAPS   H2X 7516   6.627   5.991  10.205  0.1947 -0.0434  0.7782
   81SAPS   H2Y 7517   6.452   5.937  10.188  0.2379 -2.0849  2.2657
   81SAPS   C23 7518   6.969   5.761  10.137 -1.0360 -0.8857 -0.2978
   81SAPS   H3R 7519   6.964   5.857  10.193  3.1886  0.4333 -1.8364
   81SAPS   H3S 7520   6.866   5.740  10.100 -1.0436  1.0747 -1.5768
   81SAPS   C24 7521   7.079   5.784  10.028  0.0873 -0.4768 -0.0065
   81SAPS   H4R 7522   7.179   5.781  10.075  0.7997  1.7711 -1.2217
   81SAPS   H4S 7523   7.069   5.886   9.986 -3.0283 -1.0524 -0.9155
   81SAPS   C25 7524   7.082   5.690   9.912 -0.0036  0.0412 -0.2208
   81SAPS   H5R 7525   7.117   5.593   9.950 -0.2944  0.1206  0.2632
   81SAPS   C26 7526   7.059   5.702   9.780  0.2405 -0.1258 -0.7231
   81SAPS   H6R 7527   7.060   5.617   9.710  1.1690  0.6121 -1.6407
   81SAPS   C27 7528   7.011   5.827   9.718  0.1171  0.3571 -0.0674
   81SAPS   H7R 7529   7.105   5.883   9.700  0.7756 -0.9494 -0.8593
   81SAPS   H7S 7530   6.953   5.880   9.796  0.1909 -1.9143  1.6411
   81SAPS   C28 7531   6.929   5.804   9.591  0.0737  0.5338  0.0312
   81SAPS   H8R 7532   6.864   5.716   9.580  0.8434 -0.3880  2.2424
   81SAPS   C29 7533   6.937   5.882   9.480 -0.4378 -0.2717  1.3649
   81SAPS   H9R 7534   6.881   5.852   9.390  0.7098 -1.0453  0.8777
   81SAPS  C210 7535   7.021   6.011   9.459  0.1354  0.2409  0.0144
   81SAPS  H10R 7536   7.108   5.993   9.392 -0.7861  0.2828 -1.2455
   81SAPS  H10S 7537   7.079   6.041   9.548  1.3505  2.1175 -1.3345
   81SAPS  C211 7538   6.933   6.122   9.412 -0.4003 -0.4185  0.0626
   81SAPS  H11R 7539   6.892   6.192   9.485 -1.6595 -0.4968 -0.5410
   81SAPS  C212 7540   6.892   6.134   9.284  0.1328  0.8638  0.7760
   81SAPS  H12R 7541   6.825   6.215   9.250 -0.3051  0.2316  0.1239
   81SAPS  C213 7542   6.925   6.054   9.164 -0.6375 -1.3279  0.1664
   81SAPS  H13R 7543   6.833   5.996   9.143 -1.5021 -0.7205  2.0411
   81SAPS  H13S 7544   7.012   5.992   9.196  0.7463  1.2442  1.7611
   81SAPS  C214 7545   6.964   6.125   9.037  0.0572 -0.8789  0.2009
   81SAPS  H14R 7546   6.895   6.118   8.952 -0.9291  3.1232  0.4404
   81SAPS  C215 7547   7.070   6.209   9.029 -1.1552 -0.2963 -0.5605
   81SAPS  H15R 7548   7.079   6.259   8.932  2.2366 -1.1388 -0.8390
   81SAPS  C216 7549   7.182   6.240   9.123 -0.0473 -0.4038  0.0158
   81SAPS  H16R 7550   7.268   6.177   9.092  0.1732  0.0456 -0.3017
   81SAPS  H16S 7551   7.163   6.210   9.228  0.1727  3.2296  1.2230
   81SAPS  C217 7552   7.208   6.390   9.141 -0.1854  0.0474  0.0485
   81SAPS  H17R 7553   7.201   6.436   9.041 -0.1651 -1.8985 -0.9001
   81SAPS  H17S 7554   7.311   6.403   9.179 -0.4001 -0.2757  0.7632
   81SAPS  C218 7555   7.104   6.454   9.236 -0.6375 -0.6725 -0.4989
   81SAPS  H18R 7556   7.103   6.406   9.336  0.2335  0.6215  0.1665
   81SAPS  H18S 7557   7.000   6.449   9.197 -1.4157 -0.7961  1.4915
   81SAPS  C219 7558   7.126   6.607   9.249  0.3059 -0.5498  0.5322
   81SAPS  H19R 7559   7.027   6.659   9.247 -0.1364 -1.3856 -0.6230
   81SAPS  H19S 7560   7.178   6.638   9.156  0.2578 -0.0129  0.6817
   81SAPS  C220 7561   7.219   6.649   9.365 -0.4080  0.2092 -0.0375
   81SAPS  H20R 7562   7.160   6.670   9.458 -1.4290  0.6191 -0.7536
   81SAPS  H20S 7563   7.289   6.733   9.348  1.2023 -1.0237  0.3406
   81SAPS  H20T 7564   7.284   6.564   9.392  0.6246  1.8917  3.3408
   81SAPS   C33 7565   6.582   5.875  10.027  0.8447  0.2467  0.2487
   81SAPS   H3X 7566   6.527   5.782  10.002 -1.3240  1.5949 -0.3155
   81SAPS   H3Y 7567   6.691   5.856  10.013  0.6907 -0.0072 -0.7051
   81SAPS   C34 7568   6.547   5.990   9.936 -0.9815  0.2359  0.5204
   81SAPS   H4X 7569   6.629   6.065   9.932 -1.5154  0.8511  0.9627
   81SAPS   H4Y 7570   6.456   6.038   9.976 -0.7261 -0.3468  1.8710
   81SAPS   C35 7571   6.524   5.946   9.789 -0.3339 -0.0715  0.5869
   81SAPS   H5X 7572   6.444   5.869   9.789  0.6049 -1.2650 -2.9986
   81SAPS   H5Y 7573   6.614   5.900   9.743 -0.6418  1.5267 -1.7364
   81SAPS   C36 7574   6.475   6.056   9.692 -0.3524  0.0664 -0.9178
   81SAPS   H6X 7575   6.555   6.133   9.693 -1.2584  1.0166 -0.2971
   81SAPS   H6Y 7576   6.379   6.103   9.722 -0.0258  0.0542  0.1788
   81SAPS   C37 7577   6.453   6.001   9.549 -0.2871  0.2411 -0.3668
   81SAPS   H7X 7578   6.390   6.070   9.488  0.7502  1.6663  0.1121
   81SAPS   H7Y 7579   6.406   5.901   9.563  2.2729 -1.0665 -0.5719
   81SAPS   C38 7580   6.588   5.978   9.468 -0.8799  0.1111 -0.2778
   81SAPS   H8X 7581   6.647   5.907   9.530 -2.8788 -2.8120 -1.5063
   81SAPS   H8Y 7582   6.642   6.075   9.458 -0.5204 -0.0302  0.2694
   81SAPS   C39 7583   6.564   5.914   9.331 -0.4321  0.2922 -0.2066
   81SAPS   H9X 7584   6.505   5.821   9.344  1.3875 -0.6192  2.3415
   81SAPS   H9Y 7585   6.667   5.888   9.299 -1.0422 -3.9524  0.7706
   81SAPS  C310 7586   6.504   6.013   9.227  0.2634 -0.2383 -0.0355
   81SAPS  H10X 7587   6.570   6.101   9.214 -0.4676  0.2925 -0.2549
   81SAPS  H10Y 7588   6.404   6.048   9.259 -1.1987  0.1675 -4.3245
   81SAPS  C311 7589   6.482   5.940   9.093 -0.1063 -0.4267 -0.4428
   81SAPS  H11X 7590   6.564   5.865   9.087 -0.9242 -1.2679 -1.8276
   81SAPS  H11Y 7591   6.503   6.018   9.016  1.8693  0.8189  1.2490
   81SAPS  C312 7592   6.345   5.870   9.088 -0.2601 -0.3055  0.7643
   81SAPS  H12X 7593   6.268   5.949   9.097  1.4158  1.3609  1.2448
   81SAPS  H12Y 7594   6.328   5.799   9.173 -2.0941 -2.5444 -1.3288
   81SAPS  C313 7595   6.324   5.794   8.957 -0.7076  0.5022 -0.9485
   81SAPS  H13X 7596   6.239   5.724   8.968 -0.2197  0.1226  0.9051
   81SAPS  H13Y 7597   6.420   5.738   8.950 -0.3143  0.9033  0.7201
   81SAPS  C314 7598   6.306   5.882   8.835  0.3836 -0.0325  1.4962
   81SAPS  H14X 7599   6.366   5.837   8.753 -1.5088 -1.5597  0.8685
   81SAPS  H14Y 7600   6.345   5.984   8.853  2.7344 -0.7994  1.1613
   81SAPS  C315 7601   6.152   5.889   8.783 -0.6488 -0.0922 -0.1173
   81SAPS  H15X 7602   6.085   5.899   8.871 -0.4681 -0.2132  0.0355
   81SAPS  H15Y 7603   6.131   5.785   8.747 -1.5815  0.0478 -0.0101
   81SAPS  C316 7604   6.130   5.999   8.675 -0.0448 -0.0081 -0.6303
   81SAPS  H16X 7605   6.183   5.963   8.584 -1.8398 -0.8905 -1.3936
   81SAPS  H16Y 7606   6.159   6.098   8.716 -1.1958 -0.1402  0.5505
   81SAPS  C317 7607   5.979   6.013   8.650  0.3055  0.8640 -0.3145
   81SAPS  H17X 7608   5.931   6.002   8.750  1.0874  1.1206  0.0945
   81SAPS  H17Y 7609   5.937   5.920   8.604 -0.8173  1.3326 -0.2834
   81SAPS  C318 7610   5.937   6.146   8.583  0.3447  0.1232 -0.3978
   81SAPS  H18X 7611   5.828   6.163   8.576  0.4381  0.4230 -1.4008
   81SAPS  H18Y 7612   5.985   6.175   8.486 -0.4745  0.7690 -0.6212
   81SAPS  H18Z 7613   5.982   6.215   8.658 -0.0708 -0.6642  0.5951
   82SAPS     N 7614   5.001   4.805  11.098  0.3329 -0.2281 -0.3767
   82SAPS   HN1 7615   5.077   4.850  11.153  1.4343 -1.4109 -0.8842
   82SAPS   HN2 7616   5.033   4.777  11.003 -1.1196  0.9591 -1.2608
   82SAPS   HN3 7617   4.919   4.869  11.088  0.8202  0.8049  1.6020
   82SAPS   C12 7618   4.955   4.679  11.168  0.2016  0.6258  0.6860
   82SAPS  H12A 7619   5.045   4.622  11.190  0.4903  0.9840  0.4498
   82SAPS   C13 7620   4.886   4.699  11.300  0.0290  0.2700  0.5571
   82SAPS  O13A 7621   4.863   4.813  11.357  0.7676 -0.0894  0.5164
   82SAPS  O13B 7622   4.885   4.599  11.372  0.1213  0.1097 -0.0607
   82SAPS   C11 7623   4.860   4.598  11.076  0.2204 -0.1108 -0.6679
   82SAPS  H11A 7624   4.773   4.659  11.042  0.0309 -1.2054 -2.3005
   82SAPS  H11B 7625   4.820   4.509  11.129 -0.6372  1.7911  2.0941
   82SAPS     P 7626   4.935   4.604  10.822  0.0352 -0.4656 -0.3125
   82SAPS   O13 7627   4.977   4.745  10.840 -0.2976  0.1128  0.4022
   82SAPS   O14 7628   5.020   4.513  10.737 -0.1634 -0.6982  0.2950
   82SAPS   O12 7629   4.930   4.546  10.964  0.3526  1.0498  0.3371
   82SAPS   O11 7630   4.791   4.608  10.762  0.6872 -0.2870 -0.1206
   82SAPS    C1 7631   4.719   4.493  10.771 -0.5191  0.1062  0.2247
   82SAPS    HA 7632   4.730   4.428  10.860 -0.0313  0.4127  0.3939
   82SAPS    HB 7633   4.612   4.522  10.761 -0.1583  1.2939 -0.3927
   82SAPS    C2 7634   4.755   4.396  10.646  0.4826 -0.1228  0.0963
   82SAPS    HS 7635   4.847   4.340  10.674  1.1937 -0.1329 -2.0826
   82SAPS   O21 7636   4.787   4.482  10.532 -0.2923 -0.0174  0.7370
   82SAPS   C21 7637   4.896   4.444  10.463  0.6619 -0.6243 -0.2543
   82SAPS   O22 7638   4.962   4.346  10.472  0.1191  0.1339 -0.1568
   82SAPS   C22 7639   4.935   4.562  10.376 -0.3552  0.5290 -0.8663
   82SAPS   H2R 7640   4.850   4.598  10.314 -0.1875  0.4695 -1.1334
   82SAPS   H2S 7641   4.988   4.638  10.437 -0.9068 -1.1686  1.8601
   82SAPS    C3 7642   4.637   4.306  10.607  0.5156  0.6776 -0.3370
   82SAPS    HX 7643   4.559   4.379  10.577 -0.8841  0.0766  1.6514
   82SAPS    HY 7644   4.598   4.252  10.696 -1.5569  1.6245 -0.6184
   82SAPS   O31 7645   4.676   4.221  10.498 -0.4913 -0.3111  0.1800
   82SAPS   C31 7646   4.602   4.116  10.459 -0.1798 -1.1589  0.4888
   82SAPS   O32 7647   4.496   4.089  10.512 -0.3373  0.1889  0.2198
   82SAPS   C32 7648   4.649   4.062  10.322 -0.2683 -0.3432 -0.2709
   82SAPS   H2X 7649   4.557   4.074  10.260  0.6340  0.8946 -1.4255
   82SAPS   H2Y 7650   4.681   3.958  10.343 -0.0586 -0.5965 -1.7179
   82SAPS   C23 7651   5.039   4.509  10.268  0.4420 -0.1354 -0.3955
   82SAPS   H3R 7652   4.998   4.421  10.213  0.5992 -0.2990 -0.2522
   82SAPS   H3S 7653   5.130   4.476  10.323 -0.6552  0.8351  2.1572
   82SAPS   C24 7654   5.057   4.620  10.165 -0.5704  0.3292  0.0254
   82SAPS   H4R 7655   4.956   4.643  10.124 -0.9046  0.5467  0.9455
   82SAPS   H4S 7656   5.114   4.583  10.077  1.3677  4.3699 -0.6660
   82SAPS   C25 7657   5.115   4.752  10.207  0.5562 -0.2051  0.0941
   82SAPS   H5R 7658   5.068   4.797  10.296  0.0800 -0.6043  0.0471
   82SAPS   C26 7659   5.215   4.810  10.146 -0.6394  0.4563  0.1408
   82SAPS   H6R 7660   5.246   4.912  10.176  0.5082  0.7811 -1.9342
   82SAPS   C27 7661   5.295   4.742  10.026 -0.5445  0.6143 -0.1276
   82SAPS   H7R 7662   5.229   4.759   9.938 -2.7312  0.6315  1.4356
   82SAPS   H7S 7663   5.300   4.632  10.039  0.2790  0.7071  0.4455
   82SAPS   C28 7664   5.441   4.796  10.025  1.3157 -0.1259  0.4984
   82SAPS   H8R 7665   5.477   4.817  10.127  0.6606 -1.9391  1.1306
   82SAPS   C29 7666   5.516   4.830   9.917  0.0511 -0.1043  0.0437
   82SAPS   H9R 7667   5.614   4.869   9.945  0.4672  0.9700 -2.6022
   82SAPS  C210 7668   5.483   4.819   9.769 -0.1649 -0.6514  0.1971
   82SAPS  H10R 7669   5.432   4.914   9.744 -2.0140 -2.0644 -1.8934
   82SAPS  H10S 7670   5.415   4.733   9.747 -1.0263 -0.3380  1.5358
   82SAPS  C211 7671   5.610   4.827   9.681  0.0717  0.5984 -0.2814
   82SAPS  H11R 7672   5.695   4.866   9.739  0.0997  0.4187 -0.1997
   82SAPS  C212 7673   5.628   4.794   9.548  0.1128 -0.9126 -0.2338
   82SAPS  H12R 7674   5.725   4.813   9.500  0.6734  0.1699  1.2554
   82SAPS  C213 7675   5.515   4.731   9.465 -0.0529  0.5606  0.4271
   82SAPS  H13R 7676   5.490   4.626   9.491  2.1166 -0.0939  0.1062
   82SAPS  H13S 7677   5.551   4.713   9.361  0.1938  0.1142  0.5854
   82SAPS  C214 7678   5.387   4.811   9.454 -0.7441 -0.1142 -0.2109
   82SAPS  H14R 7679   5.358   4.843   9.555  0.9079 -1.1733  0.6539
   82SAPS  C215 7680   5.325   4.856   9.341  0.3392 -0.7397  0.2500
   82SAPS  H15R 7681   5.232   4.913   9.356  1.0923  0.8642 -0.8163
   82SAPS  C216 7682   5.365   4.836   9.193  0.5416 -0.2105  0.0611
   82SAPS  H16R 7683   5.331   4.736   9.159 -0.6007 -0.1900  1.1179
   82SAPS  H16S 7684   5.473   4.861   9.186 -0.2314  3.4540 -0.4657
   82SAPS  C217 7685   5.301   4.939   9.099  0.3693  1.1041 -0.1828
   82SAPS  H17R 7686   5.312   5.040   9.142 -0.1609  0.5504  1.3111
   82SAPS  H17S 7687   5.192   4.921   9.085  0.1414  1.9945  0.4236
   82SAPS  C218 7688   5.361   4.927   8.959  0.1133 -0.3485 -0.2712
   82SAPS  H18R 7689   5.298   4.991   8.892 -0.5455  0.6778  1.2692
   82SAPS  H18S 7690   5.354   4.826   8.915  0.0726 -0.1093 -0.8272
   82SAPS  C219 7691   5.505   4.984   8.952 -0.1615 -0.4733 -0.3415
   82SAPS  H19R 7692   5.566   4.945   9.036 -2.7766  0.0204  1.9710
   82SAPS  H19S 7693   5.501   5.090   8.986  1.0473 -0.3740 -0.4891
   82SAPS  C220 7694   5.579   4.962   8.822 -0.4395  0.2060 -0.4449
   82SAPS  H20R 7695   5.560   4.864   8.774 -2.7324  1.1055 -1.5559
   82SAPS  H20S 7696   5.688   4.961   8.842 -0.8931 -1.6406  2.7236
   82SAPS  H20T 7697   5.553   5.037   8.745 -1.6429 -0.0384 -0.3090
   82SAPS   C33 7698   4.774   4.130  10.263  0.6091  0.4179 -0.0157
   82SAPS   H3X 7699   4.858   4.123  10.336  0.3901 -1.4640  0.0983
   82SAPS   H3Y 7700   4.753   4.239  10.252 -2.0656 -0.0273  0.0146
   82SAPS   C34 7701   4.825   4.081  10.128 -0.0284  0.1736 -0.4239
   82SAPS   H4X 7702   4.881   3.986  10.140  0.7960  0.7512  0.4688
   82SAPS   H4Y 7703   4.899   4.156  10.092 -0.6400  0.6442 -0.7090
   82SAPS   C35 7704   4.717   4.075  10.029  0.4924 -0.1734  0.2824
   82SAPS   H5X 7705   4.655   4.167  10.021  1.1845  0.1173 -2.7101
   82SAPS   H5Y 7706   4.636   4.000  10.048  0.9079 -0.6851  0.0660
   82SAPS   C36 7707   4.754   4.040   9.882  0.5611  0.1193 -0.0347
   82SAPS   H6X 7708   4.788   3.935   9.879  0.3183  0.0507 -0.5087
   82SAPS   H6Y 7709   4.833   4.111   9.851  1.2772 -0.1406  1.1422
   82SAPS   C37 7710   4.640   4.071   9.788 -0.3702 -0.3213  0.5591
   82SAPS   H7X 7711   4.635   4.182   9.787 -2.6642 -0.3740  1.1284
   82SAPS   H7Y 7712   4.538   4.045   9.822 -0.6254  1.1096  0.9570
   82SAPS   C38 7713   4.673   4.013   9.652  0.1554  1.0078 -0.3350
   82SAPS   H8X 7714   4.680   3.903   9.662 -2.1542  0.9170  0.9681
   82SAPS   H8Y 7715   4.778   4.048   9.638  1.3562 -1.7429  1.1156
   82SAPS   C39 7716   4.571   4.058   9.550  0.1069 -0.0496  0.6809
   82SAPS   H9X 7717   4.552   4.164   9.522 -2.1501 -0.7054 -0.5876
   82SAPS   H9Y 7718   4.476   4.031   9.600  0.9991  1.0614  3.0961
   82SAPS  C310 7719   4.581   3.979   9.420  0.3210 -0.4221  0.0423
   82SAPS  H10X 7720   4.650   3.894   9.439  1.4286 -0.6805 -4.0167
   82SAPS  H10Y 7721   4.633   4.037   9.340  1.2650  0.0551  0.9823
   82SAPS  C311 7722   4.450   3.929   9.361  0.4950  0.3155  0.4322
   82SAPS  H11X 7723   4.422   4.003   9.284  1.1211 -1.3761 -1.5251
   82SAPS  H11Y 7724   4.372   3.930   9.439  1.7930  1.0371  1.7775
   82SAPS  C312 7725   4.480   3.790   9.289 -0.0735 -0.4721 -0.0597
   82SAPS  H12X 7726   4.515   3.723   9.370 -0.7758  0.2524  0.8760
   82SAPS  H12Y 7727   4.571   3.810   9.229  1.0890 -1.0053  1.4756
   82SAPS  C313 7728   4.367   3.732   9.205 -0.1156  0.3038  0.3553
   82SAPS  H13X 7729   4.280   3.737   9.274 -1.0675 -1.7573 -0.6317
   82SAPS  H13Y 7730   4.372   3.624   9.181 -2.9615 -0.2239  1.7762
   82SAPS  C314 7731   4.341   3.814   9.076  0.4721  0.3056  0.2301
   82SAPS  H14X 7732   4.438   3.818   9.022  0.3064  0.4349 -0.0564
   82SAPS  H14Y 7733   4.314   3.917   9.110 -0.1013  0.6614 -1.2533
   82SAPS  C315 7734   4.224   3.767   8.988 -0.2635 -0.0058 -0.0000
   82SAPS  H15X 7735   4.239   3.662   8.956 -0.4062 -0.0687  0.1372
   82SAPS  H15Y 7736   4.224   3.836   8.901 -0.1264 -1.4984 -1.2268
   82SAPS  C316 7737   4.087   3.784   9.054  0.2679 -0.2907 -0.0929
   82SAPS  H16X 7738   4.055   3.889   9.074 -1.6349 -0.8174 -0.1012
   82SAPS  H16Y 7739   4.075   3.725   9.147  1.7168 -1.3807 -0.5754
   82SAPS  C317 7740   3.968   3.735   8.968  0.1962 -0.3890 -0.6009
   82SAPS  H17X 7741   3.873   3.760   9.020  2.3310  1.5880  2.7351
   82SAPS  H17Y 7742   3.974   3.624   8.972 -1.7980 -0.5353  2.7579
   82SAPS  C318 7743   3.954   3.785   8.824  0.1247  0.3769  0.3557
   82SAPS  H18X 7744   3.965   3.895   8.814  2.2514  0.2398  0.5416
   82SAPS  H18Y 7745   3.860   3.753   8.774  0.7295  0.7794 -1.0867
   82SAPS  H18Z 7746   4.030   3.731   8.763 -0.8477 -1.0023  0.3252
   83SAPS     N 7747   5.575   5.570  11.335 -0.1091  0.5209 -0.0247
   83SAPS   HN1 7748   5.568   5.495  11.406 -0.6051 -1.3740 -1.9571
   83SAPS   HN2 7749   5.514   5.649  11.365  0.2412  0.6431  0.3756
   83SAPS   HN3 7750   5.539   5.534  11.244 -1.5799 -0.0932  0.7755
   83SAPS   C12 7751   5.707   5.627  11.342 -0.3593 -0.4049 -0.4821
   83SAPS  H12A 7752   5.735   5.659  11.441 -0.3207 -0.6266 -0.4223
   83SAPS   C13 7753   5.824   5.526  11.310 -0.6140 -0.0272  0.5452
   83SAPS  O13A 7754   5.788   5.413  11.285 -0.1263  0.1577 -0.4696
   83SAPS  O13B 7755   5.941   5.565  11.287 -0.0234 -0.2120  0.0520
   83SAPS   C11 7756   5.717   5.739  11.241 -0.4304  0.3165  0.4051
   83SAPS  H11A 7757   5.737   5.710  11.135  2.2590 -1.8169  1.3911
   83SAPS  H11B 7758   5.815   5.788  11.260  0.2013 -0.6183 -0.3620
   83SAPS     P 7759   5.649   5.978  11.321  0.0168  0.4476  0.1371
   83SAPS   O13 7760   5.535   6.054  11.371 -0.6357  0.7219  0.3567
   83SAPS   O14 7761   5.762   5.960  11.411  0.3113  0.4482 -0.4699
   83SAPS   O12 7762   5.612   5.833  11.263 -0.7723  1.1128 -0.0651
   83SAPS   O11 7763   5.698   6.049  11.187  0.8400  0.5495 -0.1188
   83SAPS    C1 7764   5.594   6.063  11.085 -0.6958  0.3694  0.4239
   83SAPS    HA 7765   5.495   6.015  11.098 -0.1970 -1.4029 -1.5604
   83SAPS    HB 7766   5.584   6.167  11.049 -0.7437 -0.3764 -1.9058
   83SAPS    C2 7767   5.638   5.986  10.952 -0.6228 -0.2852 -0.2391
   83SAPS    HS 7768   5.642   5.879  10.983 -0.6169  0.1599  1.4171
   83SAPS   O21 7769   5.766   6.036  10.915  0.2684  0.0610  0.1403
   83SAPS   C21 7770   5.846   5.938  10.881  0.1041 -0.5823  0.1504
   83SAPS   O22 7771   5.821   5.821  10.872  0.6698 -0.1305  0.6448
   83SAPS   C22 7772   5.985   5.995  10.849  0.6817  0.5134  0.1162
   83SAPS   H2R 7773   5.978   6.080  10.777  2.1505  0.6288  0.0726
   83SAPS   H2S 7774   6.020   6.036  10.946 -1.9130 -1.8672  2.1828
   83SAPS    C3 7775   5.530   6.005  10.843  0.1509  0.7931  0.1569
   83SAPS    HX 7776   5.519   6.115  10.830  0.1712  0.8074  0.2520
   83SAPS    HY 7777   5.428   5.976  10.875  0.9659 -1.6043  0.8206
   83SAPS   O31 7778   5.577   5.930  10.732 -0.1363  0.2328  0.1390
   83SAPS   C31 7779   5.552   5.799  10.740 -0.2516  0.3421 -0.0130
   83SAPS   O32 7780   5.491   5.745  10.830 -0.8484  0.1149  0.3989
   83SAPS   C32 7781   5.610   5.732  10.616  0.6411 -0.1047  0.1191
   83SAPS   H2X 7782   5.588   5.624  10.626  0.8678 -0.0564  1.3777
   83SAPS   H2Y 7783   5.717   5.756  10.596 -0.2495  1.9093 -2.8427
   83SAPS   C23 7784   6.095   5.895  10.808  0.8489 -0.3096  0.1896
   83SAPS   H3R 7785   6.100   5.809  10.879 -2.4959 -1.0472 -0.2787
   83SAPS   H3S 7786   6.189   5.954  10.811  0.9890 -0.5301  0.1617
   83SAPS   C24 7787   6.063   5.827  10.670 -0.1482 -0.7327 -0.4051
   83SAPS   H4R 7788   6.070   5.913  10.600  1.0492  1.9990  2.7985
   83SAPS   H4S 7789   5.960   5.788  10.654 -0.3938  0.1608 -1.0576
   83SAPS   C25 7790   6.164   5.719  10.637  0.3445  0.2957 -0.2475
   83SAPS   H5R 7791   6.208   5.661  10.720  1.4736 -0.5016 -1.3708
   83SAPS   C26 7792   6.195   5.691  10.508 -0.1695 -0.0503  0.1502
   83SAPS   H6R 7793   6.276   5.617  10.492 -0.7721 -1.3808  2.6681
   83SAPS   C27 7794   6.148   5.762  10.381 -0.4134  0.6251 -0.4192
   83SAPS   H7R 7795   6.233   5.748  10.311 -0.7571 -1.6122 -0.4526
   83SAPS   H7S 7796   6.121   5.868  10.397  0.3524  0.8442 -0.5495
   83SAPS   C28 7797   6.032   5.694  10.324 -0.0892 -0.1467  0.3956
   83SAPS   H8R 7798   5.983   5.619  10.388 -0.1544  0.4406  1.0483
   83SAPS   C29 7799   5.998   5.692  10.195  0.3441 -0.0262  0.4450
   83SAPS   H9R 7800   5.926   5.617  10.158 -1.1198  2.0915 -1.3136
   83SAPS  C210 7801   6.072   5.756  10.083 -0.3748  0.5729 -0.4137
   83SAPS  H10R 7802   6.138   5.843  10.109  0.3686  0.9077 -3.0973
   83SAPS  H10S 7803   5.995   5.795  10.013  0.9491  2.3703 -0.9542
   83SAPS  C211 7804   6.168   5.664  10.005  0.4119  0.0260  0.1456
   83SAPS  H11R 7805   6.250   5.628  10.068  0.5610  0.1658  0.0334
   83SAPS  C212 7806   6.164   5.632   9.872 -0.6699  0.0649 -0.4689
   83SAPS  H12R 7807   6.241   5.563   9.836  0.6753  1.0980  0.3465
   83SAPS  C213 7808   6.063   5.672   9.777 -0.0952  0.0706 -0.2436
   83SAPS  H13R 7809   5.964   5.672   9.828  1.3807 -2.7409  3.0135
   83SAPS  H13S 7810   6.056   5.596   9.695  1.5973 -0.2092 -0.1693
   83SAPS  C214 7811   6.099   5.806   9.729  0.1654  0.2582 -0.9699
   83SAPS  H14R 7812   6.120   5.883   9.805 -0.8850 -2.4531  2.3586
   83SAPS  C215 7813   6.101   5.841   9.596 -0.2034 -0.0654 -0.5282
   83SAPS  H15R 7814   6.136   5.941   9.568  0.0488 -1.1619 -4.7598
   83SAPS  C216 7815   6.066   5.755   9.477 -0.7899  0.7834  0.0598
   83SAPS  H16R 7816   6.020   5.658   9.506  1.3738 -0.2489  0.2562
   83SAPS  H16S 7817   6.157   5.728   9.419  0.1408 -0.2417  1.9121
   83SAPS  C217 7818   5.967   5.818   9.376 -0.2678  0.1698  0.0026
   83SAPS  H17R 7819   6.026   5.893   9.320  2.0475 -1.4163  0.1458
   83SAPS  H17S 7820   5.888   5.874   9.431 -0.5477  1.0396 -1.2590
   83SAPS  C218 7821   5.913   5.716   9.276  0.2041  0.0983  0.1529
   83SAPS  H18R 7822   5.835   5.663   9.335  1.0928 -1.6723 -0.1987
   83SAPS  H18S 7823   5.998   5.646   9.260 -0.2078 -0.5878  0.8842
   83SAPS  C219 7824   5.848   5.777   9.154  0.2441 -0.0939  0.7317
   83SAPS  H19R 7825   5.797   5.700   9.092  1.6812 -2.2621  2.0805
   83SAPS  H19S 7826   5.921   5.841   9.099  0.5323 -0.4040  0.7485
   83SAPS  C220 7827   5.732   5.872   9.204 -0.6241  0.6660  0.4535
   83SAPS  H20R 7828   5.665   5.834   9.284 -0.0136  0.3675  0.8361
   83SAPS  H20S 7829   5.657   5.900   9.127 -1.1619  0.6854  0.9846
   83SAPS  H20T 7830   5.784   5.967   9.229  0.3040  0.4714 -0.6224
   83SAPS   C33 7831   5.528   5.772  10.487 -0.4988  0.4895 -0.1118
   83SAPS   H3X 7832   5.535   5.882  10.476 -0.1203  0.4378 -0.3947
   83SAPS   H3Y 7833   5.423   5.748  10.514 -0.2138 -0.3672  0.2839
   83SAPS   C34 7834   5.584   5.712  10.352  0.1855  0.7907 -0.8621
   83SAPS   H4X 7835   5.626   5.611  10.371  1.9480  1.2148 -2.3036
   83SAPS   H4Y 7836   5.679   5.764  10.330  2.9046 -3.4604 -0.3623
   83SAPS   C35 7837   5.494   5.719  10.233  0.1556  0.0527  0.0550
   83SAPS   H5X 7838   5.479   5.826  10.208 -1.0249  0.5602  2.6020
   83SAPS   H5Y 7839   5.393   5.683  10.264  1.4393 -3.2933  0.8121
   83SAPS   C36 7840   5.560   5.657  10.110 -0.2241 -0.9469 -0.5410
   83SAPS   H6X 7841   5.528   5.550  10.103 -0.7026 -0.8674  0.2733
   83SAPS   H6Y 7842   5.669   5.672  10.126 -0.7341  0.7052  1.9918
   83SAPS   C37 7843   5.518   5.731   9.985 -0.1182 -0.1085  0.0926
   83SAPS   H7X 7844   5.570   5.828   9.995 -2.0456  0.8065  1.9952
   83SAPS   H7Y 7845   5.408   5.745   9.970  0.0741 -1.1777 -3.1925
   83SAPS   C38 7846   5.569   5.659   9.862  0.4412 -0.6560  0.2186
   83SAPS   H8X 7847   5.508   5.567   9.848  0.4578 -0.5881 -0.3084
   83SAPS   H8Y 7848   5.672   5.618   9.864  1.6230  2.1710  0.4022
   83SAPS   C39 7849   5.533   5.725   9.726 -0.5684  0.4196 -0.5809
   83SAPS   H9X 7850   5.606   5.808   9.719  0.5992 -0.1378  3.2035
   83SAPS   H9Y 7851   5.426   5.753   9.731 -1.1925 -1.9096  0.8133
   83SAPS  C310 7852   5.552   5.629   9.604  0.0712  0.3274  0.3635
   83SAPS  H10X 7853   5.497   5.537   9.635  0.4896  0.4296  1.4288
   83SAPS  H10Y 7854   5.660   5.628   9.578 -0.7059  1.2086 -3.5852
   83SAPS  C311 7855   5.489   5.689   9.482  0.0028  0.0331  0.6968
   83SAPS  H11X 7856   5.541   5.780   9.444  0.2820 -0.3303  0.1963
   83SAPS  H11Y 7857   5.386   5.724   9.508  0.0418  1.9528 -1.3310
   83SAPS  C312 7858   5.490   5.599   9.358 -0.0622 -0.6528  0.3921
   83SAPS  H12X 7859   5.437   5.504   9.386 -0.0347 -0.4102  1.3091
   83SAPS  H12Y 7860   5.593   5.590   9.318  0.5404  3.2116  0.7156
   83SAPS  C313 7861   5.424   5.670   9.235 -0.3754 -0.5161 -0.3265
   83SAPS  H13X 7862   5.446   5.779   9.241  1.2312 -0.4042 -4.8131
   83SAPS  H13Y 7863   5.314   5.676   9.247 -0.3710 -0.8483 -0.1044
   83SAPS  C314 7864   5.468   5.617   9.090  0.4004  0.3355  0.5368
   83SAPS  H14X 7865   5.448   5.508   9.098 -0.0980  0.3536 -0.3621
   83SAPS  H14Y 7866   5.577   5.622   9.069  0.1381  0.6061 -0.8081
   83SAPS  C315 7867   5.390   5.666   8.973  0.1715 -0.5684 -0.2239
   83SAPS  H15X 7868   5.287   5.638   9.004 -0.1586  0.0919 -0.6896
   83SAPS  H15Y 7869   5.412   5.601   8.886  1.3045 -1.5907  0.7775
   83SAPS  C316 7870   5.399   5.818   8.941 -0.6046  0.3795  0.0087
   83SAPS  H16X 7871   5.507   5.844   8.933 -0.5749  0.3731  0.3459
   83SAPS  H16Y 7872   5.362   5.863   9.036  0.7151 -2.1452  1.8555
   83SAPS  C317 7873   5.296   5.848   8.835 -0.3481  0.4812  0.9124
   83SAPS  H17X 7874   5.293   5.959   8.825 -0.0774  0.3463 -1.3613
   83SAPS  H17Y 7875   5.204   5.817   8.887 -0.6626  2.2684  1.4577
   83SAPS  C318 7876   5.297   5.785   8.696  0.1724  0.2869 -0.0096
   83SAPS  H18X 7877   5.389   5.806   8.638 -0.7102 -2.1660 -2.4870
   83SAPS  H18Y 7878   5.216   5.828   8.635  0.4325 -0.4175 -0.8704
   83SAPS  H18Z 7879   5.295   5.674   8.695  2.6614  0.1855 -0.6627
   84SAPS     N 7880   2.067   0.043  11.173 -0.4340 -0.0434 -0.3016
   84SAPS   HN1 7881   2.063  -0.036  11.106  2.3240 -1.7805  1.4146
   84SAPS   HN2 7882   1.973   0.062  11.214 -0.3710 -0.5960  0.1123
   84SAPS   HN3 7883   2.103   0.129  11.126  2.0216  0.9056  2.9652
   84SAPS   C12 7884   2.176   0.004  11.275 -0.2274  0.0304 -1.1268
   84SAPS  H12A 7885   2.247   0.085  11.281  0.8388 -0.9445  0.0430
   84SAPS   C13 7886   2.121  -0.034  11.414  0.1092 -0.0828 -0.4646
   84SAPS  O13A 7887   1.999  -0.023  11.442 -0.3277 -0.0339  0.5266
   84SAPS  O13B 7888   2.208  -0.078  11.499 -0.3839  0.0292 -0.2688
   84SAPS   C11 7889   2.268  -0.109  11.228  0.2541 -0.0690 -1.0205
   84SAPS  H11A 7890   2.200  -0.196  11.212 -0.6939  0.6223 -0.8520
   84SAPS  H11B 7891   2.349  -0.117  11.304 -0.4598  0.6864 -0.1602
   84SAPS     P 7892   2.400  -0.171  11.014  0.0077 -0.1107 -0.0892
   84SAPS   O13 7893   2.512  -0.234  11.086 -0.3165 -0.3847  0.3138
   84SAPS   O14 7894   2.301  -0.267  10.952  0.3722  0.0317 -0.4229
   84SAPS   O12 7895   2.327  -0.068  11.106  0.2418  0.4521  0.2461
   84SAPS   O11 7896   2.451  -0.073  10.898 -0.6544  0.5456  0.1129
   84SAPS    C1 7897   2.358   0.023  10.851 -0.1806 -0.1601  0.6626
   84SAPS    HA 7898   2.303   0.083  10.926 -0.4652  0.4542 -0.0342
   84SAPS    HB 7899   2.422   0.108  10.818  1.5785 -1.6276  0.0883
   84SAPS    C2 7900   2.272  -0.022  10.722 -0.4720  0.4305 -0.4581
   84SAPS    HS 7901   2.192  -0.075  10.777 -1.0799  0.5625 -1.2069
   84SAPS   O21 7902   2.349  -0.111  10.643 -0.3936  0.1840  0.0031
   84SAPS   C21 7903   2.275  -0.201  10.571 -0.7397 -0.1651  0.3390
   84SAPS   O22 7904   2.157  -0.223  10.590  0.1297  0.3345  0.2297
   84SAPS   C22 7905   2.371  -0.245  10.450  0.4245 -0.5229  0.5262
   84SAPS   H2R 7906   2.444  -0.165  10.426 -0.5522  0.4128  0.6338
   84SAPS   H2S 7907   2.432  -0.331  10.484 -0.3635 -1.1043  0.4887
   84SAPS    C3 7908   2.221   0.103  10.651 -0.4843  0.8432  1.0258
   84SAPS    HX 7909   2.311   0.149  10.605  0.3969 -1.5731  0.1631
   84SAPS    HY 7910   2.175   0.174  10.723  1.8788  0.5357  2.9500
   84SAPS   O31 7911   2.128   0.058  10.551 -0.3965  0.2348 -0.3086
   84SAPS   C31 7912   2.000   0.031  10.586 -0.4719 -0.2395 -0.5997
   84SAPS   O32 7913   1.957   0.040  10.699  0.4046  0.3421  0.1747
   84SAPS   C32 7914   1.916  -0.011  10.468 -0.5527 -0.1664 -0.0334
   84SAPS   H2X 7915   1.813  -0.037  10.499  0.3517 -1.4780  2.1021
   84SAPS   H2Y 7916   1.944  -0.113  10.433  2.3121 -0.1944  1.9420
   84SAPS   C23 7917   2.287  -0.280  10.324 -0.5591 -0.0972 -0.2722
   84SAPS   H3R 7918   2.205  -0.347  10.355  1.7262 -2.4098  1.2035
   84SAPS   H3S 7919   2.358  -0.340  10.262 -2.5785 -0.8459 -1.9933
   84SAPS   C24 7920   2.240  -0.159  10.247  0.9994 -0.0407  0.4125
   84SAPS   H4R 7921   2.185  -0.081  10.304  0.9762  0.9061 -0.8527
   84SAPS   H4S 7922   2.170  -0.199  10.170 -0.6728  0.4228  1.6200
   84SAPS   C25 7923   2.352  -0.089  10.189  0.1406  0.4574  0.0104
   84SAPS   H5R 7924   2.412  -0.036  10.265  1.5075 -1.0498  0.0223
   84SAPS   C26 7925   2.382  -0.072  10.059  0.3075 -0.0752 -0.1955
   84SAPS   H6R 7926   2.480  -0.030  10.033  0.5614  1.0660  2.3604
   84SAPS   C27 7927   2.301  -0.113   9.942 -0.0322  0.4439 -0.0231
   84SAPS   H7R 7928   2.303  -0.029   9.869 -0.5697 -0.3177 -0.9413
   84SAPS   H7S 7929   2.193  -0.128   9.963 -0.5841  2.3062 -1.2503
   84SAPS   C28 7930   2.364  -0.239   9.885 -0.2857  0.3386 -0.2234
   84SAPS   H8R 7931   2.373  -0.327   9.950 -1.0857 -1.1872 -2.0860
   84SAPS   C29 7932   2.394  -0.261   9.759  0.1148  0.3732  1.0768
   84SAPS   H9R 7933   2.442  -0.355   9.729 -0.9530  0.5622 -1.5496
   84SAPS  C210 7934   2.365  -0.172   9.642 -0.7659  0.0756  0.0950
   84SAPS  H10R 7935   2.463  -0.125   9.620 -0.9733  1.0169  1.1063
   84SAPS  H10S 7936   2.295  -0.091   9.672  0.5966  1.0851  0.6872
   84SAPS  C211 7937   2.319  -0.249   9.519 -0.6861 -0.2501 -0.0150
   84SAPS  H11R 7938   2.235  -0.313   9.550 -0.7504 -0.2646 -0.2164
   84SAPS  C212 7939   2.354  -0.232   9.380 -0.4822 -0.2816  0.0359
   84SAPS  H12R 7940   2.307  -0.298   9.305  1.7671 -1.9057 -0.0296
   84SAPS  C213 7941   2.448  -0.125   9.320 -0.3266 -0.1684 -0.0939
   84SAPS  H13R 7942   2.484  -0.056   9.400 -1.0667  0.6402 -0.4497
   84SAPS  H13S 7943   2.383  -0.065   9.254 -0.1734 -1.8060 -1.8019
   84SAPS  C214 7944   2.569  -0.177   9.248 -0.3833 -0.0131  0.4012
   84SAPS  H14R 7945   2.640  -0.230   9.314 -0.0310 -0.0498 -0.0031
   84SAPS  C215 7946   2.593  -0.159   9.112  0.1502  0.6756 -0.4342
   84SAPS  H15R 7947   2.680  -0.216   9.077  0.0648  2.3248 -3.7056
   84SAPS  C216 7948   2.509  -0.078   9.016 -0.2470  0.9666  0.1279
   84SAPS  H16R 7949   2.572  -0.020   8.945  0.5181  0.4721  0.3918
   84SAPS  H16S 7950   2.447  -0.002   9.068 -0.5756 -0.2975  1.6460
   84SAPS  C217 7951   2.412  -0.159   8.931 -0.2038  0.7011  0.0884
   84SAPS  H17R 7952   2.350  -0.091   8.868 -0.9280 -0.7038 -0.7583
   84SAPS  H17S 7953   2.335  -0.204   8.997 -1.3840  4.4320  1.5129
   84SAPS  C218 7954   2.469  -0.256   8.815  1.1076 -0.1908 -0.5972
   84SAPS  H18R 7955   2.549  -0.322   8.856 -0.9637 -1.9087  0.8814
   84SAPS  H18S 7956   2.506  -0.181   8.742 -0.7310  0.7928 -0.5652
   84SAPS  C219 7957   2.356  -0.342   8.762  0.3398 -0.4609  0.3462
   84SAPS  H19R 7958   2.306  -0.285   8.681 -0.2809  2.0013  2.3270
   84SAPS  H19S 7959   2.288  -0.366   8.847  0.2614  0.5251  0.5684
   84SAPS  C220 7960   2.394  -0.478   8.704  0.2353 -0.1621 -0.1937
   84SAPS  H20R 7961   2.468  -0.464   8.622  0.3828  2.0485  0.2610
   84SAPS  H20S 7962   2.309  -0.533   8.656 -0.7291  2.0805 -1.2202
   84SAPS  H20T 7963   2.434  -0.548   8.780  1.3181  0.8051  0.1520
   84SAPS   C33 7964   1.925   0.088  10.348  0.1191 -0.2979  1.3710
   84SAPS   H3X 7965   2.033   0.092  10.320  0.2286 -1.7721  1.4927
   84SAPS   H3Y 7966   1.890   0.188  10.379  1.9224  0.0252  2.5294
   84SAPS   C34 7967   1.840   0.044  10.227  0.0411  0.0340 -0.2910
   84SAPS   H4X 7968   1.735   0.039  10.263  0.4924  0.3299  1.1277
   84SAPS   H4Y 7969   1.871  -0.055  10.188 -0.3389 -0.0109 -0.4894
   84SAPS   C35 7970   1.857   0.136  10.111 -0.0621  0.5256  0.1789
   84SAPS   H5X 7971   1.953   0.127  10.057 -0.5164 -0.1040 -0.5413
   84SAPS   H5Y 7972   1.837   0.240  10.146 -1.0347  0.6142 -0.5861
   84SAPS   C36 7973   1.750   0.115  10.000 -0.1842  0.2565 -0.8043
   84SAPS   H6X 7974   1.649   0.138  10.039  0.4830 -0.1228  1.2805
   84SAPS   H6Y 7975   1.753   0.007   9.972  1.7864  0.1567 -0.3607
   84SAPS   C37 7976   1.776   0.183   9.860 -0.2091  0.1164 -0.6382
   84SAPS   H7X 7977   1.871   0.140   9.823  1.4700  1.7702  1.5071
   84SAPS   H7Y 7978   1.779   0.293   9.871  0.9826 -0.0252  0.6691
   84SAPS   C38 7979   1.661   0.156   9.765  0.0808  0.4694 -0.8279
   84SAPS   H8X 7980   1.564   0.193   9.803 -0.6864 -2.4427  0.3084
   84SAPS   H8Y 7981   1.655   0.046   9.779  0.3429  0.2910 -2.0450
   84SAPS   C39 7982   1.693   0.196   9.624  0.9705  0.3731  0.0466
   84SAPS   H9X 7983   1.707   0.305   9.608  1.1563  0.1438 -1.6215
   84SAPS   H9Y 7984   1.591   0.178   9.583  0.4050 -1.2991  2.0624
   84SAPS  C310 7985   1.798   0.114   9.544 -0.0855  0.3004 -0.0088
   84SAPS  H10X 7986   1.759   0.010   9.538 -2.5158  1.1128  0.5659
   84SAPS  H10Y 7987   1.896   0.133   9.592 -0.1622  1.1648 -0.1800
   84SAPS  C311 7988   1.812   0.160   9.400  0.7049  0.0368 -0.5246
   84SAPS  H11X 7989   1.907   0.118   9.359  1.5616  0.9480  0.4734
   84SAPS  H11Y 7990   1.832   0.267   9.419  1.6575 -0.2745  0.3117
   84SAPS  C312 7991   1.695   0.117   9.313 -0.0706 -0.2310  0.5447
   84SAPS  H12X 7992   1.600   0.165   9.343 -1.0643 -1.4376 -0.5265
   84SAPS  H12Y 7993   1.674   0.008   9.322  0.8594 -0.4820 -0.2006
   84SAPS  C313 7994   1.723   0.142   9.165  0.6349  0.0236 -0.4436
   84SAPS  H13X 7995   1.648   0.081   9.111 -0.6967  0.8287  0.4411
   84SAPS  H13Y 7996   1.821   0.098   9.138  1.6779  1.2320  1.1792
   84SAPS  C314 7997   1.695   0.285   9.115  0.4082  0.7308 -0.4055
   84SAPS  H14X 7998   1.764   0.360   9.159  0.7942 -0.7635  1.7275
   84SAPS  H14Y 7999   1.599   0.312   9.164  0.3267 -0.5042  0.1528
   84SAPS  C315 8000   1.696   0.293   8.958 -0.2852  0.1640 -0.3852
   84SAPS  H15X 8001   1.624   0.213   8.931 -0.1486 -0.6885  1.5822
   84SAPS  H15Y 8002   1.798   0.257   8.931  0.4569 -0.6713  3.0620
   84SAPS  C316 8003   1.655   0.433   8.906  0.3376 -0.2043  0.1717
   84SAPS  H16X 8004   1.730   0.513   8.923 -0.7235  1.1380 -1.2053
   84SAPS  H16Y 8005   1.562   0.465   8.958  0.3700 -0.2506  0.2581
   84SAPS  C317 8006   1.632   0.432   8.760  0.2277 -0.4415  0.1596
   84SAPS  H17X 8007   1.608   0.537   8.735 -0.1217 -0.3116  0.9754
   84SAPS  H17Y 8008   1.540   0.375   8.735  0.7520  0.3430 -4.3882
   84SAPS  C318 8009   1.757   0.384   8.681 -0.1518 -0.6222  0.1084
   84SAPS  H18X 8010   1.787   0.279   8.701  2.1103 -0.1811 -0.7524
   84SAPS  H18Y 8011   1.848   0.444   8.700 -0.7159  0.6546 -1.0725
   84SAPS  H18Z 8012   1.741   0.388   8.572 -3.2797 -0.1613  0.4831
   85SAPS     N 8013   1.847   3.342  11.167 -0.4057  0.2310 -0.8002
   85SAPS   HN1 8014   1.933   3.336  11.109  0.9585  2.1208  0.8802
   85SAPS   HN2 8015   1.817   3.252  11.208 -1.7423  0.7727 -0.5380
   85SAPS   HN3 8016   1.763   3.367  11.110 -1.3580  1.8049  1.1572
   85SAPS   C12 8017   1.875   3.439  11.272 -0.8893 -0.3409 -0.1758
   85SAPS  H12A 8018   1.802   3.431  11.351 -0.1263 -0.7104  0.5118
   85SAPS   C13 8019   2.014   3.413  11.336  0.2238  0.0154  0.0992
   85SAPS  O13A 8020   2.080   3.308  11.312 -0.1710 -0.3529 -0.1639
   85SAPS  O13B 8021   2.032   3.478  11.444 -0.3727  0.2840 -0.1183
   85SAPS   C11 8022   1.881   3.590  11.224  0.5640  0.1589 -1.0396
   85SAPS  H11A 8023   1.957   3.589  11.143  0.6260 -1.2407 -0.9879
   85SAPS  H11B 8024   1.905   3.655  11.311  0.0309 -0.9234 -0.0663
   85SAPS     P 8025   1.735   3.779  11.119  0.0346 -0.2835 -0.0147
   85SAPS   O13 8026   1.591   3.792  11.090 -0.2163 -0.0740 -0.1628
   85SAPS   O14 8027   1.804   3.875  11.211  0.7724  0.4623  0.5987
   85SAPS   O12 8028   1.754   3.629  11.177 -0.4082 -0.1516  0.3055
   85SAPS   O11 8029   1.823   3.782  10.988  0.0013  0.4868  0.1253
   85SAPS    C1 8030   1.790   3.692  10.883 -0.3071 -0.1374  0.2475
   85SAPS    HA 8031   1.771   3.590  10.922 -0.6903  0.8097  2.7422
   85SAPS    HB 8032   1.694   3.718  10.834 -0.3201  0.5288  0.6223
   85SAPS    C2 8033   1.908   3.684  10.784  0.5317 -0.3667  0.4243
   85SAPS    HS 8034   2.003   3.689  10.841  0.8832 -0.3301 -0.1599
   85SAPS   O21 8035   1.900   3.803  10.703 -0.5080 -0.6920 -0.1592
   85SAPS   C21 8036   2.016   3.868  10.682  0.5665 -0.0488 -0.0735
   85SAPS   O22 8037   2.127   3.816  10.679  0.5348 -0.2943  0.2302
   85SAPS   C22 8038   1.998   4.025  10.659 -0.0882 -0.1485  0.5128
   85SAPS   H2R 8039   1.948   4.022  10.560  0.2710 -0.7271  0.3413
   85SAPS   H2S 8040   1.929   4.068  10.735  1.3499  0.4821  1.5245
   85SAPS    C3 8041   1.904   3.551  10.706  0.3116 -0.3909  0.0426
   85SAPS    HX 8042   1.808   3.557  10.650  1.5558  2.0766 -2.0348
   85SAPS    HY 8043   1.886   3.457  10.764 -1.9645 -0.5428 -0.8013
   85SAPS   O31 8044   2.013   3.543  10.613  0.3224  0.4472 -0.0369
   85SAPS   C31 8045   2.130   3.492  10.661  0.8343 -0.3305  0.1213
   85SAPS   O32 8046   2.143   3.447  10.774  0.2329  0.0897  0.4930
   85SAPS   C32 8047   2.243   3.506  10.559 -0.0312 -0.1530 -0.9926
   85SAPS   H2X 8048   2.337   3.479  10.613 -0.7919 -1.0490 -0.0555
   85SAPS   H2Y 8049   2.251   3.614  10.538 -0.0060 -0.2571 -1.5382
   85SAPS   C23 8050   2.125   4.122  10.659  0.1775  0.7846 -0.9237
   85SAPS   H3R 8051   2.210   4.055  10.682 -1.4307 -0.4979  1.7180
   85SAPS   H3S 8052   2.115   4.183  10.751 -1.4119 -2.3339  1.1455
   85SAPS   C24 8053   2.147   4.190  10.525  0.4623 -0.0878 -0.4775
   85SAPS   H4R 8054   2.138   4.122  10.438  0.4221 -0.1801 -0.4015
   85SAPS   H4S 8055   2.247   4.233  10.504 -0.0025 -0.2827 -3.4945
   85SAPS   C25 8056   2.047   4.296  10.508  0.1037 -0.0187 -0.5892
   85SAPS   H5R 8057   2.017   4.352  10.598 -0.0232 -0.4490 -0.3610
   85SAPS   C26 8058   1.956   4.308  10.406  0.2206  0.4322 -0.1071
   85SAPS   H6R 8059   1.896   4.400  10.407 -0.1112  0.2212 -0.3272
   85SAPS   C27 8060   1.938   4.226  10.282  0.0855 -0.3763  0.4261
   85SAPS   H7R 8061   2.015   4.146  10.272  1.2229  0.6029  1.0937
   85SAPS   H7S 8062   1.965   4.289  10.194  2.5629  0.1852  1.4887
   85SAPS   C28 8063   1.797   4.173  10.281  0.0637 -0.4530  0.1394
   85SAPS   H8R 8064   1.763   4.143  10.381  1.6895 -0.3176  0.7530
   85SAPS   C29 8065   1.715   4.160  10.176 -0.9519  0.0439  0.3830
   85SAPS   H9R 8066   1.610   4.128  10.190 -1.4685  0.8004 -1.4989
   85SAPS  C210 8067   1.738   4.201  10.034  0.6726 -0.1797 -0.0680
   85SAPS  H10R 8068   1.743   4.102   9.985 -0.9291  0.3259 -1.3708
   85SAPS  H10S 8069   1.832   4.258  10.018 -0.8167  2.1216 -1.1665
   85SAPS  C211 8070   1.620   4.280   9.976 -0.7513 -0.0583  0.1699
   85SAPS  H11R 8071   1.552   4.331  10.046 -0.7277  1.3492 -0.7877
   85SAPS  C212 8072   1.600   4.303   9.846 -0.6662  0.8621  0.6824
   85SAPS  H12R 8073   1.513   4.365   9.818 -0.3777  0.4380 -1.3180
   85SAPS  C213 8074   1.677   4.251   9.720  0.6273  0.4679 -0.6235
   85SAPS  H13R 8075   1.628   4.279   9.625  0.8601 -0.1272 -0.9212
   85SAPS  H13S 8076   1.673   4.141   9.711 -0.8042  0.4758 -0.4217
   85SAPS  C214 8077   1.822   4.290   9.706  0.2752  0.5078 -0.0017
   85SAPS  H14R 8078   1.846   4.368   9.781 -1.0299 -0.0863  1.0755
   85SAPS  C215 8079   1.912   4.250   9.614 -0.5059  0.8497  0.9145
   85SAPS  H15R 8080   2.015   4.289   9.613 -0.1613 -0.0246  0.8987
   85SAPS  C216 8081   1.880   4.151   9.508  0.1403 -0.6486  0.3755
   85SAPS  H16R 8082   1.772   4.129   9.499 -0.5592  1.2401  3.0311
   85SAPS  H16S 8083   1.928   4.054   9.534  0.3761 -0.3741  0.9793
   85SAPS  C217 8084   1.940   4.191   9.372 -0.3160  0.4309 -0.2884
   85SAPS  H17R 8085   1.906   4.107   9.309 -1.8614  2.7247 -2.7501
   85SAPS  H17S 8086   2.051   4.192   9.367 -0.1845 -1.9225  0.9961
   85SAPS  C218 8087   1.885   4.325   9.326 -0.0408 -0.1628  0.4133
   85SAPS  H18R 8088   1.904   4.400   9.406  1.4767  0.4663 -0.4973
   85SAPS  H18S 8089   1.776   4.314   9.312 -0.0607  0.9822 -0.4524
   85SAPS  C219 8090   1.928   4.360   9.181  0.0793  0.3813 -0.1799
   85SAPS  H19R 8091   1.903   4.272   9.119  2.6878  0.3199 -1.2799
   85SAPS  H19S 8092   2.039   4.372   9.175  0.1331  0.0534  0.1510
   85SAPS  C220 8093   1.859   4.479   9.114  0.1342 -0.4195  0.6960
   85SAPS  H20R 8094   1.758   4.490   9.160 -0.2278 -1.2255  0.1254
   85SAPS  H20S 8095   1.845   4.469   9.004 -1.5752 -2.5242  1.0335
   85SAPS  H20T 8096   1.909   4.573   9.146 -2.4184  0.8656  1.2253
   85SAPS   C33 8097   2.217   3.438  10.426 -0.3701  1.2507  0.8355
   85SAPS   H3X 8098   2.141   3.495  10.368 -2.6121 -2.4802 -0.2033
   85SAPS   H3Y 8099   2.161   3.344  10.444  0.7915 -0.1035 -2.0183
   85SAPS   C34 8100   2.343   3.415  10.346 -0.0333  0.6962 -0.2918
   85SAPS   H4X 8101   2.403   3.329  10.382  0.7559  0.1092 -2.7993
   85SAPS   H4Y 8102   2.406   3.505  10.363  2.4385 -0.9496 -0.1967
   85SAPS   C35 8103   2.313   3.397  10.198  0.1138 -0.5060 -0.4091
   85SAPS   H5X 8104   2.214   3.347  10.192  0.0974 -0.4988 -0.1785
   85SAPS   H5Y 8105   2.400   3.345  10.152  0.3255  0.4182 -1.0975
   85SAPS   C36 8106   2.304   3.533  10.125 -0.8492  0.4583  0.3369
   85SAPS   H6X 8107   2.404   3.579  10.141  0.0438 -1.6169  1.0393
   85SAPS   H6Y 8108   2.221   3.599  10.159 -0.7401  2.5107 -2.8815
   85SAPS   C37 8109   2.284   3.514   9.970 -0.0636 -0.1467  0.1597
   85SAPS   H7X 8110   2.189   3.461   9.950  0.2009 -0.8385  0.7026
   85SAPS   H7Y 8111   2.373   3.451   9.947  2.6272  2.5830  2.2863
   85SAPS   C38 8112   2.277   3.639   9.893  0.1787  0.6223 -0.2346
   85SAPS   H8X 8113   2.361   3.704   9.925 -1.2518  1.9317  1.0552
   85SAPS   H8Y 8114   2.191   3.698   9.931  0.2247 -0.5909  1.9515
   85SAPS   C39 8115   2.273   3.641   9.736 -0.5441  0.2972  0.2586
   85SAPS   H9X 8116   2.307   3.738   9.693 -1.2128  0.0819 -0.7801
   85SAPS   H9Y 8117   2.168   3.628   9.705 -0.1360 -1.8955 -0.3942
   85SAPS  C310 8118   2.358   3.524   9.683  0.7115  0.1251 -0.4119
   85SAPS  H10X 8119   2.313   3.430   9.720 -3.8926  1.4478 -2.0466
   85SAPS  H10Y 8120   2.463   3.519   9.722  1.8762 -0.7081 -3.3928
   85SAPS  C311 8121   2.365   3.511   9.531  0.6207 -0.3699  0.2846
   85SAPS  H11X 8122   2.260   3.520   9.496  0.6597 -0.8739  0.0141
   85SAPS  H11Y 8123   2.391   3.404   9.511 -0.2194 -0.3794 -0.8631
   85SAPS  C312 8124   2.473   3.598   9.469 -0.7998 -0.0595  0.1448
   85SAPS  H12X 8125   2.553   3.610   9.545 -0.9695  1.8073  0.0600
   85SAPS  H12Y 8126   2.429   3.699   9.457 -1.2813 -0.4086 -1.1704
   85SAPS  C313 8127   2.527   3.539   9.334 -0.6056 -0.0014 -0.0276
   85SAPS  H13X 8128   2.439   3.542   9.266  1.4478  1.9359 -2.8359
   85SAPS  H13Y 8129   2.553   3.431   9.345 -1.6439 -0.2391  0.2246
   85SAPS  C314 8130   2.645   3.623   9.264  0.3294  0.9668 -1.2441
   85SAPS  H14X 8131   2.734   3.600   9.327 -1.0446 -0.7372  0.1719
   85SAPS  H14Y 8132   2.624   3.732   9.260  0.0923  1.0220  0.5615
   85SAPS  C315 8133   2.670   3.573   9.121 -0.0698  0.5722 -0.4515
   85SAPS  H15X 8134   2.565   3.578   9.084 -0.1528  2.0224 -0.0691
   85SAPS  H15Y 8135   2.709   3.469   9.128  1.9144  1.2878 -0.2289
   85SAPS  C316 8136   2.761   3.655   9.043  0.4639 -0.6287 -0.2079
   85SAPS  H16X 8137   2.746   3.765   9.046  0.3770 -0.6351 -0.4199
   85SAPS  H16Y 8138   2.742   3.628   8.937 -2.1281 -0.8458  0.2503
   85SAPS  C317 8139   2.913   3.619   9.064 -0.3757  0.8565  0.1141
   85SAPS  H17X 8140   2.934   3.510   9.051 -1.5897  0.3796  1.8034
   85SAPS  H17Y 8141   2.943   3.644   9.168  2.7570  0.8359 -0.7072
   85SAPS  C318 8142   3.001   3.692   8.968 -0.5562  0.2944 -0.0085
   85SAPS  H18X 8143   3.107   3.665   8.983 -0.2134  1.3682 -0.4051
   85SAPS  H18Y 8144   3.008   3.803   8.979 -0.8074  0.2872  0.2586
   85SAPS  H18Z 8145   2.982   3.679   8.859  1.8795  2.2669 -0.7635
   86SAPS     N 8146   6.482   2.341  10.873  0.5150 -0.7355  0.2283
   86SAPS   HN1 8147   6.419   2.388  10.805 -0.5465  1.3965  2.5004
   86SAPS   HN2 8148   6.496   2.410  10.949  0.9977 -0.7216  0.1301
   86SAPS   HN3 8149   6.567   2.328  10.815 -1.3371  0.0241 -2.9180
   86SAPS   C12 8150   6.423   2.220  10.934  0.1375  0.1887 -0.6528
   86SAPS  H12A 8151   6.398   2.154  10.852 -1.1725  0.6423 -0.6462
   86SAPS   C13 8152   6.511   2.137  11.031  0.3778 -0.0600 -0.4268
   86SAPS  O13A 8153   6.622   2.185  11.068  0.3415  0.2751 -0.2557
   86SAPS  O13B 8154   6.453   2.040  11.099 -0.8398  0.0827 -0.0078
   86SAPS   C11 8155   6.291   2.264  11.011 -0.4403 -0.1200  0.1434
   86SAPS  H11A 8156   6.320   2.332  11.093  0.4684  0.4108 -0.6043
   86SAPS  H11B 8157   6.238   2.180  11.061 -2.6688  2.1284  1.8072
   86SAPS     P 8158   6.057   2.323  10.921  0.1517 -0.7968 -0.2497
   86SAPS   O13 8159   5.996   2.318  11.056 -0.8749  0.0036 -0.0777
   86SAPS   O14 8160   6.009   2.441  10.837 -0.1742  0.8534 -0.2343
   86SAPS   O12 8161   6.214   2.334  10.915  0.1299  0.8730 -0.1758
   86SAPS   O11 8162   6.032   2.191  10.840  0.6799 -0.3412  0.1765
   86SAPS    C1 8163   6.113   2.151  10.729  0.7281 -0.0849  0.5343
   86SAPS    HA 8164   6.203   2.211  10.703 -0.0347  0.7073 -0.3654
   86SAPS    HB 8165   6.155   2.050  10.748  0.6903 -0.3757 -0.8401
   86SAPS    C2 8166   6.026   2.149  10.599  0.0213  0.1199 -0.1061
   86SAPS    HS 8167   6.080   2.129  10.504 -2.1024 -1.1539 -1.1240
   86SAPS   O21 8168   5.949   2.275  10.586  0.3355 -0.5610  0.1329
   86SAPS   C21 8169   6.018   2.356  10.512  0.1163 -0.7596 -0.4465
   86SAPS   O22 8170   6.137   2.353  10.497  0.1412 -0.4383  0.5134
   86SAPS   C22 8171   5.924   2.468  10.449  0.3231 -0.4683  0.3035
   86SAPS   H2R 8172   5.861   2.426  10.367  1.0154 -0.2162 -0.3759
   86SAPS   H2S 8173   5.866   2.524  10.525 -0.4231 -1.0319  0.1526
   86SAPS    C3 8174   5.925   2.028  10.605  0.3227 -0.2492  0.5803
   86SAPS    HX 8175   5.851   2.045  10.686 -0.2962  2.2690 -0.4223
   86SAPS    HY 8176   5.985   1.938  10.630  0.9793 -0.0576 -0.2628
   86SAPS   O31 8177   5.855   2.000  10.486  0.3346  0.1715 -0.3500
   86SAPS   C31 8178   5.722   2.041  10.480  0.7753 -0.3584 -0.5319
   86SAPS   O32 8179   5.651   2.054  10.579  1.0069 -0.2082  0.5142
   86SAPS   C32 8180   5.674   2.051  10.337 -0.1373  0.2483  0.0451
   86SAPS   H2X 8181   5.611   1.965  10.308  0.7214  0.0306 -1.2765
   86SAPS   H2Y 8182   5.763   2.060  10.270  1.0665 -0.9414  1.4252
   86SAPS   C23 8183   6.016   2.560  10.367  0.3487  0.2707  0.0566
   86SAPS   H3R 8184   6.085   2.504  10.301 -0.1411  1.7963 -1.8495
   86SAPS   H3S 8185   6.076   2.622  10.436 -0.1734  1.5148 -0.5572
   86SAPS   C24 8186   5.923   2.644  10.278  0.2619  0.2670 -0.3513
   86SAPS   H4R 8187   5.859   2.703  10.347  0.4608 -1.6490  1.5620
   86SAPS   H4S 8188   5.859   2.577  10.217 -0.5541  0.1818  0.5691
   86SAPS   C25 8189   6.025   2.710  10.186  0.5100  1.0631 -0.0700
   86SAPS   H5R 8190   6.111   2.752  10.240 -0.2222 -1.2242  3.1607
   86SAPS   C26 8191   6.005   2.712  10.049  0.1651 -0.4013 -0.0651
   86SAPS   H6R 8192   6.080   2.771   9.995 -1.6396  1.3240 -0.8367
   86SAPS   C27 8193   5.882   2.660   9.976  0.1551 -0.7336  0.5943
   86SAPS   H7R 8194   5.788   2.663  10.034 -1.2789  1.0499 -1.6693
   86SAPS   H7S 8195   5.896   2.557   9.936 -0.6191  0.3364 -2.6340
   86SAPS   C28 8196   5.855   2.751   9.854  0.2716 -0.0726 -0.0776
   86SAPS   H8R 8197   5.810   2.847   9.883  1.7174  0.0462  2.0823
   86SAPS   C29 8198   5.875   2.720   9.724  0.1412  0.0292  0.7538
   86SAPS   H9R 8199   5.864   2.798   9.647  1.4670 -1.3213 -0.9008
   86SAPS  C210 8200   5.933   2.594   9.664 -0.0746 -0.2684 -0.1806
   86SAPS  H10R 8201   5.941   2.508   9.734 -2.6651  0.5255  1.2298
   86SAPS  H10S 8202   6.037   2.631   9.651  0.6331 -0.4027  3.7892
   86SAPS  C211 8203   5.847   2.526   9.563 -0.0791  0.0595  0.2625
   86SAPS  H11R 8204   5.762   2.462   9.590 -0.1223  0.4106  0.9684
   86SAPS  C212 8205   5.889   2.535   9.430 -0.3442 -0.0424  0.0546
   86SAPS  H12R 8206   5.831   2.479   9.355 -0.9574  0.0209  0.4691
   86SAPS  C213 8207   6.001   2.615   9.367 -0.0808  0.0370 -0.2625
   86SAPS  H13R 8208   6.099   2.563   9.365 -1.0586 -2.2020  2.3673
   86SAPS  H13S 8209   6.035   2.695   9.436  3.5676  0.4670 -2.3034
   86SAPS  C214 8210   5.970   2.682   9.238 -0.5123 -0.3953 -0.4479
   86SAPS  H14R 8211   5.872   2.733   9.237 -0.0347  0.7030  1.7915
   86SAPS  C215 8212   6.049   2.700   9.132  0.4979 -0.1233  0.2105
   86SAPS  H15R 8213   6.005   2.756   9.048  0.4487 -1.7343 -0.8778
   86SAPS  C216 8214   6.184   2.639   9.109 -0.6404 -0.8899 -0.2554
   86SAPS  H16R 8215   6.217   2.554   9.174  0.2390 -0.4786 -0.1446
   86SAPS  H16S 8216   6.261   2.719   9.122 -1.9665  0.5626 -1.0361
   86SAPS  C217 8217   6.196   2.588   8.955  0.7719  0.4989  0.2734
   86SAPS  H17R 8218   6.295   2.543   8.929 -0.0504 -0.8883 -0.5725
   86SAPS  H17S 8219   6.176   2.665   8.878  1.8674 -1.2688 -1.8797
   86SAPS  C218 8220   6.086   2.483   8.929 -1.3238  0.0309  0.4341
   86SAPS  H18R 8221   5.989   2.515   8.974 -0.0995  0.3756  3.0155
   86SAPS  H18S 8222   6.130   2.397   8.984  2.6486  1.5244 -0.0730
   86SAPS  C219 8223   6.061   2.459   8.774 -0.1534 -0.2051  0.8881
   86SAPS  H19R 8224   6.147   2.417   8.717 -1.3724 -2.9710  0.9159
   86SAPS  H19S 8225   6.042   2.564   8.746  0.4200 -0.8327 -2.2106
   86SAPS  C220 8226   5.925   2.394   8.743  0.1211  0.0316  0.0471
   86SAPS  H20R 8227   5.904   2.380   8.634 -2.2347 -0.8243  0.5475
   86SAPS  H20S 8228   5.848   2.464   8.780 -0.8065 -1.9499  2.0906
   86SAPS  H20T 8229   5.910   2.300   8.800 -2.0084 -0.0737 -0.6159
   86SAPS   C33 8230   5.599   2.176  10.314 -0.0066 -0.2837  0.1462
   86SAPS   H3X 8231   5.667   2.265  10.311 -2.1872  1.4392 -1.0391
   86SAPS   H3Y 8232   5.530   2.179  10.401  1.7898 -4.3672  1.9554
   86SAPS   C34 8233   5.516   2.176  10.185 -0.0113  0.5270 -0.3554
   86SAPS   H4X 8234   5.461   2.271  10.199  0.3243  0.9220 -1.5603
   86SAPS   H4Y 8235   5.446   2.089  10.188  0.1415  0.3813 -0.8747
   86SAPS   C35 8236   5.596   2.165  10.061 -0.0254  0.3535  0.8892
   86SAPS   H5X 8237   5.661   2.076  10.065  1.8877  1.6677  0.3098
   86SAPS   H5Y 8238   5.669   2.249  10.055  1.1244 -0.7315 -1.9431
   86SAPS   C36 8239   5.502   2.143   9.943 -0.6355 -0.0716  0.0188
   86SAPS   H6X 8240   5.408   2.201   9.951 -0.4155  0.2012  0.7074
   86SAPS   H6Y 8241   5.469   2.037   9.941  1.4554 -0.7768 -1.8881
   86SAPS   C37 8242   5.561   2.183   9.807  0.3392 -0.2295  0.1244
   86SAPS   H7X 8243   5.665   2.145   9.798  0.2937 -0.3975  0.2888
   86SAPS   H7Y 8244   5.578   2.292   9.812  1.2795 -0.4112  2.0722
   86SAPS   C38 8245   5.478   2.145   9.679  0.4765  0.0731  0.9445
   86SAPS   H8X 8246   5.389   2.211   9.669 -1.1056 -2.3269 -2.2932
   86SAPS   H8Y 8247   5.427   2.047   9.679 -0.7611  0.6861  0.4823
   86SAPS   C39 8248   5.568   2.155   9.551  0.0307 -0.1935 -0.0091
   86SAPS   H9X 8249   5.645   2.075   9.552  1.6120  1.2417 -0.9984
   86SAPS   H9Y 8250   5.618   2.254   9.557 -0.0990 -0.0557 -1.0330
   86SAPS  C310 8251   5.488   2.141   9.420  0.5069  0.2949 -0.1479
   86SAPS  H10X 8252   5.424   2.231   9.407  1.6907  1.3792  1.1908
   86SAPS  H10Y 8253   5.431   2.048   9.442  0.1895  1.0488  2.5829
   86SAPS  C311 8254   5.582   2.137   9.298  0.1260  0.3092 -0.5367
   86SAPS  H11X 8255   5.643   2.044   9.307 -2.1305 -1.1118  0.9545
   86SAPS  H11Y 8256   5.652   2.222   9.284  1.6123 -1.0795 -1.9983
   86SAPS  C312 8257   5.502   2.128   9.166 -0.3226 -0.5056  0.0335
   86SAPS  H12X 8258   5.415   2.060   9.179 -0.9723  0.4742  1.0070
   86SAPS  H12Y 8259   5.574   2.092   9.090  0.9779 -0.7614  1.3214
   86SAPS  C313 8260   5.457   2.266   9.114 -0.2925 -0.4605  0.2959
   86SAPS  H13X 8261   5.395   2.307   9.195 -2.1889  1.1513 -1.8517
   86SAPS  H13Y 8262   5.388   2.247   9.029  1.0645 -1.5734 -0.6271
   86SAPS  C314 8263   5.572   2.354   9.073 -1.1880 -0.0128 -0.1011
   86SAPS  H14X 8264   5.653   2.298   9.021 -1.0287 -0.2882  0.4352
   86SAPS  H14Y 8265   5.620   2.400   9.162  0.5020  0.3440 -1.1394
   86SAPS  C315 8266   5.544   2.467   8.979  0.1348  0.0010  0.2453
   86SAPS  H15X 8267   5.455   2.526   9.010  0.5069  1.7806 -1.8670
   86SAPS  H15Y 8268   5.525   2.432   8.876  1.9602  0.2190 -0.2014
   86SAPS  C316 8269   5.658   2.569   8.990  0.5106 -0.2440  0.0921
   86SAPS  H16X 8270   5.759   2.525   8.981  0.0606 -2.0430  2.6185
   86SAPS  H16Y 8271   5.652   2.615   9.091 -1.0498  2.5719 -1.1547
   86SAPS  C317 8272   5.635   2.695   8.902  0.0655 -0.0627 -0.2984
   86SAPS  H17X 8273   5.554   2.757   8.946  1.1550  0.9625  0.3191
   86SAPS  H17Y 8274   5.610   2.673   8.796  0.5850  1.1331 -0.6824
   86SAPS  C318 8275   5.751   2.790   8.887 -0.9474  0.3317 -0.0668
   86SAPS  H18X 8276   5.840   2.732   8.856 -0.4828  1.5722 -1.1445
   86SAPS  H18Y 8277   5.786   2.818   8.989 -0.1218  0.3783 -0.3542
   86SAPS  H18Z 8278   5.722   2.877   8.823 -3.2644 -0.6754 -0.4885
   87SAPS     N 8279   6.597   0.506  11.110 -0.1355 -0.1894  0.3746
   87SAPS   HN1 8280   6.560   0.601  11.090  1.3103  1.4656  4.6073
   87SAPS   HN2 8281   6.548   0.430  11.057  2.4368 -1.4539 -0.3344
   87SAPS   HN3 8282   6.577   0.480  11.209 -0.2279 -0.8099  0.2032
   87SAPS   C12 8283   6.740   0.488  11.081  0.8752  0.5051  0.1525
   87SAPS  H12A 8284   6.786   0.575  11.125  1.1239  2.8300 -4.1297
   87SAPS   C13 8285   6.805   0.360  11.126 -0.6957 -0.7224  0.1195
   87SAPS  O13A 8286   6.733   0.273  11.181  0.1246 -0.3825  0.1196
   87SAPS  O13B 8287   6.931   0.341  11.116 -0.2123 -0.7369  0.0792
   87SAPS   C11 8288   6.761   0.497  10.925  0.6616  0.0908  0.4495
   87SAPS  H11A 8289   6.714   0.411  10.873 -0.5503  1.4838 -0.8979
   87SAPS  H11B 8290   6.870   0.487  10.907  0.7128  0.5943  0.4704
   87SAPS     P 8291   6.791   0.753  10.877 -0.0977 -0.5408  0.3993
   87SAPS   O13 8292   6.716   0.849  10.791  0.0475  0.0641  0.0624
   87SAPS   O14 8293   6.804   0.790  11.025  0.0278  0.4677  0.2630
   87SAPS   O12 8294   6.717   0.620  10.867 -0.0336  0.3139 -0.3483
   87SAPS   O11 8295   6.937   0.729  10.827  0.3100  0.1378  0.0262
   87SAPS    C1 8296   6.959   0.666  10.696 -0.7133  0.0253  0.5670
   87SAPS    HA 8297   6.977   0.557  10.707 -0.3220 -0.3445 -2.6914
   87SAPS    HB 8298   6.875   0.681  10.625  1.9847  0.5549 -2.7606
   87SAPS    C2 8299   7.077   0.736  10.625  0.5397 -0.6357 -0.1452
   87SAPS    HS 8300   7.048   0.842  10.611 -0.5846 -1.1965 -2.4334
   87SAPS   O21 8301   7.076   0.659  10.504  0.1169 -0.2900 -0.1124
   87SAPS   C21 8302   7.067   0.735  10.390 -0.0310  0.2027  0.2556
   87SAPS   O22 8303   7.072   0.856  10.384 -0.0202  0.1398 -0.0516
   87SAPS   C22 8304   7.066   0.637  10.265  0.3526  0.1596 -0.9681
   87SAPS   H2R 8305   7.151   0.566  10.266  0.7118  0.5857 -0.1993
   87SAPS   H2S 8306   6.968   0.587  10.274  0.3460  0.1986 -0.8249
   87SAPS    C3 8307   7.214   0.723  10.691 -0.2605  0.7420  0.2483
   87SAPS    HX 8308   7.236   0.615  10.684  0.1683  0.7381  1.4293
   87SAPS    HY 8309   7.222   0.758  10.796  2.1524 -0.5024  0.5400
   87SAPS   O31 8310   7.319   0.794  10.615  0.1095 -0.1476  0.3643
   87SAPS   C31 8311   7.318   0.928  10.622 -0.1622  0.4206 -0.7351
   87SAPS   O32 8312   7.245   0.992  10.696 -0.2625  0.1314  0.2903
   87SAPS   C32 8313   7.428   0.988  10.524  0.1200  0.0603 -0.2668
   87SAPS   H2X 8314   7.505   0.910  10.510  1.7087  1.0836  2.1159
   87SAPS   H2Y 8315   7.481   1.061  10.589  0.3085 -0.7934  0.5484
   87SAPS   C23 8316   7.061   0.700  10.123  0.4495 -0.4265  0.0973
   87SAPS   H3R 8317   6.999   0.792  10.129  0.2279 -0.4595 -1.3953
   87SAPS   H3S 8318   7.032   0.628  10.043  1.6527  0.0151 -0.7557
   87SAPS   C24 8319   7.201   0.747  10.074 -0.0152 -0.5396 -0.7920
   87SAPS   H4R 8320   7.253   0.794  10.159 -1.6019  1.0472 -0.6570
   87SAPS   H4S 8321   7.200   0.829  10.000  2.3712  0.8066  0.5654
   87SAPS   C25 8322   7.286   0.635  10.031  0.3138  0.6956  0.3151
   87SAPS   H5R 8323   7.313   0.568  10.114 -0.5161  0.6053  0.5222
   87SAPS   C26 8324   7.342   0.617   9.907 -0.2882  0.4475  0.3337
   87SAPS   H6R 8325   7.398   0.524   9.890 -2.2742 -0.5338 -1.3509
   87SAPS   C27 8326   7.329   0.704   9.782  0.3761  0.5865  0.2165
   87SAPS   H7R 8327   7.238   0.766   9.795 -0.8333 -1.3408  1.4876
   87SAPS   H7S 8328   7.300   0.633   9.701  0.1691  0.2020  0.6239
   87SAPS   C28 8329   7.444   0.795   9.754 -0.5225  0.1297  0.4250
   87SAPS   H8R 8330   7.501   0.842   9.835 -0.8103  0.1273  0.6271
   87SAPS   C29 8331   7.494   0.798   9.629  0.3107 -0.4304  0.6504
   87SAPS   H9R 8332   7.578   0.864   9.603  0.0594 -1.3147 -3.1042
   87SAPS  C210 8333   7.462   0.728   9.497 -0.1644  0.0829  0.1760
   87SAPS  H10R 8334   7.437   0.622   9.518  0.4055  0.1271  1.1350
   87SAPS  H10S 8335   7.559   0.728   9.442 -0.2001  1.0611  0.1053
   87SAPS  C211 8336   7.349   0.783   9.414 -0.0438  0.2689  0.2120
   87SAPS  H11R 8337   7.250   0.796   9.459  0.5460  2.0934  1.0678
   87SAPS  C212 8338   7.358   0.841   9.293 -0.0973 -0.2734 -0.1885
   87SAPS  H12R 8339   7.270   0.883   9.243 -0.5069  2.4854  2.5256
   87SAPS  C213 8340   7.488   0.855   9.222 -0.3327  0.5878  0.2921
   87SAPS  H13R 8341   7.574   0.840   9.291 -0.8213 -0.0084  0.7848
   87SAPS  H13S 8342   7.499   0.961   9.191  1.7989 -0.1130 -1.6400
   87SAPS  C214 8343   7.503   0.752   9.105  0.5209 -0.3269 -0.3890
   87SAPS  H14R 8344   7.450   0.658   9.128 -0.7630  0.9001  2.0865
   87SAPS  C215 8345   7.573   0.772   8.997 -0.8689  0.0956  0.1903
   87SAPS  H15R 8346   7.583   0.685   8.931  0.5724  0.5050 -0.1574
   87SAPS  C216 8347   7.653   0.895   8.953  0.7305 -0.3567 -0.9585
   87SAPS  H16R 8348   7.747   0.912   9.009  0.9214  1.4842 -1.7790
   87SAPS  H16S 8349   7.590   0.985   8.967 -0.5772 -1.2973 -0.6899
   87SAPS  C217 8350   7.689   0.897   8.804  0.3714  0.1933  0.3766
   87SAPS  H17R 8351   7.713   0.999   8.767 -0.3117  0.4764  0.6880
   87SAPS  H17S 8352   7.595   0.877   8.748 -0.3947  0.3451  1.5765
   87SAPS  C218 8353   7.809   0.811   8.772 -0.2300  0.0409  0.3740
   87SAPS  H18R 8354   7.813   0.724   8.841 -1.0969 -0.5678 -0.3310
   87SAPS  H18S 8355   7.900   0.873   8.787 -0.1764 -0.2319  1.2284
   87SAPS  C219 8356   7.797   0.767   8.631 -0.2942 -0.2618  0.3659
   87SAPS  H19R 8357   7.803   0.866   8.581 -1.6502 -0.4564 -0.2184
   87SAPS  H19S 8358   7.696   0.724   8.614 -0.2707 -0.0416 -0.3586
   87SAPS  C220 8359   7.907   0.676   8.580  0.2271  0.3123  0.0847
   87SAPS  H20R 8360   7.998   0.735   8.605  0.9749 -0.4859 -0.7302
   87SAPS  H20S 8361   7.902   0.660   8.471  1.9999 -1.7994  0.2466
   87SAPS  H20T 8362   7.913   0.583   8.641  1.0745  1.7848  2.4067
   87SAPS   C33 8363   7.368   1.025  10.384 -0.0909  0.0334 -0.2806
   87SAPS   H3X 8364   7.278   1.082  10.414 -0.2487 -0.5435  0.3617
   87SAPS   H3Y 8365   7.323   0.931  10.344  0.4464 -0.7785  0.9676
   87SAPS   C34 8366   7.463   1.115  10.296  1.3105 -0.1143  0.1876
   87SAPS   H4X 8367   7.534   1.041  10.253 -0.2601 -1.3739 -0.3159
   87SAPS   H4Y 8368   7.520   1.194  10.349 -0.0427  1.4616 -0.6159
   87SAPS   C35 8369   7.394   1.192  10.182  0.3033 -0.6179  0.1190
   87SAPS   H5X 8370   7.465   1.244  10.114  0.7679 -0.8789  0.3962
   87SAPS   H5Y 8371   7.341   1.278  10.229  0.2514  0.6663 -2.1789
   87SAPS   C36 8372   7.301   1.108  10.100  0.3354 -0.0100 -0.1269
   87SAPS   H6X 8373   7.227   1.062  10.170 -1.7021  1.5441 -1.1429
   87SAPS   H6Y 8374   7.352   1.022  10.052 -0.6757 -0.6736 -0.0592
   87SAPS   C37 8375   7.223   1.186   9.995  0.3918 -0.2556 -0.0125
   87SAPS   H7X 8376   7.292   1.261   9.951  0.8998  0.3195  1.6691
   87SAPS   H7Y 8377   7.139   1.234  10.049 -0.0165  0.0867 -0.9456
   87SAPS   C38 8378   7.159   1.092   9.885 -0.2339  0.1193  0.5414
   87SAPS   H8X 8379   7.106   1.009   9.937 -0.0475  0.1428  0.7687
   87SAPS   H8Y 8380   7.239   1.039   9.830 -0.1106  0.8811 -0.0231
   87SAPS   C39 8381   7.052   1.164   9.800  0.0157 -0.3394 -0.1668
   87SAPS   H9X 8382   7.103   1.222   9.720  0.3291  2.7611  2.0735
   87SAPS   H9Y 8383   7.002   1.243   9.860  1.6643  1.0641 -0.5571
   87SAPS  C310 8384   6.942   1.067   9.745 -0.2102 -0.0506 -0.3600
   87SAPS  H10X 8385   6.858   1.121   9.697 -0.0786  0.1453 -0.3732
   87SAPS  H10Y 8386   6.897   1.009   9.828 -0.3657 -0.1281 -0.4982
   87SAPS  C311 8387   7.001   0.968   9.649 -0.1240  0.0083 -0.3133
   87SAPS  H11X 8388   7.041   0.880   9.703  0.1129  0.1896 -0.1898
   87SAPS  H11Y 8389   7.087   1.008   9.591  0.5589  0.1398  0.7589
   87SAPS  C312 8390   6.887   0.919   9.557 -0.7595 -0.7791  0.5257
   87SAPS  H12X 8391   6.788   0.937   9.604 -0.7283  0.9795 -0.0041
   87SAPS  H12Y 8392   6.892   0.812   9.528 -2.1994 -0.8286  0.3769
   87SAPS  C313 8393   6.883   1.007   9.426 -0.4696  0.2129  0.1369
   87SAPS  H13X 8394   6.958   1.089   9.439 -2.4358  2.0919  0.1637
   87SAPS  H13Y 8395   6.780   1.042   9.404 -0.2876 -0.6891 -2.5340
   87SAPS  C314 8396   6.920   0.922   9.301  0.1797  0.4393  0.0867
   87SAPS  H14X 8397   6.841   0.850   9.271 -0.3707  0.5282  1.2699
   87SAPS  H14Y 8398   7.013   0.872   9.334  1.2564  1.3573 -1.4014
   87SAPS  C315 8399   6.955   1.007   9.183  0.3738 -0.3301  1.2630
   87SAPS  H15X 8400   6.990   0.950   9.094 -0.5709  0.7451  0.1752
   87SAPS  H15Y 8401   7.042   1.073   9.204 -0.7622  1.6526  0.0223
   87SAPS  C316 8402   6.839   1.095   9.131 -0.5326  0.1254  0.2330
   87SAPS  H16X 8403   6.797   1.155   9.214 -1.8183 -0.3994 -0.0109
   87SAPS  H16Y 8404   6.761   1.026   9.091  1.7046 -0.4591 -3.6715
   87SAPS  C317 8405   6.889   1.179   9.018  0.1704 -0.8826  0.1932
   87SAPS  H17X 8406   6.947   1.102   8.961  1.6988 -0.6613  1.3936
   87SAPS  H17Y 8407   6.959   1.262   9.042  1.3252 -1.2854 -1.5762
   87SAPS  C318 8408   6.783   1.229   8.918  0.0128 -0.6098  0.0347
   87SAPS  H18X 8409   6.706   1.271   8.985  1.7850 -1.2522  2.6190
   87SAPS  H18Y 8410   6.731   1.143   8.871 -0.6474 -0.5832  0.6992
   87SAPS  H18Z 8411   6.838   1.288   8.841  0.2304  2.0779  2.1189
   88SAPS     N 8412   3.954   1.305  11.226  0.1023  0.7107 -0.4205
   88SAPS   HN1 8413   3.949   1.366  11.143 -1.7539  0.4168 -0.5620
   88SAPS   HN2 8414   4.028   1.336  11.292 -0.3003  1.4708 -0.3098
   88SAPS   HN3 8415   3.968   1.206  11.198 -0.8035  0.5679 -0.4046
   88SAPS   C12 8416   3.828   1.302  11.302  0.2796 -0.4176 -0.1776
   88SAPS  H12A 8417   3.818   1.204  11.344 -2.1868 -0.7574 -1.3968
   88SAPS   C13 8418   3.811   1.414  11.413  0.0191 -0.7165  0.0300
   88SAPS  O13A 8419   3.900   1.501  11.414 -0.1452  0.2803  0.2593
   88SAPS  O13B 8420   3.732   1.412  11.509 -0.1035  0.2328  0.2733
   88SAPS   C11 8421   3.714   1.325  11.192 -0.0152 -0.6919  0.0808
   88SAPS  H11A 8422   3.712   1.432  11.163 -2.2391 -0.3204  1.3976
   88SAPS  H11B 8423   3.615   1.305  11.237 -0.1377  0.6920  0.4644
   88SAPS     P 8424   3.755   1.291  10.925 -0.0338 -0.1299 -0.5416
   88SAPS   O13 8425   3.865   1.398  10.930 -0.1612  0.7004 -0.8966
   88SAPS   O14 8426   3.770   1.185  10.826 -0.1508 -0.3619 -0.1997
   88SAPS   O12 8427   3.730   1.241  11.073 -0.0409 -0.2269 -0.5681
   88SAPS   O11 8428   3.617   1.357  10.891  0.4318  0.2426 -0.5629
   88SAPS    C1 8429   3.598   1.484  10.835  0.3316  0.5566 -0.1850
   88SAPS    HA 8430   3.557   1.556  10.909 -3.2671  2.2145 -3.4056
   88SAPS    HB 8431   3.693   1.523  10.790  0.3153  0.8044 -0.0068
   88SAPS    C2 8432   3.489   1.479  10.731  0.0261 -0.0699  0.5303
   88SAPS    HS 8433   3.404   1.420  10.771  0.5173  1.1481  3.5849
   88SAPS   O21 8434   3.542   1.442  10.600  0.3262 -0.0056 -0.0966
   88SAPS   C21 8435   3.492   1.332  10.550  0.1409  0.0024  0.2003
   88SAPS   O22 8436   3.403   1.267  10.596 -0.6094  0.2864 -0.6626
   88SAPS   C22 8437   3.574   1.291  10.427 -0.3558  0.6725  0.0005
   88SAPS   H2R 8438   3.648   1.374  10.422 -0.2165  0.4566 -2.1074
   88SAPS   H2S 8439   3.617   1.191  10.449 -4.0738 -0.9484  0.6077
   88SAPS    C3 8440   3.436   1.623  10.713  0.5641 -0.2534  0.4568
   88SAPS    HX 8441   3.507   1.690  10.660 -0.6158  0.9120  0.2978
   88SAPS    HY 8442   3.430   1.673  10.813  1.3084  1.4607 -0.3121
   88SAPS   O31 8443   3.313   1.635  10.638  0.3486 -0.1562 -0.3708
   88SAPS   C31 8444   3.196   1.603  10.693 -0.2935 -0.0563  1.0081
   88SAPS   O32 8445   3.174   1.580  10.805  0.3479  0.1955 -0.2027
   88SAPS   C32 8446   3.081   1.630  10.596 -0.3117  0.0334  0.1679
   88SAPS   H2X 8447   3.073   1.741  10.592 -0.7536  0.0280  0.7342
   88SAPS   H2Y 8448   2.982   1.604  10.640  0.2158  0.1266  1.4598
   88SAPS   C23 8449   3.494   1.297  10.301  0.0209 -0.3225 -0.3101
   88SAPS   H3R 8450   3.460   1.402  10.292  2.5900  0.7690  1.5766
   88SAPS   H3S 8451   3.405   1.230  10.301 -0.5305  0.4024 -0.0045
   88SAPS   C24 8452   3.573   1.257  10.175 -0.3591  0.5232  0.1699
   88SAPS   H4R 8453   3.499   1.227  10.097  0.1962 -1.4315  0.3444
   88SAPS   H4S 8454   3.623   1.162  10.202  1.6661  1.6715  0.6452
   88SAPS   C25 8455   3.673   1.364  10.138  0.4052 -0.1864 -0.3408
   88SAPS   H5R 8456   3.747   1.386  10.216  1.7885  1.0043 -1.9266
   88SAPS   C26 8457   3.684   1.428  10.016 -0.3384  0.6419  0.1645
   88SAPS   H6R 8458   3.753   1.514  10.019  1.2505 -0.3307 -3.5625
   88SAPS   C27 8459   3.601   1.402   9.893 -0.1864 -0.6792  0.7061
   88SAPS   H7R 8460   3.493   1.383   9.906 -0.0331 -1.7932  0.4560
   88SAPS   H7S 8461   3.642   1.313   9.841  3.1987 -0.0198  1.9763
   88SAPS   C28 8462   3.613   1.514   9.794 -0.0032  0.1181 -0.1511
   88SAPS   H8R 8463   3.636   1.614   9.834  0.8932  1.1991 -3.0970
   88SAPS   C29 8464   3.602   1.505   9.660 -0.2221  0.3515  0.9431
   88SAPS   H9R 8465   3.628   1.588   9.593  0.9123 -0.7748 -0.0695
   88SAPS  C210 8466   3.577   1.376   9.580  0.5607 -0.0315  0.2816
   88SAPS  H10R 8467   3.556   1.285   9.641  0.7943 -0.4802 -0.2888
   88SAPS  H10S 8468   3.668   1.345   9.524 -0.4304  1.0732 -2.0701
   88SAPS  C211 8469   3.471   1.399   9.475  0.3973 -0.3871  0.5616
   88SAPS  H11R 8470   3.369   1.408   9.515  0.4634  1.7249  0.3558
   88SAPS  C212 8471   3.485   1.416   9.340 -0.0640  0.2145  0.1939
   88SAPS  H12R 8472   3.390   1.425   9.286 -1.4573 -3.5014  1.6238
   88SAPS  C213 8473   3.614   1.417   9.255 -0.3533  0.1630 -0.1430
   88SAPS  H13R 8474   3.606   1.398   9.146  0.3102  0.9956 -0.3457
   88SAPS  H13S 8475   3.669   1.332   9.301 -0.8830  0.0760  0.3326
   88SAPS  C214 8476   3.704   1.533   9.272 -0.0744 -0.0002 -0.8349
   88SAPS  H14R 8477   3.681   1.597   9.359  1.7636  0.1332 -0.4091
   88SAPS  C215 8478   3.815   1.567   9.206 -0.3357 -0.9536 -1.2027
   88SAPS  H15R 8479   3.872   1.654   9.241 -1.7761 -0.2106 -0.6316
   88SAPS  C216 8480   3.884   1.498   9.088 -0.0126 -0.2456  0.1162
   88SAPS  H16R 8481   3.858   1.390   9.085  0.7343 -0.4459  0.5997
   88SAPS  H16S 8482   3.995   1.508   9.091  0.0557 -1.0586  1.0950
   88SAPS  C217 8483   3.819   1.553   8.953  0.0111  0.6403  0.1686
   88SAPS  H17R 8484   3.709   1.547   8.948  0.0466  0.8239 -1.5218
   88SAPS  H17S 8485   3.857   1.477   8.881  3.5317  0.7800  1.6652
   88SAPS  C218 8486   3.866   1.693   8.918  0.0736 -0.6838 -0.1603
   88SAPS  H18R 8487   3.968   1.699   8.960  0.3903 -1.0954 -0.8498
   88SAPS  H18S 8488   3.799   1.761   8.974  1.6297 -0.4683  1.5076
   88SAPS  C219 8489   3.866   1.730   8.770 -0.1041  0.3790 -0.1879
   88SAPS  H19R 8490   3.870   1.841   8.758  2.0318  0.2154 -1.5990
   88SAPS  H19S 8491   3.775   1.685   8.723  1.0514 -0.7557 -1.4269
   88SAPS  C220 8492   3.975   1.674   8.687 -1.6477 -0.3688 -0.0334
   88SAPS  H20R 8493   3.990   1.564   8.696  3.1630  0.0128 -0.7611
   88SAPS  H20S 8494   4.078   1.707   8.716 -1.6250  0.3467 -0.8870
   88SAPS  H20T 8495   3.949   1.692   8.580 -0.2888 -1.6992 -0.6273
   88SAPS   C33 8496   3.103   1.554  10.460 -0.0621 -0.0396 -0.2737
   88SAPS   H3X 8497   3.074   1.448  10.479  2.1081 -0.3401  1.6985
   88SAPS   H3Y 8498   3.210   1.556  10.432 -0.9478  2.7584 -4.2262
   88SAPS   C34 8499   3.009   1.608  10.352 -0.3287  0.1400  0.0793
   88SAPS   H4X 8500   3.025   1.718  10.355  3.5469 -0.2735 -0.3955
   88SAPS   H4Y 8501   2.902   1.588  10.374 -0.6051  0.4669 -0.9015
   88SAPS   C35 8502   3.050   1.561  10.214 -0.9384  0.3991 -0.4929
   88SAPS   H5X 8503   3.052   1.450  10.212  0.0815  0.3906  0.2282
   88SAPS   H5Y 8504   3.148   1.602  10.183 -0.9054  1.2997  0.7124
   88SAPS   C36 8505   2.958   1.621  10.101  0.3098  0.2557  0.1617
   88SAPS   H6X 8506   2.931   1.726  10.127 -1.0790 -0.3589  1.3183
   88SAPS   H6Y 8507   2.863   1.565  10.089  0.0321  0.5707  0.8124
   88SAPS   C37 8508   3.019   1.629   9.962  0.4408  0.3729  0.0862
   88SAPS   H7X 8509   3.041   1.524   9.931 -1.7087  0.2482 -1.2601
   88SAPS   H7Y 8510   3.110   1.693   9.962 -0.0244  1.0689  1.2466
   88SAPS   C38 8511   2.923   1.691   9.859 -0.0960  0.1229  0.5683
   88SAPS   H8X 8512   2.850   1.764   9.900 -0.4902 -0.5326  1.0556
   88SAPS   H8Y 8513   2.858   1.609   9.821 -1.0588  2.2025 -2.7574
   88SAPS   C39 8514   2.980   1.763   9.732 -0.0443  0.4186  0.3871
   88SAPS   H9X 8515   3.028   1.857   9.766  1.0397 -0.2887  0.8952
   88SAPS   H9Y 8516   2.899   1.802   9.667 -1.2320 -0.6966  1.1360
   88SAPS  C310 8517   3.061   1.674   9.639 -0.1384 -0.1149  0.7265
   88SAPS  H10X 8518   3.004   1.581   9.618  0.7725 -0.2213 -1.4684
   88SAPS  H10Y 8519   3.157   1.643   9.686 -1.4080 -0.6367  3.1438
   88SAPS  C311 8520   3.070   1.752   9.503  0.5160 -0.5550  0.0044
   88SAPS  H11X 8521   3.143   1.835   9.515 -1.3087  1.2387 -0.5945
   88SAPS  H11Y 8522   2.971   1.791   9.469  1.1124 -0.5216 -1.8027
   88SAPS  C312 8523   3.119   1.656   9.397  0.6667  0.1880  0.3855
   88SAPS  H12X 8524   3.047   1.571   9.391 -0.3339  1.0556 -0.2525
   88SAPS  H12Y 8525   3.213   1.609   9.434  1.3654  0.3771 -1.0588
   88SAPS  C313 8526   3.142   1.722   9.264  0.9082  0.1235  0.2872
   88SAPS  H13X 8527   3.194   1.819   9.277  0.4943  0.3157  0.4950
   88SAPS  H13Y 8528   3.043   1.740   9.216  1.6171  0.9574 -0.9396
   88SAPS  C314 8529   3.229   1.639   9.175 -0.3110 -0.1854 -0.6312
   88SAPS  H14X 8530   3.203   1.531   9.180 -1.4921  0.1411  1.9814
   88SAPS  H14Y 8531   3.335   1.647   9.207  0.3984 -2.9396 -1.9685
   88SAPS  C315 8532   3.211   1.673   9.021  0.1993  0.3235 -0.5293
   88SAPS  H15X 8533   3.233   1.780   8.997 -2.3656  0.7556 -1.2262
   88SAPS  H15Y 8534   3.105   1.668   8.989  0.0436  3.2587 -0.7968
   88SAPS  C316 8535   3.304   1.590   8.921  0.6131 -0.7170  0.8611
   88SAPS  H16X 8536   3.247   1.506   8.875 -1.0559  1.1045 -0.5915
   88SAPS  H16Y 8537   3.388   1.548   8.979  1.1566 -1.4118 -0.3820
   88SAPS  C317 8538   3.358   1.688   8.805  0.3369  0.4666 -0.1396
   88SAPS  H17X 8539   3.395   1.782   8.851  0.6240  0.2045  0.1745
   88SAPS  H17Y 8540   3.273   1.703   8.734 -1.1717 -3.2436  0.6252
   88SAPS  C318 8541   3.482   1.630   8.726 -0.1109 -0.4304 -0.4845
   88SAPS  H18X 8542   3.444   1.534   8.684  3.1802 -2.3741  0.6078
   88SAPS  H18Y 8543   3.567   1.605   8.792  1.3048  0.3037 -1.9575
   88SAPS  H18Z 8544   3.513   1.692   8.639  1.2369 -0.5358 -0.0928
   89SAPS     N 8545   6.361   1.813  11.064  0.4023  0.6761  0.2100
   89SAPS   HN1 8546   6.276   1.854  11.108  1.3550  0.6143  2.2118
   89SAPS   HN2 8547   6.419   1.777  11.143  0.4626  1.3525  0.4871
   89SAPS   HN3 8548   6.419   1.885  11.017  1.0808  0.0703  0.1064
   89SAPS   C12 8549   6.324   1.709  10.964  0.7130  0.1320 -0.2375
   89SAPS  H12A 8550   6.410   1.646  10.947  0.6013 -0.7695  2.1527
   89SAPS   C13 8551   6.210   1.621  11.010 -0.5902  0.0853  0.3231
   89SAPS  O13A 8552   6.122   1.666  11.086  0.4796  0.6609  0.1529
   89SAPS  O13B 8553   6.205   1.506  10.958 -0.1360  0.2636  0.0354
   89SAPS   C11 8554   6.279   1.786  10.838 -0.5650  0.0562  0.3574
   89SAPS  H11A 8555   6.195   1.857  10.853 -0.5318 -0.5071  3.9747
   89SAPS  H11B 8556   6.250   1.720  10.753 -1.2456  0.4423  0.2832
   89SAPS     P 8557   6.498   1.843  10.687 -0.1346  0.2451 -0.1204
   89SAPS   O13 8558   6.581   1.955  10.643  0.5999 -0.0777  0.3617
   89SAPS   O14 8559   6.563   1.731  10.747  0.4151  0.3096  0.1590
   89SAPS   O12 8560   6.385   1.878  10.789  0.0953 -0.4525 -0.1033
   89SAPS   O11 8561   6.420   1.789  10.566  0.2566 -0.0830 -0.3751
   89SAPS    C1 8562   6.314   1.859  10.492  0.0336 -0.0266 -0.4245
   89SAPS    HA 8563   6.216   1.811  10.513  0.2522 -0.0348  0.6223
   89SAPS    HB 8564   6.305   1.966  10.522 -0.9031 -0.6875  1.8877
   89SAPS    C2 8565   6.341   1.847  10.334 -0.0653 -0.4310 -0.4029
   89SAPS    HS 8566   6.269   1.917  10.285  0.0550 -1.8332 -2.7553
   89SAPS   O21 8567   6.346   1.710  10.292 -0.0223 -0.5501 -0.0584
   89SAPS   C21 8568   6.238   1.645  10.273  0.4412 -0.2592  0.0066
   89SAPS   O22 8569   6.123   1.688  10.279 -0.0915  0.2237 -0.7674
   89SAPS   C22 8570   6.274   1.499  10.216  0.5496 -0.5817 -0.5617
   89SAPS   H2R 8571   6.380   1.486  10.248  1.1243  0.1738 -2.0538
   89SAPS   H2S 8572   6.228   1.420  10.279 -0.4494  1.9027  2.1020
   89SAPS    C3 8573   6.485   1.899  10.292  0.4316  0.2576 -0.0671
   89SAPS    HX 8574   6.550   1.810  10.310  0.4377  0.2946  0.0939
   89SAPS    HY 8575   6.503   1.988  10.355  0.7932 -0.9775  1.6392
   89SAPS   O31 8576   6.489   1.935  10.155 -0.1237 -0.6976  0.4226
   89SAPS   C31 8577   6.560   1.863  10.071  0.3867  0.0881  0.2337
   89SAPS   O32 8578   6.615   1.755  10.096  0.5059 -0.9524 -0.3065
   89SAPS   C32 8579   6.557   1.927   9.930  0.3094 -0.7684 -0.4915
   89SAPS   H2X 8580   6.466   1.895   9.876 -0.1509 -1.3475  0.5998
   89SAPS   H2Y 8581   6.631   1.872   9.869  0.1194 -0.2446 -1.2135
   89SAPS   C23 8582   6.250   1.475  10.065  0.0184  0.0444  0.6733
   89SAPS   H3R 8583   6.163   1.540  10.041  0.5290  0.3237 -0.5084
   89SAPS   H3S 8584   6.210   1.374  10.042 -1.3205  0.2111  2.1027
   89SAPS   C24 8585   6.366   1.529   9.979 -0.5250 -0.1051 -0.3370
   89SAPS   H4R 8586   6.387   1.632  10.012  0.1455 -0.0428 -0.9441
   89SAPS   H4S 8587   6.329   1.542   9.875  0.0025 -0.2523 -0.5438
   89SAPS   C25 8588   6.492   1.454   9.989  0.8379  0.3835  0.1253
   89SAPS   H5R 8589   6.526   1.439  10.093 -1.9538  1.1668  1.2266
   89SAPS   C26 8590   6.544   1.398   9.881  0.1672  0.2139  0.1501
   89SAPS   H6R 8591   6.640   1.349   9.900  0.1972 -0.0871 -0.7442
   89SAPS   C27 8592   6.509   1.401   9.735 -0.0251 -0.1363  0.2822
   89SAPS   H7R 8593   6.398   1.406   9.733 -0.0571 -0.3444  1.3307
   89SAPS   H7S 8594   6.547   1.306   9.692 -0.2179  0.0884 -0.4122
   89SAPS   C28 8595   6.564   1.527   9.666  0.1720 -0.0850 -0.1830
   89SAPS   H8R 8596   6.585   1.615   9.729 -1.3166 -0.6901  1.2183
   89SAPS   C29 8597   6.568   1.540   9.531 -0.7061  0.9415  0.0244
   89SAPS   H9R 8598   6.609   1.629   9.480  1.7450  0.5478  1.1301
   89SAPS  C210 8599   6.531   1.424   9.442  0.3600  0.5329  0.3721
   89SAPS  H10R 8600   6.425   1.397   9.461  0.2277  1.5912  1.2298
   89SAPS  H10S 8601   6.592   1.333   9.462 -0.7332  0.1036  1.9293
   89SAPS  C211 8602   6.558   1.472   9.302  0.0899  0.2077  0.2188
   89SAPS  H11R 8603   6.667   1.472   9.285  0.2725  0.3677  1.3139
   89SAPS  C212 8604   6.472   1.513   9.210  0.0598 -0.3902 -0.1076
   89SAPS  H12R 8605   6.519   1.560   9.122  1.9091  1.8607  1.9229
   89SAPS  C213 8606   6.324   1.521   9.225  0.2388 -0.2236 -0.7893
   89SAPS  H13R 8607   6.283   1.607   9.169  2.6554 -0.2667 -2.8151
   89SAPS  H13S 8608   6.301   1.523   9.334 -2.3998 -0.0443 -1.2784
   89SAPS  C214 8609   6.285   1.387   9.170 -0.2130  0.2624 -0.2196
   89SAPS  H14R 8610   6.280   1.312   9.250 -0.6248  0.3590 -0.1519
   89SAPS  C215 8611   6.249   1.359   9.043  0.6414 -0.1354  0.5101
   89SAPS  H15R 8612   6.238   1.255   9.009  2.6203 -0.7785  1.6440
   89SAPS  C216 8613   6.247   1.468   8.941  0.3414  0.1821 -0.0852
   89SAPS  H16R 8614   6.328   1.540   8.965  0.5463 -0.0811  0.0256
   89SAPS  H16S 8615   6.148   1.516   8.958 -0.8601 -2.0646 -0.3056
   89SAPS  C217 8616   6.256   1.409   8.798  0.0031  0.9548 -0.4021
   89SAPS  H17R 8617   6.160   1.359   8.773  1.4747 -0.4546 -3.8901
   89SAPS  H17S 8618   6.336   1.332   8.796 -1.8305 -1.0556 -0.5365
   89SAPS  C218 8619   6.270   1.509   8.679  0.2887  0.5989 -1.4766
   89SAPS  H18R 8620   6.325   1.600   8.710  0.3596  0.1766 -0.3188
   89SAPS  H18S 8621   6.170   1.541   8.641 -0.4122  0.4607  0.1556
   89SAPS  C219 8622   6.347   1.440   8.566 -0.2703  0.0768  0.1662
   89SAPS  H19R 8623   6.309   1.338   8.546 -1.1548  0.7001 -1.5281
   89SAPS  H19S 8624   6.450   1.425   8.604 -0.3238  0.8921  0.6629
   89SAPS  C220 8625   6.352   1.517   8.433 -0.3704 -0.7393  0.3099
   89SAPS  H20R 8626   6.389   1.450   8.352 -2.6325 -0.4988 -0.9845
   89SAPS  H20S 8627   6.413   1.609   8.435 -0.4869 -0.6453 -0.2990
   89SAPS  H20T 8628   6.250   1.547   8.403 -0.1665  0.3733  0.7098
   89SAPS   C33 8629   6.588   2.081   9.928  0.5874 -0.1627 -0.7312
   89SAPS   H3X 8630   6.692   2.082   9.965  0.0668 -1.2728  0.8558
   89SAPS   H3Y 8631   6.517   2.136   9.993  0.6599 -0.0787 -0.7237
   89SAPS   C34 8632   6.598   2.143   9.790 -0.6161 -0.8858 -0.4735
   89SAPS   H4X 8633   6.627   2.250   9.802 -1.0250 -1.0982  3.9356
   89SAPS   H4Y 8634   6.497   2.139   9.744 -1.2478  2.1572  0.4263
   89SAPS   C35 8635   6.708   2.082   9.701 -0.3815  0.0186 -0.0496
   89SAPS   H5X 8636   6.696   1.973   9.687 -1.4676  0.0479  0.5349
   89SAPS   H5Y 8637   6.806   2.099   9.751 -0.8856  1.9752  0.3551
   89SAPS   C36 8638   6.716   2.141   9.559 -0.0269 -0.1393 -0.8783
   89SAPS   H6X 8639   6.715   2.252   9.564 -0.9170 -0.1333 -0.9401
   89SAPS   H6Y 8640   6.630   2.119   9.491  0.4015  1.2715 -1.9041
   89SAPS   C37 8641   6.851   2.096   9.492 -0.5075  0.5553  0.3982
   89SAPS   H7X 8642   6.939   2.124   9.554 -1.5076  1.5767  1.4013
   89SAPS   H7Y 8643   6.868   2.152   9.398  1.1458  0.2989  0.5095
   89SAPS   C38 8644   6.844   1.952   9.442  0.2926  0.7978  0.0076
   89SAPS   H8X 8645   6.735   1.929   9.440  0.0472  1.8816  0.0623
   89SAPS   H8Y 8646   6.893   1.880   9.511  1.4129 -0.9350 -2.4506
   89SAPS   C39 8647   6.899   1.932   9.298 -0.5547 -0.5735 -0.4505
   89SAPS   H9X 8648   6.997   1.983   9.295 -0.7797  0.0304  1.2519
   89SAPS   H9Y 8649   6.845   1.996   9.225  0.2253 -0.3494 -0.8389
   89SAPS  C310 8650   6.892   1.791   9.249 -0.8525 -0.3408 -0.4754
   89SAPS  H10X 8651   6.793   1.740   9.252 -1.9139  1.5564 -1.5240
   89SAPS  H10Y 8652   6.968   1.745   9.315 -1.3070  2.1734  1.9780
   89SAPS  C311 8653   6.924   1.784   9.098  0.4632  0.3066  0.1741
   89SAPS  H11X 8654   6.994   1.869   9.084  0.8527  0.5017  2.7288
   89SAPS  H11Y 8655   6.833   1.809   9.040  0.1075  0.6612  0.8729
   89SAPS  C312 8656   6.973   1.646   9.053 -0.5440  0.9156  0.2159
   89SAPS  H12X 8657   6.893   1.570   9.062 -0.9325  1.0201 -1.8857
   89SAPS  H12Y 8658   7.057   1.608   9.115  0.0022 -2.2485 -2.1879
   89SAPS  C313 8659   7.034   1.652   8.912  0.4953  0.3530 -0.3871
   89SAPS  H13X 8660   7.121   1.718   8.933 -0.7144  2.2520 -0.9877
   89SAPS  H13Y 8661   6.962   1.699   8.841  0.7952 -0.0952 -0.9902
   89SAPS  C314 8662   7.078   1.518   8.851  0.4806  0.4297 -0.6499
   89SAPS  H14X 8663   7.009   1.440   8.888  0.4288  0.7505 -0.0629
   89SAPS  H14Y 8664   7.178   1.488   8.889  0.5563  2.2471  0.7158
   89SAPS  C315 8665   7.098   1.512   8.700  0.2526 -1.0711 -0.5551
   89SAPS  H15X 8666   7.145   1.416   8.669 -0.7546 -2.2117  1.2906
   89SAPS  H15Y 8667   7.167   1.593   8.667  1.0944 -0.7551  1.7426
   89SAPS  C316 8668   6.961   1.519   8.633 -0.0301 -0.1213  0.1809
   89SAPS  H16X 8669   6.941   1.624   8.601 -1.6011 -0.5826 -0.4161
   89SAPS  H16Y 8670   6.882   1.484   8.702  0.1331  0.5615  0.7214
   89SAPS  C317 8671   6.951   1.440   8.498  0.0007  0.1165 -0.7166
   89SAPS  H17X 8672   6.946   1.330   8.518 -0.2205 -0.2483 -2.5675
   89SAPS  H17Y 8673   7.047   1.452   8.443  1.6841  0.0967  2.0347
   89SAPS  C318 8674   6.831   1.488   8.420  0.2658  0.8132 -0.7320
   89SAPS  H18X 8675   6.736   1.483   8.479  0.7872  2.3336  0.2987
   89SAPS  H18Y 8676   6.809   1.441   8.322 -0.7183 -2.5822  0.9299
   89SAPS  H18Z 8677   6.826   1.596   8.396 -3.1945  0.3292 -2.8943
   90SAPS     N 8678   2.074   4.477  11.181  0.9745 -0.0947  0.0873
   90SAPS   HN1 8679   2.134   4.510  11.260  1.3127 -2.4467  0.8896
   90SAPS   HN2 8680   2.010   4.556  11.159 -0.3788 -0.6126  1.8223
   90SAPS   HN3 8681   2.017   4.401  11.223  0.1886  1.0260  1.1366
   90SAPS   C12 8682   2.140   4.435  11.063  0.0734 -0.4779 -0.1579
   90SAPS  H12A 8683   2.233   4.490  11.055 -1.2536  1.8699 -0.2939
   90SAPS   C13 8684   2.173   4.279  11.065  0.0917  0.0853  1.2689
   90SAPS  O13A 8685   2.144   4.209  11.162 -0.6460 -0.6423 -0.1826
   90SAPS  O13B 8686   2.243   4.237  10.974 -0.4111 -0.3264 -0.1524
   90SAPS   C11 8687   2.055   4.465  10.937 -0.6244 -0.8704  0.2348
   90SAPS  H11A 8688   1.959   4.407  10.932  0.0448 -2.0796  0.9575
   90SAPS  H11B 8689   2.114   4.432  10.849 -0.5713 -0.0378 -0.0482
   90SAPS     P 8690   2.111   4.721  10.873 -0.0485 -0.0886 -0.0325
   90SAPS   O13 8691   2.027   4.828  10.807 -0.0216  0.5017 -0.8696
   90SAPS   O14 8692   2.211   4.754  10.976 -0.1921  0.6662  0.0336
   90SAPS   O12 8693   2.019   4.603  10.935 -0.0072 -0.4245  0.2901
   90SAPS   O11 8694   2.187   4.639  10.751  0.7250 -0.0623 -0.0782
   90SAPS    C1 8695   2.124   4.620  10.623 -0.5317 -0.3373 -0.0785
   90SAPS    HA 8696   2.155   4.522  10.580 -1.9946 -0.5506 -0.7123
   90SAPS    HB 8697   2.013   4.618  10.619 -0.6600 -0.3654  2.1800
   90SAPS    C2 8698   2.178   4.730  10.525  0.2018 -0.1845  0.0999
   90SAPS    HS 8699   2.131   4.827  10.552  0.6039  0.3318 -1.0035
   90SAPS   O21 8700   2.138   4.694  10.390 -0.2250 -0.2083 -0.5457
   90SAPS   C21 8701   2.010   4.690  10.354 -0.3785  0.1356 -0.3107
   90SAPS   O22 8702   1.914   4.719  10.420  0.2493  0.4141  0.1880
   90SAPS   C22 8703   2.006   4.650  10.208  0.4829  0.2178  0.7448
   90SAPS   H2R 8704   2.079   4.712  10.152  0.5167 -0.2770  0.2365
   90SAPS   H2S 8705   2.047   4.548  10.189  0.4079  0.3928 -0.3951
   90SAPS    C3 8706   2.333   4.750  10.536 -0.1673 -0.1075 -0.7122
   90SAPS    HX 8707   2.374   4.648  10.523 -1.3995 -0.6175 -0.7489
   90SAPS    HY 8708   2.343   4.796  10.636 -2.2019  0.5671 -0.7689
   90SAPS   O31 8709   2.392   4.828  10.430 -0.6902 -0.1922 -0.0337
   90SAPS   C31 8710   2.425   4.955  10.458 -0.0836  0.2437  0.3803
   90SAPS   O32 8711   2.404   5.019  10.562 -0.5817  0.2359  0.1084
   90SAPS   C32 8712   2.495   5.015  10.334  0.3236  0.0875 -0.1211
   90SAPS   H2X 8713   2.451   5.117  10.322 -3.2241 -0.8222  3.1840
   90SAPS   H2Y 8714   2.457   4.958  10.247 -1.6085  1.7728 -0.4700
   90SAPS   C23 8715   1.863   4.664  10.135 -0.0785  0.4904 -0.6973
   90SAPS   H3R 8716   1.816   4.764  10.146  1.3285  1.1408 -0.4336
   90SAPS   H3S 8717   1.795   4.595  10.190  1.0725 -1.6772 -1.8464
   90SAPS   C24 8718   1.865   4.614   9.994 -0.5887 -0.2708  0.8240
   90SAPS   H4R 8719   1.762   4.603   9.955 -0.4732 -3.4163  1.1362
   90SAPS   H4S 8720   1.914   4.516   9.979 -0.5395  0.2405 -3.8428
   90SAPS   C25 8721   1.930   4.714   9.903  0.6215  0.0958 -0.1874
   90SAPS   H5R 8722   2.034   4.741   9.930  0.9338 -1.0548 -0.1721
   90SAPS   C26 8723   1.877   4.767   9.792 -0.2884  0.3274 -0.0330
   90SAPS   H6R 8724   1.943   4.833   9.734  0.3953  0.4405  0.8669
   90SAPS   C27 8725   1.738   4.740   9.733  0.1483  0.0281 -0.0266
   90SAPS   H7R 8726   1.702   4.831   9.682  1.2576  0.3546 -0.2571
   90SAPS   H7S 8727   1.669   4.710   9.815  1.3310 -0.0518  0.9797
   90SAPS   C28 8728   1.742   4.626   9.633  0.0199  0.3787  0.4230
   90SAPS   H8R 8729   1.715   4.528   9.676  0.5609 -0.1123 -0.3253
   90SAPS   C29 8730   1.760   4.638   9.495  0.7326 -0.6955  0.4906
   90SAPS   H9R 8731   1.742   4.542   9.442 -1.6227  0.4459 -0.9891
   90SAPS  C210 8732   1.780   4.763   9.412  0.0499  0.2469 -0.0049
   90SAPS  H10R 8733   1.753   4.850   9.475 -0.4216 -0.8836  1.4180
   90SAPS  H10S 8734   1.705   4.760   9.330  1.4712 -0.5197 -1.3133
   90SAPS  C211 8735   1.921   4.778   9.356  0.3548  0.1018 -0.4709
   90SAPS  H11R 8736   2.001   4.748   9.426  0.3915  2.7445  0.7697
   90SAPS  C212 8737   1.953   4.827   9.234 -0.6977 -0.1329 -0.1202
   90SAPS  H12R 8738   2.055   4.828   9.194 -0.9242  1.4096 -0.6957
   90SAPS  C213 8739   1.849   4.863   9.128 -0.3665  0.5289 -0.0036
   90SAPS  H13R 8740   1.777   4.937   9.167 -0.3212  1.2044 -1.1594
   90SAPS  H13S 8741   1.791   4.772   9.099  0.6469 -0.1944  0.1658
   90SAPS  C214 8742   1.902   4.922   9.002 -0.4359 -0.0482  0.2619
   90SAPS  H14R 8743   2.009   4.948   8.994 -0.7182  1.2009  0.3808
   90SAPS  C215 8744   1.830   4.960   8.893  0.1896  0.1453 -0.2103
   90SAPS  H15R 8745   1.885   5.014   8.815  0.6748 -0.1853 -0.1011
   90SAPS  C216 8746   1.681   4.942   8.875  0.0702  0.2679 -0.1963
   90SAPS  H16R 8747   1.637   4.965   8.975  1.4817  1.9154  0.0979
   90SAPS  H16S 8748   1.650   4.838   8.851  0.9929 -0.1612  0.4290
   90SAPS  C217 8749   1.610   5.050   8.784  0.3557 -0.0095 -0.4786
   90SAPS  H17R 8750   1.629   5.156   8.812 -0.4101  0.4544 -1.6300
   90SAPS  H17S 8751   1.499   5.038   8.785 -0.1355  2.5443  4.3113
   90SAPS  C218 8752   1.658   5.023   8.641 -0.7264  0.0690  0.1191
   90SAPS  H18R 8753   1.635   4.919   8.612 -0.4648 -0.1152  0.5599
   90SAPS  H18S 8754   1.767   5.047   8.646 -0.7952  0.1688  2.1448
   90SAPS  C219 8755   1.591   5.117   8.538  0.1714  0.8833  0.0513
   90SAPS  H19R 8756   1.633   5.219   8.553  0.8401  0.5195  0.7570
   90SAPS  H19S 8757   1.482   5.120   8.561 -0.1444 -3.1362 -0.2211
   90SAPS  C220 8758   1.598   5.082   8.389  0.7711  0.3122 -0.2684
   90SAPS  H20R 8759   1.700   5.053   8.357  1.2350  1.4535  0.1388
   90SAPS  H20S 8760   1.568   5.169   8.328  0.2765  0.8974  0.7863
   90SAPS  H20T 8761   1.531   4.994   8.373  0.4758  0.7576 -1.6848
   90SAPS   C33 8762   2.647   5.030  10.347  0.4895  0.0530 -0.2403
   90SAPS   H3X 8763   2.697   4.932  10.363 -2.1541 -1.0935  1.9458
   90SAPS   H3Y 8764   2.684   5.090  10.433  1.8447 -1.5945  0.3870
   90SAPS   C34 8765   2.706   5.100  10.223 -0.5088 -0.1530  0.5786
   90SAPS   H4X 8766   2.816   5.117  10.230 -0.4726  0.2060 -0.6092
   90SAPS   H4Y 8767   2.664   5.202  10.215  0.6572  0.2174 -1.8623
   90SAPS   C35 8768   2.697   5.013  10.104 -0.3002  0.3995  1.0465
   90SAPS   H5X 8769   2.597   4.964  10.109  0.5827 -1.4620  1.2392
   90SAPS   H5Y 8770   2.770   4.930  10.112 -1.0363 -0.6436 -1.9371
   90SAPS   C36 8771   2.726   5.095   9.971  0.4216  0.0753 -0.5381
   90SAPS   H6X 8772   2.779   5.027   9.901 -0.1801 -0.7301 -0.2295
   90SAPS   H6Y 8773   2.794   5.181   9.992  2.5705 -1.3782 -1.1520
   90SAPS   C37 8774   2.607   5.150   9.898  1.2087 -0.2107  0.3635
   90SAPS   H7X 8775   2.545   5.216   9.962 -0.3901 -0.1035 -1.2031
   90SAPS   H7Y 8776   2.537   5.064   9.888  0.7715  0.2072 -0.2627
   90SAPS   C38 8777   2.639   5.207   9.763 -0.0382  0.2682  0.7222
   90SAPS   H8X 8778   2.710   5.291   9.778 -0.7469  0.8941  0.5711
   90SAPS   H8Y 8779   2.554   5.255   9.712  0.8200  1.5777  0.4859
   90SAPS   C39 8780   2.696   5.103   9.663 -0.9964 -0.2767 -0.5951
   90SAPS   H9X 8781   2.645   5.005   9.676 -0.8090 -0.3693 -0.5541
   90SAPS   H9Y 8782   2.802   5.076   9.681 -0.4345  2.2849  0.3962
   90SAPS  C310 8783   2.677   5.151   9.528 -0.3890  0.1726  0.3219
   90SAPS  H10X 8784   2.722   5.249   9.503  1.7407 -0.1912  2.3720
   90SAPS  H10Y 8785   2.570   5.159   9.501 -1.0746 -2.6310  1.8414
   90SAPS  C311 8786   2.744   5.066   9.419  0.4140 -0.1213  0.0571
   90SAPS  H11X 8787   2.750   4.957   9.442 -0.6183  0.0898  1.4347
   90SAPS  H11Y 8788   2.846   5.104   9.399 -0.5011  1.4748 -2.0878
   90SAPS  C312 8789   2.664   5.084   9.291 -0.8261  0.0716 -0.6959
   90SAPS  H12X 8790   2.676   5.191   9.265  1.1994 -0.0698 -0.4661
   90SAPS  H12Y 8791   2.558   5.058   9.312 -0.9613 -0.0078 -1.4598
   90SAPS  C313 8792   2.719   5.001   9.170  0.2431  0.8780 -0.0744
   90SAPS  H13X 8793   2.696   4.894   9.188 -0.2749  1.1488  0.9514
   90SAPS  H13Y 8794   2.830   5.007   9.171  0.2524  0.6851 -0.0000
   90SAPS  C314 8795   2.669   5.044   9.035  0.2532 -0.7157 -0.1049
   90SAPS  H14X 8796   2.693   5.151   9.022  2.5159 -1.3674 -2.0293
   90SAPS  H14Y 8797   2.558   5.037   9.031  0.0584  1.3965  0.3101
   90SAPS  C315 8798   2.732   4.974   8.912  0.6147 -0.1924  0.8453
   90SAPS  H15X 8799   2.666   4.884   8.906 -0.3689  0.4309  2.0258
   90SAPS  H15Y 8800   2.839   4.950   8.930  0.5218 -0.7467  0.6754
   90SAPS  C316 8801   2.708   5.057   8.784  0.7896  0.3531 -0.2259
   90SAPS  H16X 8802   2.762   5.153   8.805 -0.1564  1.2242 -1.6457
   90SAPS  H16Y 8803   2.602   5.087   8.772  0.3691  0.8885  3.5657
   90SAPS  C317 8804   2.770   4.969   8.671 -0.3354  0.5307 -0.2491
   90SAPS  H17X 8805   2.880   4.988   8.664 -0.0708  0.2256  2.3366
   90SAPS  H17Y 8806   2.724   5.014   8.580 -1.9830  1.2349  0.8955
   90SAPS  C318 8807   2.741   4.818   8.678 -0.2118 -0.9386 -0.2733
   90SAPS  H18X 8808   2.632   4.806   8.697 -0.5860  1.7315 -0.4583
   90SAPS  H18Y 8809   2.796   4.762   8.756  0.4559 -0.7913 -0.6321
   90SAPS  H18Z 8810   2.751   4.778   8.574 -2.5153 -0.0595 -0.8906
   91SAPS     N 8811   0.358   1.424   5.830 -0.4586 -1.1036 -0.6751
   91SAPS   HN1 8812   0.308   1.381   5.750 -2.2728 -0.6815  0.1614
   91SAPS   HN2 8813   0.452   1.451   5.796 -0.9947  2.2375  0.1477
   91SAPS   HN3 8814   0.370   1.359   5.911  0.7090  0.1183  0.1865
   91SAPS   C12 8815   0.285   1.548   5.874 -0.6924  0.2349  0.3602
   91SAPS  H12A 8816   0.348   1.602   5.943 -0.7836  1.3792 -0.4204
   91SAPS   C13 8817   0.261   1.652   5.756  0.3749  0.2792  0.8114
   91SAPS  O13A 8818   0.275   1.615   5.635  0.2937  0.5993 -0.5331
   91SAPS  O13B 8819   0.222   1.765   5.789 -0.7001 -0.0723  0.6117
   91SAPS   C11 8820   0.145   1.521   5.941 -0.8078 -0.4600 -0.2143
   91SAPS  H11A 8821   0.090   1.456   5.870  0.5562  1.1341 -2.8877
   91SAPS  H11B 8822   0.073   1.605   5.949 -1.1725 -0.7302 -0.6211
   91SAPS     P 8823   0.098   1.309   6.095 -0.2745  0.0482 -0.0074
   91SAPS   O13 8824  -0.047   1.319   6.094  0.4561  0.1060  0.3830
   91SAPS   O14 8825   0.163   1.221   5.989  0.7194  0.0158 -0.1295
   91SAPS   O12 8826   0.156   1.457   6.065  0.0801  0.0884 -0.9269
   91SAPS   O11 8827   0.142   1.272   6.243  0.2392 -0.2448  0.5571
   91SAPS    C1 8828   0.257   1.202   6.289  0.1283  0.2752 -0.1881
   91SAPS    HA 8829   0.272   1.109   6.230  1.6262  1.2015 -1.3722
   91SAPS    HB 8830   0.346   1.267   6.272  0.0309  0.6953  0.8428
   91SAPS    C2 8831   0.241   1.167   6.443  0.0518  0.3154 -0.0750
   91SAPS    HS 8832   0.324   1.094   6.455  0.3107  0.7021  0.5361
   91SAPS   O21 8833   0.103   1.118   6.476  0.6172  0.3618 -0.4069
   91SAPS   C21 8834   0.076   0.995   6.429 -0.0434  0.3964  0.2706
   91SAPS   O22 8835   0.148   0.931   6.361 -0.3978 -0.0804 -0.3109
   91SAPS   C22 8836  -0.049   0.942   6.486 -0.5220  0.3039  0.8110
   91SAPS   H2R 8837  -0.130   1.001   6.438  2.1195  2.1751 -1.6972
   91SAPS   H2S 8838  -0.043   0.833   6.462  1.3525 -0.5310  4.2803
   91SAPS    C3 8839   0.270   1.292   6.527 -0.2688 -0.2055  0.8897
   91SAPS    HX 8840   0.196   1.358   6.477  0.5138 -0.7021 -1.0021
   91SAPS    HY 8841   0.366   1.341   6.502 -0.5280  0.1046  0.4856
   91SAPS   O31 8842   0.252   1.281   6.671 -0.3410  0.2945 -0.4482
   91SAPS   C31 8843   0.341   1.203   6.733 -0.3836 -0.1107  0.2035
   91SAPS   O32 8844   0.440   1.152   6.679  0.1337 -0.2060 -0.6433
   91SAPS   C32 8845   0.299   1.174   6.879 -0.1122  0.2085 -0.9043
   91SAPS   H2X 8846   0.327   1.068   6.898  4.3626  1.6193  2.0703
   91SAPS   H2Y 8847   0.190   1.195   6.885  0.0839  0.8349  2.2803
   91SAPS   C23 8848  -0.045   0.938   6.643 -0.2490  0.5303  0.2575
   91SAPS   H3R 8849  -0.146   0.896   6.666 -0.5055  0.1955 -1.3353
   91SAPS   H3S 8850  -0.056   1.044   6.676  1.9404  0.8669  0.0420
   91SAPS   C24 8851   0.067   0.865   6.719  0.4485  0.5372  0.0312
   91SAPS   H4R 8852   0.170   0.905   6.705  1.8851 -2.8668  0.0431
   91SAPS   H4S 8853   0.072   0.759   6.686  1.2804  0.0189  1.7037
   91SAPS   C25 8854   0.027   0.886   6.860  0.1478  0.2969  0.2902
   91SAPS   H5R 8855   0.009   0.989   6.895 -0.2677  0.8157 -1.3623
   91SAPS   C26 8856  -0.018   0.785   6.934 -0.4065 -0.0929  0.3552
   91SAPS   H6R 8857  -0.058   0.813   7.033  0.5388  3.1885 -0.0569
   91SAPS   C27 8858  -0.026   0.641   6.894 -0.3071  0.0467 -0.3331
   91SAPS   H7R 8859  -0.071   0.628   6.793  1.5852 -1.7853 -1.0117
   91SAPS   H7S 8860  -0.093   0.596   6.971  2.6604  0.3320  2.6355
   91SAPS   C28 8861   0.109   0.581   6.922 -0.1961 -0.4690  0.0824
   91SAPS   H8R 8862   0.195   0.635   6.880  0.2875 -0.4396  1.0836
   91SAPS   C29 8863   0.128   0.457   6.976  0.4600  0.3980  0.4677
   91SAPS   H9R 8864   0.232   0.428   6.995  0.1172 -1.5875 -0.4165
   91SAPS  C210 8865   0.022   0.358   7.020  0.0912 -0.6468  0.5504
   91SAPS  H10R 8866  -0.063   0.390   6.956  1.1413 -2.0353 -1.6791
   91SAPS  H10S 8867  -0.006   0.374   7.127 -1.2785  2.4309 -0.1583
   91SAPS  C211 8868   0.044   0.209   6.989 -0.1538 -0.4627 -0.5444
   91SAPS  H11R 8869   0.015   0.179   6.887 -1.1659 -0.0501 -0.3922
   91SAPS  C212 8870   0.101   0.115   7.065  0.3838  0.2656 -0.1134
   91SAPS  H12R 8871   0.117   0.012   7.030 -1.8641 -1.2114  2.8184
   91SAPS  C213 8872   0.162   0.138   7.204 -0.2627  0.1974 -0.2262
   91SAPS  H13R 8873   0.199   0.242   7.216 -0.2444  0.0851  0.7317
   91SAPS  H13S 8874   0.258   0.083   7.205 -1.4569 -1.9952 -0.7024
   91SAPS  C214 8875   0.077   0.101   7.324  0.1468  0.2055  0.2106
   91SAPS  H14R 8876   0.008   0.016   7.320  0.2514  0.1060  0.5608
   91SAPS  C215 8877   0.056   0.186   7.433  0.8698  0.7283 -0.4332
   91SAPS  H15R 8878  -0.018   0.144   7.503  0.6119 -0.3597 -1.3319
   91SAPS  C216 8879   0.108   0.316   7.465  0.4119 -0.6244  0.0986
   91SAPS  H16R 8880   0.034   0.399   7.456 -0.1032 -1.2553 -2.2745
   91SAPS  H16S 8881   0.199   0.334   7.405 -0.0623 -2.6776 -1.3337
   91SAPS  C217 8882   0.158   0.316   7.615 -0.2456  0.6441 -0.3352
   91SAPS  H17R 8883   0.239   0.392   7.627  0.8052 -0.6564  1.1101
   91SAPS  H17S 8884   0.219   0.225   7.632 -1.5976 -0.0474  1.0671
   91SAPS  C218 8885   0.046   0.344   7.721 -0.5480  0.9974  0.0555
   91SAPS  H18R 8886  -0.041   0.279   7.698  0.5489 -0.3708 -0.3389
   91SAPS  H18S 8887   0.011   0.448   7.700  1.5883  1.2887 -2.6000
   91SAPS  C219 8888   0.102   0.330   7.862  0.1830 -0.4749 -0.0504
   91SAPS  H19R 8889   0.163   0.422   7.872  0.0753 -0.3229 -0.7207
   91SAPS  H19S 8890   0.164   0.238   7.865 -0.9276 -1.3217 -1.4977
   91SAPS  C220 8891  -0.010   0.330   7.970 -0.0827  0.1898 -0.5440
   91SAPS  H20R 8892   0.019   0.339   8.077 -1.2665  0.2954 -0.2173
   91SAPS  H20S 8893  -0.049   0.227   7.950  0.5440  0.3101 -2.5499
   91SAPS  H20T 8894  -0.086   0.409   7.950  0.1568  0.4537 -0.4044
   91SAPS   C33 8895   0.382   1.249   6.986 -0.1766 -0.5266  0.5522
   91SAPS   H3X 8896   0.383   1.360   6.971  3.2199 -0.3592  1.3742
   91SAPS   H3Y 8897   0.487   1.217   7.001 -0.3192 -1.4337 -0.2975
   91SAPS   C34 8898   0.316   1.228   7.124  0.3604 -0.1124  0.0522
   91SAPS   H4X 8899   0.305   1.117   7.130 -0.4964 -0.0050  0.8479
   91SAPS   H4Y 8900   0.207   1.252   7.126 -0.1406 -2.1686  2.5959
   91SAPS   C35 8901   0.388   1.289   7.239 -0.2992 -0.6586  0.3636
   91SAPS   H5X 8902   0.392   1.397   7.215 -1.9505 -0.5786  0.3281
   91SAPS   H5Y 8903   0.491   1.249   7.253  0.3381  1.0486  0.7325
   91SAPS   C36 8904   0.303   1.286   7.368 -0.7069  0.7204 -0.3870
   91SAPS   H6X 8905   0.259   1.184   7.374 -0.7065  0.6559 -1.3892
   91SAPS   H6Y 8906   0.232   1.371   7.375 -0.0631  1.1899  0.8565
   91SAPS   C37 8907   0.403   1.309   7.489 -0.0592  0.2893  0.3036
   91SAPS   H7X 8908   0.445   1.410   7.470 -1.8634  1.2552  1.3031
   91SAPS   H7Y 8909   0.483   1.231   7.489 -0.1329  0.2133  0.6091
   91SAPS   C38 8910   0.332   1.304   7.619 -0.5344  0.8358 -0.3078
   91SAPS   H8X 8911   0.276   1.209   7.630  3.5026 -1.6483  1.2861
   91SAPS   H8Y 8912   0.259   1.387   7.625 -0.1295  1.1573  0.2652
   91SAPS   C39 8913   0.422   1.313   7.742  0.8082  0.4197  0.0655
   91SAPS   H9X 8914   0.465   1.415   7.741  0.5816  0.5205 -1.5864
   91SAPS   H9Y 8915   0.511   1.247   7.730  0.1691 -0.6541  0.9739
   91SAPS  C310 8916   0.339   1.287   7.873 -0.2991  0.2390  0.2783
   91SAPS  H10X 8917   0.282   1.194   7.854  1.4741 -0.2995 -3.3154
   91SAPS  H10Y 8918   0.273   1.375   7.889  0.4312  0.6123  1.3441
   91SAPS  C311 8919   0.431   1.277   7.998 -0.0472 -0.4879  0.5639
   91SAPS  H11X 8920   0.482   1.375   8.005 -0.8215 -0.1022  0.9762
   91SAPS  H11Y 8921   0.518   1.210   7.982  1.0287  0.8043  0.9075
   91SAPS  C312 8922   0.340   1.249   8.119  0.2306  0.6486 -0.7466
   91SAPS  H12X 8923   0.293   1.153   8.092  1.2310 -0.3504  0.8804
   91SAPS  H12Y 8924   0.263   1.325   8.146  0.6998  0.4981  1.1879
   91SAPS  C313 8925   0.428   1.227   8.242 -0.2031  0.2675 -0.1572
   91SAPS  H13X 8926   0.471   1.317   8.292 -1.6322  1.4875 -1.0101
   91SAPS  H13Y 8927   0.513   1.163   8.209 -0.1861  1.1267 -1.9085
   91SAPS  C314 8928   0.343   1.132   8.333 -0.7602  0.5631  0.0455
   91SAPS  H14X 8929   0.294   1.047   8.280 -0.9629 -0.0998  1.2508
   91SAPS  H14Y 8930   0.255   1.181   8.380 -1.6794 -1.4007  0.4605
   91SAPS  C315 8931   0.433   1.066   8.441  0.3259  0.0655  0.5419
   91SAPS  H15X 8932   0.522   1.018   8.394  0.0479 -0.4722  0.5484
   91SAPS  H15Y 8933   0.369   0.983   8.480  1.4433 -1.4656 -0.7535
   91SAPS  C316 8934   0.479   1.159   8.550  0.0450 -0.1945 -0.4217
   91SAPS  H16X 8935   0.401   1.235   8.574 -0.3118 -0.5864 -0.3207
   91SAPS  H16Y 8936   0.564   1.220   8.513 -2.1567  3.5375  0.2307
   91SAPS  C317 8937   0.511   1.101   8.690 -0.4832  0.0639  0.4218
   91SAPS  H17X 8938   0.517   1.185   8.763 -0.4937 -0.0804  0.5896
   91SAPS  H17Y 8939   0.611   1.053   8.691 -1.1634 -1.4706 -1.1953
   91SAPS  C318 8940   0.408   1.009   8.750  0.9499 -0.8249  0.2755
   91SAPS  H18X 8941   0.396   0.919   8.685 -2.3037 -0.3060 -0.0145
   91SAPS  H18Y 8942   0.304   1.050   8.754  1.2079 -0.2326  1.4050
   91SAPS  H18Z 8943   0.429   0.976   8.853 -1.9192  0.9134  1.5604
   92SAPS     N 8944   4.620   3.855   6.193 -0.0823  0.3957  0.2238
   92SAPS   HN1 8945   4.565   3.904   6.119  0.0316  0.6741  0.3222
   92SAPS   HN2 8946   4.689   3.796   6.144 -0.3334  0.9860 -0.8749
   92SAPS   HN3 8947   4.558   3.801   6.257  1.2156 -0.8526  0.4559
   92SAPS   C12 8948   4.687   3.960   6.272 -0.2368  0.1121 -0.3612
   92SAPS  H12A 8949   4.791   3.934   6.278 -0.1916  0.6142  2.1753
   92SAPS   C13 8950   4.684   4.099   6.209  0.9129 -0.8512  1.0465
   92SAPS  O13A 8951   4.607   4.116   6.105 -0.3609  0.3539 -0.0267
   92SAPS  O13B 8952   4.760   4.191   6.244  0.4261  0.3291  0.1015
   92SAPS   C11 8953   4.637   3.970   6.423  0.2909 -0.0312 -0.3073
   92SAPS  H11A 8954   4.548   4.035   6.414  0.6278  0.5350  0.3479
   92SAPS  H11B 8955   4.714   4.024   6.483 -0.2782 -1.2590  1.6275
   92SAPS     P 8956   4.737   3.750   6.525 -0.0123  0.0874  0.0235
   92SAPS   O13 8957   4.680   3.620   6.562  0.0063 -0.2085  0.5121
   92SAPS   O14 8958   4.834   3.756   6.416 -0.4479 -0.0557  0.4329
   92SAPS   O12 8959   4.610   3.843   6.490 -0.8327  0.5300 -0.5480
   92SAPS   O11 8960   4.805   3.830   6.639 -0.1689  0.6660 -0.3406
   92SAPS    C1 8961   4.766   3.814   6.782  0.1557  0.0591  0.5007
   92SAPS    HA 8962   4.744   3.709   6.810 -0.1781 -0.1650 -0.5532
   92SAPS    HB 8963   4.860   3.840   6.834  1.7534 -0.7321 -1.8334
   92SAPS    C2 8964   4.640   3.894   6.816 -0.4923 -0.2496  0.1226
   92SAPS    HS 8965   4.553   3.843   6.770 -0.2671  0.5299 -1.2219
   92SAPS   O21 8966   4.667   4.030   6.777  0.6111 -0.2540  0.0059
   92SAPS   C21 8967   4.561   4.109   6.729  0.5503  0.8015  0.2323
   92SAPS   O22 8968   4.445   4.072   6.749 -0.5684 -0.3539  0.3218
   92SAPS   C22 8969   4.597   4.251   6.700  0.3336 -0.1673 -0.0884
   92SAPS   H2R 8970   4.701   4.260   6.662  1.1383 -0.7266  1.8821
   92SAPS   H2S 8971   4.529   4.289   6.621 -0.0128 -1.9069 -0.6932
   92SAPS    C3 8972   4.624   3.888   6.973  0.3254 -1.0154  0.1032
   92SAPS    HX 8973   4.524   3.935   6.988 -0.3020 -1.6483 -1.7802
   92SAPS    HY 8974   4.698   3.952   7.025 -0.7693  0.7104 -0.3563
   92SAPS   O31 8975   4.615   3.748   7.017  0.6138  0.2193 -0.3675
   92SAPS   C31 8976   4.573   3.745   7.140  0.4022 -0.5885 -0.3327
   92SAPS   O32 8977   4.574   3.838   7.217  0.0456  0.3130  0.1336
   92SAPS   C32 8978   4.526   3.606   7.176  0.4004  1.1909 -0.5918
   92SAPS   H2X 8979   4.548   3.516   7.114 -1.1249  0.3590  0.0280
   92SAPS   H2Y 8980   4.415   3.613   7.179  0.3511  0.9534 -1.5280
   92SAPS   C23 8981   4.575   4.327   6.838  0.4637 -0.0922 -0.3568
   92SAPS   H3R 8982   4.522   4.262   6.912 -0.5037 -2.0401 -2.6023
   92SAPS   H3S 8983   4.508   4.408   6.801 -1.2309 -1.4586 -0.4086
   92SAPS   C24 8984   4.713   4.364   6.908  0.0609  0.5610 -0.3938
   92SAPS   H4R 8985   4.770   4.440   6.852  3.3678  0.0228  1.9450
   92SAPS   H4S 8986   4.787   4.282   6.917  1.8673  2.2088  0.4382
   92SAPS   C25 8987   4.696   4.424   7.050  0.5620 -0.3449  0.1901
   92SAPS   H5R 8988   4.645   4.522   7.047 -1.2918 -1.2345  1.0557
   92SAPS   C26 8989   4.715   4.374   7.172  0.6544 -0.2126 -0.2060
   92SAPS   H6R 8990   4.719   4.433   7.265  1.0374 -0.4426 -0.0762
   92SAPS   C27 8991   4.760   4.236   7.195 -0.0673 -0.0282  0.1504
   92SAPS   H7R 8992   4.856   4.238   7.252  0.0467  1.1929 -0.0556
   92SAPS   H7S 8993   4.791   4.172   7.110  2.2056 -0.7927  1.4394
   92SAPS   C28 8994   4.661   4.154   7.273 -0.4679 -0.8220 -0.1726
   92SAPS   H8R 8995   4.594   4.091   7.212 -2.9850  0.1311  1.4582
   92SAPS   C29 8996   4.632   4.154   7.408  0.4671  0.2070  0.3415
   92SAPS   H9R 8997   4.547   4.090   7.436  0.5636 -0.1136 -0.0927
   92SAPS  C210 8998   4.693   4.228   7.528 -0.0107  0.6799 -0.5049
   92SAPS  H10R 8999   4.790   4.271   7.497  0.5043  0.6898  1.0302
   92SAPS  H10S 9000   4.704   4.170   7.622 -0.4975  1.1563 -0.1429
   92SAPS  C211 9001   4.595   4.342   7.555 -0.1313  0.3301 -0.2007
   92SAPS  H11R 9002   4.585   4.413   7.471  0.9467  0.7808  0.0285
   92SAPS  C212 9003   4.535   4.366   7.674  0.4460  0.5356 -0.2394
   92SAPS  H12R 9004   4.467   4.452   7.676 -0.3493 -0.0813  2.1935
   92SAPS  C213 9005   4.550   4.285   7.799 -1.3801  1.0883 -0.1030
   92SAPS  H13R 9006   4.547   4.178   7.771  3.4300  0.4880  0.7929
   92SAPS  H13S 9007   4.456   4.294   7.858 -1.9780  0.1932 -0.8979
   92SAPS  C214 9008   4.678   4.312   7.869  0.0765  0.0086 -0.3198
   92SAPS  H14R 9009   4.727   4.406   7.840  2.2616 -0.9187  0.1052
   92SAPS  C215 9010   4.725   4.234   7.974 -0.0323 -0.9109  0.2614
   92SAPS  H15R 9011   4.817   4.270   8.023  0.2916 -1.6609  0.2058
   92SAPS  C216 9012   4.663   4.111   8.029  0.0716  0.1944  0.5009
   92SAPS  H16R 9013   4.750   4.043   8.044  0.1131 -0.3206 -1.7498
   92SAPS  H16S 9014   4.597   4.068   7.951  1.5379  0.9166 -1.2205
   92SAPS  C217 9015   4.569   4.123   8.153  0.1356  0.1522 -0.2154
   92SAPS  H17R 9016   4.511   4.030   8.172  1.1698 -1.1159 -2.7341
   92SAPS  H17S 9017   4.488   4.194   8.125  1.7649  1.4830 -1.8298
   92SAPS  C218 9018   4.640   4.191   8.274  0.4556  0.3586  0.3782
   92SAPS  H18R 9019   4.749   4.168   8.276  0.4804  0.5027  2.1508
   92SAPS  H18S 9020   4.599   4.139   8.363 -0.1873  3.0033  1.7168
   92SAPS  C219 9021   4.617   4.344   8.297 -0.3451  0.5653  0.1699
   92SAPS  H19R 9022   4.560   4.349   8.392 -2.7060 -0.8777 -1.0795
   92SAPS  H19S 9023   4.548   4.375   8.216 -1.5636 -3.1579 -0.3894
   92SAPS  C220 9024   4.737   4.441   8.316 -0.2881 -1.2568  0.4009
   92SAPS  H20R 9025   4.763   4.447   8.424  1.5598 -1.2114 -0.0149
   92SAPS  H20S 9026   4.724   4.551   8.301  2.4207 -0.7035  1.5771
   92SAPS  H20T 9027   4.822   4.402   8.258 -1.1193 -1.9377 -0.3803
   92SAPS   C33 9028   4.566   3.560   7.320  0.1978 -0.3002 -0.0070
   92SAPS   H3X 9029   4.513   3.623   7.394 -0.0684 -1.0274  0.4232
   92SAPS   H3Y 9030   4.674   3.565   7.347  0.8177 -3.6283 -1.4066
   92SAPS   C34 9031   4.513   3.417   7.357  0.7959 -0.3083  0.7443
   92SAPS   H4X 9032   4.566   3.347   7.288  1.4102  1.4289 -0.6145
   92SAPS   H4Y 9033   4.404   3.418   7.336  0.6487 -1.6605  1.3211
   92SAPS   C35 9034   4.530   3.381   7.502  0.4935  0.4463 -0.5122
   92SAPS   H5X 9035   4.455   3.432   7.567 -0.3044 -1.4949  0.1670
   92SAPS   H5Y 9036   4.631   3.400   7.545 -0.6827 -2.4364  4.4108
   92SAPS   C36 9037   4.509   3.235   7.546 -0.2379 -0.6325 -0.0500
   92SAPS   H6X 9038   4.556   3.165   7.474  1.4977 -2.0766  2.3318
   92SAPS   H6Y 9039   4.401   3.212   7.558 -0.5168  1.5666  2.7665
   92SAPS   C37 9040   4.551   3.201   7.693 -0.6991  0.3492 -0.0469
   92SAPS   H7X 9041   4.648   3.253   7.708 -0.8703 -0.0313  3.1480
   92SAPS   H7Y 9042   4.571   3.092   7.688 -1.3248  0.2366 -0.1688
   92SAPS   C38 9043   4.447   3.254   7.795 -0.1552 -0.2847  0.2169
   92SAPS   H8X 9044   4.354   3.194   7.784  0.5802 -1.4895  0.3861
   92SAPS   H8Y 9045   4.422   3.361   7.778 -1.6185 -0.6700 -0.2418
   92SAPS   C39 9046   4.487   3.247   7.943 -0.2594 -0.0946 -0.7664
   92SAPS   H9X 9047   4.578   3.309   7.960 -0.6275 -0.0129  1.1478
   92SAPS   H9Y 9048   4.526   3.148   7.974  2.1822  0.8536 -0.5604
   92SAPS  C310 9049   4.371   3.286   8.025 -0.0477 -0.2775 -0.4057
   92SAPS  H10X 9050   4.284   3.220   8.002  1.5705 -3.1314  1.2206
   92SAPS  H10Y 9051   4.340   3.391   8.004  0.7303  0.4032  1.6288
   92SAPS  C311 9052   4.388   3.275   8.179 -0.4388 -0.0834 -0.1491
   92SAPS  H11X 9053   4.484   3.319   8.214 -0.1080 -0.9729  0.0885
   92SAPS  H11Y 9054   4.384   3.165   8.197 -0.3674  0.2232  2.0910
   92SAPS  C312 9055   4.264   3.335   8.250 -0.3631  0.5159  0.6390
   92SAPS  H12X 9056   4.180   3.263   8.246  0.9228 -1.1329  1.9485
   92SAPS  H12Y 9057   4.234   3.432   8.205 -1.2118 -0.2563 -0.5246
   92SAPS  C313 9058   4.285   3.362   8.405 -0.4281 -0.0946  0.9502
   92SAPS  H13X 9059   4.204   3.416   8.458  0.7082  1.9846  0.6448
   92SAPS  H13Y 9060   4.366   3.435   8.428 -0.2522 -0.3207  1.0575
   92SAPS  C314 9061   4.322   3.229   8.480 -0.0419  0.2676  0.5560
   92SAPS  H14X 9062   4.391   3.253   8.564  1.8877 -2.6462 -0.0340
   92SAPS  H14Y 9063   4.370   3.151   8.418 -0.9172 -1.0825  1.5323
   92SAPS  C315 9064   4.193   3.157   8.529 -0.1968  0.1584  0.1254
   92SAPS  H15X 9065   4.136   3.131   8.437 -0.7402 -1.1117  0.7969
   92SAPS  H15Y 9066   4.116   3.215   8.583  0.4214  2.1701 -1.0413
   92SAPS  C316 9067   4.213   3.024   8.598  0.2978 -0.6443  0.0249
   92SAPS  H16X 9068   4.285   2.956   8.547  0.1361  0.0615 -1.1674
   92SAPS  H16Y 9069   4.118   2.969   8.579 -0.6938  1.5787 -1.9107
   92SAPS  C317 9070   4.249   3.027   8.746  0.2195 -0.2430  0.3273
   92SAPS  H17X 9071   4.197   3.113   8.792 -1.1422 -0.5798 -0.5206
   92SAPS  H17Y 9072   4.358   3.043   8.752  0.2459 -0.5272  0.7184
   92SAPS  C318 9073   4.215   2.895   8.814  0.3592  0.4492  0.0259
   92SAPS  H18X 9074   4.107   2.871   8.813  0.6590 -1.0572  0.4694
   92SAPS  H18Y 9075   4.260   2.905   8.916  0.1095 -0.4606  0.2370
   92SAPS  H18Z 9076   4.275   2.813   8.768 -0.0623 -0.7383  1.4986
   93SAPS     N 9077   0.823   4.774   6.203 -0.4573 -0.3851 -0.5460
   93SAPS   HN1 9078   0.910   4.799   6.153 -1.2925  1.3165 -1.2303
   93SAPS   HN2 9079   0.848   4.725   6.291  0.0408  1.1911  0.2173
   93SAPS   HN3 9080   0.760   4.705   6.156 -0.2412 -0.5204 -0.6365
   93SAPS   C12 9081   0.742   4.896   6.227 -0.3129 -0.3796  0.3420
   93SAPS  H12A 9082   0.809   4.962   6.280 -0.6436 -0.6809  1.1571
   93SAPS   C13 9083   0.710   4.964   6.088 -0.9084  1.4030  0.4417
   93SAPS  O13A 9084   0.743   4.910   5.976 -0.1138 -0.6790 -0.6784
   93SAPS  O13B 9085   0.650   5.073   6.082 -0.3720 -0.4092 -0.5057
   93SAPS   C11 9086   0.601   4.861   6.297 -0.4435 -0.1531  0.5562
   93SAPS  H11A 9087   0.561   4.765   6.259  1.3612 -0.2978 -1.1011
   93SAPS  H11B 9088   0.520   4.930   6.263  0.5791  1.0826  0.5691
   93SAPS     P 9089   0.562   4.973   6.535  0.1233 -0.0316  0.5679
   93SAPS   O13 9090   0.651   5.005   6.651 -0.4512  0.2769  0.8066
   93SAPS   O14 9091   0.522   5.086   6.448 -0.3278 -0.0562  0.3176
   93SAPS   O12 9092   0.612   4.860   6.437  0.0082 -0.8164 -0.5807
   93SAPS   O11 9093   0.435   4.908   6.594  0.7334 -0.3712  0.0954
   93SAPS    C1 9094   0.455   4.797   6.683 -0.1675  0.2795 -0.7039
   93SAPS    HA 9095   0.391   4.713   6.648  0.8677 -0.3915 -1.0422
   93SAPS    HB 9096   0.562   4.767   6.688  0.0561  0.9277 -1.4047
   93SAPS    C2 9097   0.405   4.818   6.830  0.6680  0.9811  0.6884
   93SAPS    HS 9098   0.412   4.715   6.872  2.7586  0.5446 -0.5508
   93SAPS   O21 9099   0.271   4.870   6.823  0.0954  0.1774 -0.0992
   93SAPS   C21 9100   0.193   4.835   6.923  0.0110 -0.6536  0.5339
   93SAPS   O22 9101   0.223   4.753   7.007  0.0071 -0.2643  0.1365
   93SAPS   C22 9102   0.069   4.928   6.922  0.1848  0.5540  0.4349
   93SAPS   H2R 9103   0.094   5.020   6.979  0.3505  0.6909  0.1466
   93SAPS   H2S 9104   0.047   4.951   6.815  0.4813  0.0177  0.2538
   93SAPS    C3 9105   0.494   4.912   6.910  0.3262  0.1152  0.1994
   93SAPS    HX 9106   0.467   5.010   6.865 -3.0316 -1.3001 -1.2000
   93SAPS    HY 9107   0.602   4.890   6.898  0.4695  0.4339  0.8143
   93SAPS   O31 9108   0.455   4.915   7.047  0.1994  0.2215 -0.8195
   93SAPS   C31 9109   0.504   4.823   7.128 -0.1043  0.1680 -0.0384
   93SAPS   O32 9110   0.576   4.732   7.094  0.3182  0.4874  0.4510
   93SAPS   C32 9111   0.453   4.859   7.274 -0.5651 -0.0304  0.1189
   93SAPS   H2X 9112   0.348   4.823   7.267  0.4595 -3.0115 -1.7419
   93SAPS   H2Y 9113   0.459   4.969   7.289  0.2638 -0.2154  1.1894
   93SAPS   C23 9114  -0.052   4.870   6.997  0.5214  0.4603  0.2066
   93SAPS   H3R 9115  -0.066   4.770   6.952  1.1345 -0.6534  2.3641
   93SAPS   H3S 9116  -0.140   4.936   6.985 -0.3932 -0.5485  1.1741
   93SAPS   C24 9117  -0.022   4.862   7.149 -0.0993  0.2495  1.1060
   93SAPS   H4R 9118   0.014   4.958   7.191  1.3827 -0.2659  1.0507
   93SAPS   H4S 9119   0.052   4.783   7.173  0.2904  0.1427 -0.3528
   93SAPS   C25 9120  -0.144   4.828   7.233  0.2974 -0.8147  0.0046
   93SAPS   H5R 9121  -0.176   4.723   7.244 -0.6365 -0.5147  0.2763
   93SAPS   C26 9122  -0.218   4.922   7.295 -0.7225 -0.2848  0.2052
   93SAPS   H6R 9123  -0.299   4.885   7.359 -0.9824 -0.8044 -0.4201
   93SAPS   C27 9124  -0.203   5.068   7.308 -0.5330  0.2576  0.3356
   93SAPS   H7R 9125  -0.101   5.096   7.341  0.9015  2.2894 -4.8379
   93SAPS   H7S 9126  -0.277   5.113   7.378 -0.4231 -1.4144  1.6072
   93SAPS   C28 9127  -0.206   5.148   7.179 -0.0064  0.1657 -0.0412
   93SAPS   H8R 9128  -0.196   5.087   7.088  1.7601  2.0401 -1.2133
   93SAPS   C29 9129  -0.223   5.278   7.166  0.5257  0.4195 -0.0438
   93SAPS   H9R 9130  -0.231   5.317   7.063 -0.9162  1.7098  0.5096
   93SAPS  C210 9131  -0.236   5.377   7.275 -0.4243 -0.2715  0.3434
   93SAPS  H10R 9132  -0.181   5.466   7.236 -1.7379  0.4196  0.0137
   93SAPS  H10S 9133  -0.192   5.328   7.364 -1.3160 -1.7936 -0.0220
   93SAPS  C211 9134  -0.373   5.417   7.285  0.3653 -0.8549  0.4824
   93SAPS  H11R 9135  -0.415   5.445   7.187 -0.0587 -1.3030  0.5357
   93SAPS  C212 9136  -0.452   5.420   7.390  0.1087 -0.1532  0.2646
   93SAPS  H12R 9137  -0.552   5.465   7.388  1.1732  2.3694 -0.3369
   93SAPS  C213 9138  -0.404   5.389   7.534 -0.1174  0.7766  0.4601
   93SAPS  H13R 9139  -0.365   5.286   7.533  0.0971  0.8583  0.4090
   93SAPS  H13S 9140  -0.495   5.383   7.598 -0.6139 -0.7217 -0.3399
   93SAPS  C214 9141  -0.296   5.479   7.593 -0.0706 -0.7703 -0.5060
   93SAPS  H14R 9142  -0.246   5.557   7.534 -0.6278  0.2724  0.3613
   93SAPS  C215 9143  -0.257   5.459   7.725  0.2571 -0.7625  0.0476
   93SAPS  H15R 9144  -0.168   5.511   7.763 -0.8051  0.5407  0.7956
   93SAPS  C216 9145  -0.323   5.359   7.816 -0.5735 -0.1837  0.5877
   93SAPS  H16R 9146  -0.255   5.273   7.834  2.6504  1.9137 -0.7409
   93SAPS  H16S 9147  -0.408   5.306   7.768  1.3977 -2.0100 -1.0575
   93SAPS  C217 9148  -0.360   5.423   7.947  0.0143 -0.7155  0.0391
   93SAPS  H17R 9149  -0.414   5.345   8.004 -0.7401 -0.7491 -0.7024
   93SAPS  H17S 9150  -0.424   5.513   7.933 -0.5117 -1.2487 -1.0545
   93SAPS  C218 9151  -0.239   5.461   8.039  0.7714 -0.1338 -0.6109
   93SAPS  H18R 9152  -0.180   5.542   7.990  1.4540 -0.4457 -0.3166
   93SAPS  H18S 9153  -0.173   5.372   8.049  0.4645 -0.3512 -0.5138
   93SAPS  C219 9154  -0.269   5.512   8.173 -1.0591 -0.7529 -0.0022
   93SAPS  H19R 9155  -0.299   5.432   8.244 -1.7190  0.4045  1.0771
   93SAPS  H19S 9156  -0.363   5.572   8.177 -0.0022  0.9184  1.5580
   93SAPS  C220 9157  -0.160   5.591   8.245  0.1961  0.9604  0.3581
   93SAPS  H20R 9158  -0.068   5.528   8.250 -0.7711 -0.4010  1.8812
   93SAPS  H20S 9159  -0.190   5.623   8.347  1.0716  0.3204  0.8300
   93SAPS  H20T 9160  -0.134   5.690   8.200  2.5564  0.0102 -0.5484
   93SAPS   C33 9161   0.544   4.787   7.382  0.3366 -0.2214  0.1616
   93SAPS   H3X 9162   0.645   4.832   7.380  1.0849 -1.8187 -1.4485
   93SAPS   H3Y 9163   0.557   4.680   7.355 -0.1143 -0.6059  1.4010
   93SAPS   C34 9164   0.488   4.783   7.524 -0.4113 -0.2573  0.4500
   93SAPS   H4X 9165   0.384   4.746   7.516 -1.8890  3.7555 -2.1503
   93SAPS   H4Y 9166   0.471   4.890   7.548 -1.8699 -0.2454 -0.4853
   93SAPS   C35 9167   0.579   4.709   7.625  0.2661  0.0814 -0.3013
   93SAPS   H5X 9168   0.686   4.728   7.601  0.3162  1.8131  1.0590
   93SAPS   H5Y 9169   0.557   4.601   7.615  2.5861 -0.4691  0.0119
   93SAPS   C36 9170   0.548   4.738   7.774 -0.3816 -0.2430 -0.2853
   93SAPS   H6X 9171   0.591   4.837   7.800 -2.0984  0.0703  1.6016
   93SAPS   H6Y 9172   0.606   4.662   7.830 -0.9839 -1.3585 -1.1215
   93SAPS   C37 9173   0.404   4.730   7.826  0.2344 -0.6096 -0.0536
   93SAPS   H7X 9174   0.350   4.633   7.811 -0.5047  0.1743 -3.2451
   93SAPS   H7Y 9175   0.345   4.806   7.771  0.6814  0.6294  1.1336
   93SAPS   C38 9176   0.401   4.770   7.970 -0.0205 -0.7457 -0.3354
   93SAPS   H8X 9177   0.295   4.800   7.988  0.6696  2.7035 -1.2138
   93SAPS   H8Y 9178   0.465   4.860   7.984 -0.5497 -0.3551 -0.3747
   93SAPS   C39 9179   0.442   4.658   8.063 -0.3615 -0.2867 -0.1120
   93SAPS   H9X 9180   0.517   4.585   8.028  0.0311 -0.2037  0.5245
   93SAPS   H9Y 9181   0.352   4.595   8.078 -1.3255  0.7629 -1.2368
   93SAPS  C310 9182   0.485   4.718   8.200  0.0288  0.4610 -0.1596
   93SAPS  H10X 9183   0.554   4.802   8.175  0.5546 -0.1618 -0.8106
   93SAPS  H10Y 9184   0.539   4.644   8.263 -1.6115  0.4807  1.3251
   93SAPS  C311 9185   0.374   4.760   8.290 -0.0831 -0.1513 -0.3416
   93SAPS  H11X 9186   0.283   4.701   8.270  0.8178 -2.0360  0.8877
   93SAPS  H11Y 9187   0.337   4.864   8.275 -0.9104 -0.2335  1.0322
   93SAPS  C312 9188   0.413   4.738   8.431 -0.2293  0.2028 -0.5116
   93SAPS  H12X 9189   0.509   4.790   8.451  1.3042 -1.8077 -2.1938
   93SAPS  H12Y 9190   0.435   4.634   8.464 -0.1420  0.7663  1.3370
   93SAPS  C313 9191   0.315   4.790   8.550 -0.6313  0.7236  0.2862
   93SAPS  H13X 9192   0.362   4.747   8.640  1.3172 -0.9083 -1.3974
   93SAPS  H13Y 9193   0.213   4.746   8.548 -0.2470 -0.2317 -2.1594
   93SAPS  C314 9194   0.301   4.944   8.562 -0.2107 -0.0420 -0.2356
   93SAPS  H14X 9195   0.398   4.997   8.552  0.3521  0.5634  5.3233
   93SAPS  H14Y 9196   0.266   4.961   8.666 -0.4718 -1.3744 -0.0897
   93SAPS  C315 9197   0.178   4.996   8.482 -0.3563  0.1415 -0.2292
   93SAPS  H15X 9198   0.089   4.930   8.491  0.2394 -1.3085 -3.5252
   93SAPS  H15Y 9199   0.200   4.984   8.374  1.6456  1.7559 -0.0490
   93SAPS  C316 9200   0.140   5.139   8.509  0.4142 -0.1494  0.4487
   93SAPS  H16X 9201   0.121   5.156   8.617 -1.5964 -1.2043  0.3130
   93SAPS  H16Y 9202   0.044   5.150   8.456  2.1585 -0.4533 -3.0883
   93SAPS  C317 9203   0.232   5.243   8.444 -0.0814  0.4109  0.0140
   93SAPS  H17X 9204   0.246   5.199   8.343  1.2292 -0.5523  0.5824
   93SAPS  H17Y 9205   0.334   5.242   8.488 -0.7485 -0.1444  1.6216
   93SAPS  C318 9206   0.172   5.383   8.449 -0.4369  0.4517 -0.1453
   93SAPS  H18X 9207   0.190   5.436   8.545 -2.7392  4.5467 -1.7201
   93SAPS  H18Y 9208   0.062   5.370   8.436 -0.4632 -0.6728  1.0371
   93SAPS  H18Z 9209   0.214   5.441   8.364  0.0941 -2.0324 -1.7084
   94SAPS     N 9210   5.719   6.371   5.963 -0.4160  0.1016 -0.0729
   94SAPS   HN1 9211   5.819   6.345   5.950  0.0085  0.8914  1.4507
   94SAPS   HN2 9212   5.692   6.379   6.063  1.5961  2.2007  0.3831
   94SAPS   HN3 9213   5.662   6.293   5.924  0.0681  0.1081 -0.8290
   94SAPS   C12 9214   5.702   6.487   5.878 -0.7131  0.2086 -0.4400
   94SAPS  H12A 9215   5.741   6.452   5.784  0.5926 -1.8601  0.7812
   94SAPS   C13 9216   5.563   6.531   5.853  0.0067  0.5687  0.1015
   94SAPS  O13A 9217   5.468   6.465   5.908 -0.0926 -0.7563 -0.2356
   94SAPS  O13B 9218   5.542   6.633   5.790  0.0740  0.2299  0.3335
   94SAPS   C11 9219   5.799   6.597   5.938 -0.0995 -0.5065  0.1224
   94SAPS  H11A 9220   5.752   6.626   6.035  1.2852  0.1290  0.6380
   94SAPS  H11B 9221   5.811   6.684   5.870  2.0624 -0.7695  0.1149
   94SAPS     P 9222   6.043   6.634   5.994 -0.1778 -0.0854 -0.4075
   94SAPS   O13 9223   6.142   6.559   6.080  0.3841 -0.2538 -0.0695
   94SAPS   O14 9224   6.092   6.688   5.867 -0.6579  0.0732 -0.5198
   94SAPS   O12 9225   5.925   6.539   5.965  0.6919  0.5326 -0.2735
   94SAPS   O11 9226   5.978   6.740   6.098  0.2638 -0.8140  0.0446
   94SAPS    C1 9227   6.065   6.812   6.187 -0.2777  0.0011  0.0235
   94SAPS    HA 9228   6.172   6.809   6.154 -1.6751 -1.0957 -5.3261
   94SAPS    HB 9229   6.051   6.919   6.159  3.5789  0.1510 -2.0292
   94SAPS    C2 9230   6.028   6.774   6.333  0.0903  0.8853  0.1715
   94SAPS    HS 9231   5.919   6.751   6.333  0.5100 -1.3620 -0.0230
   94SAPS   O21 9232   6.038   6.889   6.414 -0.0422 -0.4387  0.7579
   94SAPS   C21 9233   5.958   6.904   6.522 -0.9383  0.3578  0.6995
   94SAPS   O22 9234   5.880   6.821   6.560 -0.3844  0.1900 -0.2468
   94SAPS   C22 9235   5.977   7.036   6.584 -0.2443  0.1095 -0.4981
   94SAPS   H2R 9236   6.051   7.095   6.526  0.1621  0.1710  0.0717
   94SAPS   H2S 9237   5.881   7.092   6.575 -0.5965 -0.5187 -0.7379
   94SAPS    C3 9238   6.103   6.644   6.390  0.6599 -0.5577  0.2870
   94SAPS    HX 9239   6.211   6.668   6.395  0.5237  0.1639 -0.0886
   94SAPS    HY 9240   6.082   6.564   6.315 -1.0913  1.2179 -1.2389
   94SAPS   O31 9241   6.047   6.601   6.514  0.0856 -0.6406 -0.3767
   94SAPS   C31 9242   5.930   6.540   6.517 -0.2097 -0.3536  0.6534
   94SAPS   O32 9243   5.867   6.498   6.419  0.2408 -0.0548 -1.1426
   94SAPS   C32 9244   5.896   6.529   6.671  1.0180  0.2945 -0.4617
   94SAPS   H2X 9245   5.855   6.426   6.680 -4.0011  1.9461 -1.6803
   94SAPS   H2Y 9246   5.799   6.578   6.689  0.6956 -0.9734  1.6185
   94SAPS   C23 9247   6.026   7.043   6.733  0.2284 -0.5976  0.0882
   94SAPS   H3R 9248   5.955   6.978   6.789 -1.6127  0.8900 -0.4197
   94SAPS   H3S 9249   6.026   7.147   6.773  2.1828 -1.1455  1.6761
   94SAPS   C24 9250   6.169   6.998   6.761 -0.6616 -0.3148  0.2690
   94SAPS   H4R 9251   6.225   7.091   6.739 -0.9043 -0.4797 -1.1114
   94SAPS   H4S 9252   6.213   6.911   6.707  1.1588  0.1419  0.9525
   94SAPS   C25 9253   6.197   6.972   6.903 -0.6043 -0.7622 -0.6607
   94SAPS   H5R 9254   6.108   7.000   6.961 -0.1851 -0.9090  0.0566
   94SAPS   C26 9255   6.313   6.925   6.961  0.1316  0.3703 -0.1923
   94SAPS   H6R 9256   6.305   6.900   7.067 -0.7634 -3.7880 -1.0577
   94SAPS   C27 9257   6.446   6.890   6.898  0.1633  0.0327 -0.1082
   94SAPS   H7R 9258   6.437   6.808   6.825  2.0909 -1.2447  1.0003
   94SAPS   H7S 9259   6.508   6.848   6.980  1.7766  2.2647 -0.0775
   94SAPS   C28 9260   6.514   7.012   6.835 -0.2907  0.0246  0.0825
   94SAPS   H8R 9261   6.545   7.095   6.901  0.2219 -1.5735  1.9321
   94SAPS   C29 9262   6.518   7.049   6.705  0.2121  0.9713  0.3224
   94SAPS   H9R 9263   6.554   7.149   6.678  0.9522  0.4894 -0.5384
   94SAPS  C210 9264   6.461   6.976   6.587 -0.2035  0.5348  0.0335
   94SAPS  H10R 9265   6.399   6.892   6.625 -2.4272  1.1384 -2.0255
   94SAPS  H10S 9266   6.548   6.930   6.535 -1.2041  1.1373 -2.2524
   94SAPS  C211 9267   6.379   7.065   6.488  0.2621 -0.0758 -0.1981
   94SAPS  H11R 9268   6.276   7.091   6.517  1.2388  2.3077  1.4990
   94SAPS  C212 9269   6.423   7.111   6.372  0.5476  0.3849  0.0890
   94SAPS  H12R 9270   6.353   7.168   6.309 -1.5024 -1.2382  0.8072
   94SAPS  C213 9271   6.560   7.096   6.323  0.1457 -0.2443 -0.0446
   94SAPS  H13R 9272   6.561   7.130   6.217 -1.3298  0.2499  0.0706
   94SAPS  H13S 9273   6.580   6.988   6.313 -2.4068 -0.6749 -1.5642
   94SAPS  C214 9274   6.662   7.194   6.387 -0.2515 -0.3143  0.5433
   94SAPS  H14R 9275   6.621   7.294   6.408 -2.7989 -1.6109  2.2146
   94SAPS  C215 9276   6.794   7.173   6.419 -0.4854  0.6460  0.3737
   94SAPS  H15R 9277   6.857   7.260   6.442 -0.0345  1.1465 -2.4491
   94SAPS  C216 9278   6.854   7.038   6.396 -0.8897 -0.0203 -0.4610
   94SAPS  H16R 9279   6.887   7.033   6.290 -1.6156 -0.2036 -0.6854
   94SAPS  H16S 9280   6.782   6.954   6.406 -0.4861 -0.3625 -0.4226
   94SAPS  C217 9281   6.982   7.007   6.477 -0.4354 -0.0671 -0.1827
   94SAPS  H17R 9282   7.053   7.091   6.460 -1.5699  0.8242 -0.6237
   94SAPS  H17S 9283   7.030   6.919   6.429 -0.5748 -0.8435  1.0593
   94SAPS  C218 9284   6.955   6.961   6.620 -0.0323  0.1337 -0.5156
   94SAPS  H18R 9285   6.892   7.045   6.656  0.3627 -0.4164  1.6420
   94SAPS  H18S 9286   7.051   6.958   6.676  0.4939 -0.1166 -1.4170
   94SAPS  C219 9287   6.875   6.829   6.655 -0.2078 -0.3706  0.6914
   94SAPS  H19R 9288   6.782   6.813   6.596  0.0405 -2.1320  0.7233
   94SAPS  H19S 9289   6.857   6.834   6.764 -1.4325 -0.1780  0.4908
   94SAPS  C220 9290   6.967   6.707   6.627  0.5658 -0.2616 -0.0716
   94SAPS  H20R 9291   7.064   6.729   6.676  0.3310  0.2405  0.1763
   94SAPS  H20S 9292   6.983   6.703   6.517 -1.3045  0.6723 -0.4181
   94SAPS  H20T 9293   6.942   6.615   6.683  1.0527  0.2719  1.0644
   94SAPS   C33 9294   6.002   6.573   6.781 -0.8763 -0.5023 -0.1943
   94SAPS   H3X 9295   6.033   6.678   6.759  0.7353 -1.0539 -0.6562
   94SAPS   H3Y 9296   6.087   6.504   6.766  0.0331  1.0046 -2.7848
   94SAPS   C34 9297   5.955   6.583   6.931  0.2434  0.2456  0.4428
   94SAPS   H4X 9298   5.921   6.480   6.953 -0.5183  0.8475  2.2895
   94SAPS   H4Y 9299   5.859   6.640   6.931  1.2672  2.1065 -1.0298
   94SAPS   C35 9300   6.049   6.647   7.035  0.2475  0.1399 -0.5436
   94SAPS   H5X 9301   6.056   6.757   7.029 -1.2891  0.4627  2.0246
   94SAPS   H5Y 9302   6.152   6.608   7.019  0.0814  0.3178 -2.1631
   94SAPS   C36 9303   6.003   6.617   7.184 -0.1413  0.0610  0.2572
   94SAPS   H6X 9304   6.027   6.515   7.219 -1.1955 -0.0206  0.7753
   94SAPS   H6Y 9305   5.892   6.613   7.191 -0.1251  1.4900  2.4289
   94SAPS   C37 9306   6.074   6.704   7.282 -0.1512  0.2416 -0.6686
   94SAPS   H7X 9307   6.047   6.811   7.269 -0.6216  0.1936 -0.1346
   94SAPS   H7Y 9308   6.184   6.704   7.266 -0.1397 -0.2449 -0.6165
   94SAPS   C38 9309   6.045   6.647   7.419 -0.3244  0.2392 -0.1234
   94SAPS   H8X 9310   6.103   6.556   7.442  1.4693  1.2437 -0.4825
   94SAPS   H8Y 9311   5.938   6.616   7.418 -0.6288  1.2293 -0.6529
   94SAPS   C39 9312   6.069   6.751   7.533 -0.2838 -0.0077 -0.3107
   94SAPS   H9X 9313   6.031   6.850   7.500 -0.1617 -0.1880 -0.9901
   94SAPS   H9Y 9314   6.177   6.773   7.544  0.4723 -3.7833  2.2051
   94SAPS  C310 9315   6.011   6.720   7.667  0.7369  0.3195 -0.5835
   94SAPS  H10X 9316   6.051   6.620   7.692  0.5211 -0.2941 -2.5595
   94SAPS  H10Y 9317   5.900   6.708   7.663  0.7312  0.5360 -1.2502
   94SAPS  C311 9318   6.029   6.827   7.764  0.0815  0.1178 -0.0547
   94SAPS  H11X 9319   6.004   6.926   7.720  1.5235  0.0259 -1.1801
   94SAPS  H11Y 9320   6.138   6.835   7.784  0.0740  1.4997 -0.4736
   94SAPS  C312 9321   5.955   6.815   7.901 -0.6696  0.2516  0.0421
   94SAPS  H12X 9322   6.005   6.730   7.952 -1.5625  0.9625  2.2457
   94SAPS  H12Y 9323   5.847   6.794   7.881 -0.5634  1.5423 -2.2818
   94SAPS  C313 9324   5.965   6.945   7.984 -0.4733 -0.1158 -0.0653
   94SAPS  H13X 9325   5.936   7.035   7.925  0.8467  0.4422  0.0975
   94SAPS  H13Y 9326   6.069   6.966   8.018 -1.1615  1.6134  1.1430
   94SAPS  C314 9327   5.878   6.949   8.110 -0.4698 -0.3492  0.3210
   94SAPS  H14X 9328   5.772   6.931   8.083 -0.1596  0.3515 -1.5389
   94SAPS  H14Y 9329   5.875   7.051   8.155 -0.4649 -0.6926  1.1185
   94SAPS  C315 9330   5.926   6.846   8.213 -0.0597  0.7163 -0.0928
   94SAPS  H15X 9331   6.031   6.813   8.195 -0.3663 -2.3360  2.7585
   94SAPS  H15Y 9332   5.874   6.752   8.185 -0.3062  0.8325 -0.0193
   94SAPS  C316 9333   5.893   6.877   8.355  0.6161  0.0591  0.7890
   94SAPS  H16X 9334   5.875   6.780   8.407 -1.5410 -0.8502 -1.4339
   94SAPS  H16Y 9335   5.792   6.921   8.364  0.6086  0.4574 -0.8115
   94SAPS  C317 9336   6.002   6.956   8.421 -0.0401  0.5986 -0.0941
   94SAPS  H17X 9337   6.017   7.047   8.359 -2.5633  1.2453  0.1297
   94SAPS  H17Y 9338   6.085   6.883   8.430 -1.0339 -0.4249  1.4192
   94SAPS  C318 9339   5.960   7.009   8.560  0.1008  0.3073  0.3148
   94SAPS  H18X 9340   5.952   6.925   8.633  1.7413 -0.5864 -0.4720
   94SAPS  H18Y 9341   5.865   7.063   8.543 -1.0405 -1.8688 -0.6755
   94SAPS  H18Z 9342   6.033   7.079   8.607  0.0633 -0.3513  1.4038
   95SAPS     N 9343   2.464   5.511   6.078  0.1165  0.5175 -0.4601
   95SAPS   HN1 9344   2.514   5.538   5.991 -1.5217  1.0642 -1.2733
   95SAPS   HN2 9345   2.534   5.481   6.149 -0.6321  1.5173  0.7330
   95SAPS   HN3 9346   2.402   5.430   6.061 -1.3184  1.5154 -0.1307
   95SAPS   C12 9347   2.390   5.628   6.134 -1.1962  0.2022  0.5708
   95SAPS  H12A 9348   2.339   5.670   6.049 -0.3784  0.4056  0.1627
   95SAPS   C13 9349   2.297   5.599   6.254 -0.1989 -0.3561  0.1615
   95SAPS  O13A 9350   2.317   5.494   6.324  0.2240 -0.4637  0.1646
   95SAPS  O13B 9351   2.234   5.693   6.308  0.0479 -1.0030 -0.2584
   95SAPS   C11 9352   2.500   5.742   6.171 -0.1602  0.1020 -0.1912
   95SAPS  H11A 9353   2.560   5.682   6.244  0.1249  2.0243  1.2294
   95SAPS  H11B 9354   2.438   5.824   6.214 -1.4330 -2.7321  4.0890
   95SAPS     P 9355   2.702   5.866   6.072 -0.1643  0.1345  0.3994
   95SAPS   O13 9356   2.811   5.791   6.006  0.2706  0.3308 -0.2267
   95SAPS   O14 9357   2.678   6.000   6.017  0.5166 -0.3033 -0.4238
   95SAPS   O12 9358   2.573   5.778   6.052  0.0274 -0.0723  0.4171
   95SAPS   O11 9359   2.730   5.870   6.222 -0.1857 -0.3343 -0.5192
   95SAPS    C1 9360   2.840   5.786   6.272  0.5632 -0.5816  0.3592
   95SAPS    HA 9361   2.819   5.678   6.257  0.9867 -0.6379  0.1518
   95SAPS    HB 9362   2.936   5.811   6.222  1.7704 -2.2771  1.6840
   95SAPS    C2 9363   2.843   5.805   6.433  0.3527 -0.0395 -0.3237
   95SAPS    HS 9364   2.900   5.720   6.475 -0.8358 -1.1134 -0.8509
   95SAPS   O21 9365   2.712   5.813   6.487 -0.2868 -0.7677  0.3988
   95SAPS   C21 9366   2.653   5.690   6.513 -0.6334 -1.1522  0.0588
   95SAPS   O22 9367   2.696   5.580   6.487 -0.0595 -0.0647 -0.5392
   95SAPS   C22 9368   2.519   5.724   6.580  0.4637 -0.0813  0.2043
   95SAPS   H2R 9369   2.479   5.789   6.499  1.5500  0.6171  0.1972
   95SAPS   H2S 9370   2.457   5.632   6.583  0.5493 -0.1777 -0.7107
   95SAPS    C3 9371   2.911   5.944   6.468  0.5927  0.0532  0.3275
   95SAPS    HX 9372   2.845   6.018   6.418  1.0468  0.5989  0.5276
   95SAPS    HY 9373   3.008   5.955   6.414  2.9087 -2.3057  3.5643
   95SAPS   O31 9374   2.943   5.968   6.608  0.0671  0.0837 -0.8526
   95SAPS   C31 9375   2.856   6.043   6.668 -0.3832 -0.4177  0.5534
   95SAPS   O32 9376   2.775   6.114   6.613  0.3172 -0.2075  0.3786
   95SAPS   C32 9377   2.891   6.046   6.822 -0.5316 -0.3437  0.3513
   95SAPS   H2X 9378   2.949   6.141   6.831 -0.0229 -0.7075  0.9847
   95SAPS   H2Y 9379   2.954   5.957   6.842  0.5775  0.3717  0.1644
   95SAPS   C23 9380   2.520   5.815   6.704 -0.0879 -0.5032  0.8269
   95SAPS   H3R 9381   2.449   5.898   6.684  1.3066  0.4667 -0.2668
   95SAPS   H3S 9382   2.621   5.859   6.714 -0.5309  1.7007 -2.8027
   95SAPS   C24 9383   2.477   5.737   6.820 -0.3307  0.3401 -0.4391
   95SAPS   H4R 9384   2.387   5.675   6.800  1.6484 -2.7344 -0.4552
   95SAPS   H4S 9385   2.442   5.813   6.893 -1.5496 -0.1178 -0.5260
   95SAPS   C25 9386   2.581   5.650   6.881 -0.9689  0.9820 -0.0586
   95SAPS   H5R 9387   2.649   5.605   6.807 -3.3727 -2.2060 -0.5601
   95SAPS   C26 9388   2.621   5.644   7.008 -0.6449  0.1081 -0.1815
   95SAPS   H6R 9389   2.706   5.581   7.037 -0.9070 -0.0464  0.2614
   95SAPS   C27 9390   2.561   5.708   7.133 -0.1976 -0.4150 -0.5091
   95SAPS   H7R 9391   2.492   5.794   7.120 -0.3309 -0.3699  0.4022
   95SAPS   H7S 9392   2.644   5.746   7.198 -1.8369  3.0530 -0.1915
   95SAPS   C28 9393   2.485   5.593   7.193 -0.1367  0.4999 -0.3688
   95SAPS   H8R 9394   2.412   5.540   7.130 -0.5719  0.2612  0.3200
   95SAPS   C29 9395   2.511   5.535   7.313 -0.6013 -0.7250 -0.2873
   95SAPS   H9R 9396   2.440   5.459   7.348 -3.1250  2.0105  0.9356
   95SAPS  C210 9397   2.616   5.577   7.423  0.2993  0.2532 -0.4150
   95SAPS  H10R 9398   2.670   5.670   7.396  1.8369  0.1268  1.8764
   95SAPS  H10S 9399   2.697   5.502   7.437  0.1703  0.4979  2.2968
   95SAPS  C211 9400   2.550   5.613   7.555 -0.9541  0.7553  0.9425
   95SAPS  H11R 9401   2.474   5.691   7.540  0.4752  2.2865  1.3135
   95SAPS  C212 9402   2.574   5.557   7.674  0.3678  0.3187  0.1005
   95SAPS  H12R 9403   2.523   5.590   7.766  0.4460  1.5728 -0.2954
   95SAPS  C213 9404   2.668   5.447   7.701 -0.1604 -1.4535  0.6076
   95SAPS  H13R 9405   2.666   5.430   7.811  1.5546  0.2540  0.9561
   95SAPS  H13S 9406   2.768   5.492   7.685 -0.0956 -2.1099 -1.0725
   95SAPS  C214 9407   2.650   5.313   7.633 -0.1337 -0.1927 -0.2105
   95SAPS  H14R 9408   2.599   5.305   7.535  2.1414 -0.6701 -1.4328
   95SAPS  C215 9409   2.702   5.198   7.672  0.5628  0.3839 -0.3954
   95SAPS  H15R 9410   2.675   5.106   7.618  3.4257 -1.9067  1.6997
   95SAPS  C216 9411   2.785   5.164   7.797  0.3006 -0.0522  0.1082
   95SAPS  H16R 9412   2.866   5.239   7.808  1.8696 -1.6448 -0.1120
   95SAPS  H16S 9413   2.843   5.072   7.776  0.2072  0.0105 -0.4474
   95SAPS  C217 9414   2.704   5.152   7.921 -0.7745  0.1204 -0.2996
   95SAPS  H17R 9415   2.613   5.089   7.909 -1.2649  0.9078 -0.7970
   95SAPS  H17S 9416   2.659   5.253   7.930  1.2998  1.0680 -0.1194
   95SAPS  C218 9417   2.779   5.115   8.048 -0.3289 -0.1657  1.0457
   95SAPS  H18R 9418   2.834   5.209   8.072  0.5084 -0.8228  1.8074
   95SAPS  H18S 9419   2.862   5.043   8.030 -2.0570 -1.6372 -1.7931
   95SAPS  C219 9420   2.702   5.061   8.169 -0.6391 -0.4579  0.0679
   95SAPS  H19R 9421   2.651   4.969   8.132  0.5064 -1.9376  2.0145
   95SAPS  H19S 9422   2.634   5.138   8.211 -0.3845  0.5102 -1.2320
   95SAPS  C220 9423   2.791   5.010   8.277  0.0755 -0.0151  0.0375
   95SAPS  H20R 9424   2.847   4.924   8.236 -2.6959 -1.2492 -1.4278
   95SAPS  H20S 9425   2.721   4.972   8.355 -1.0401  0.3602 -0.7462
   95SAPS  H20T 9426   2.856   5.088   8.322 -2.5617  1.6698  1.2230
   95SAPS   C33 9427   2.781   6.057   6.932  0.0721  0.0124  0.2823
   95SAPS   H3X 9428   2.695   5.989   6.917 -0.1899  0.8341 -2.4883
   95SAPS   H3Y 9429   2.749   6.163   6.925  1.0331  0.2512 -1.0322
   95SAPS   C34 9430   2.849   6.026   7.070 -0.5502 -0.4047 -0.8691
   95SAPS   H4X 9431   2.940   6.090   7.081  0.2637 -0.6318 -4.7722
   95SAPS   H4Y 9432   2.880   5.920   7.056 -0.4752 -0.3885 -0.8313
   95SAPS   C35 9433   2.754   6.044   7.191  0.4775 -0.4764 -0.3427
   95SAPS   H5X 9434   2.672   5.968   7.192 -1.4382  1.4665  2.1894
   95SAPS   H5Y 9435   2.701   6.141   7.180  0.1883 -0.7175 -1.2332
   95SAPS   C36 9436   2.829   6.024   7.324 -0.0464 -0.2970 -0.4734
   95SAPS   H6X 9437   2.885   6.117   7.347  1.6306 -1.3509 -0.1579
   95SAPS   H6Y 9438   2.892   5.933   7.327 -0.8206 -0.8247  1.3462
   95SAPS   C37 9439   2.721   5.998   7.434 -0.8325 -0.4390 -0.4049
   95SAPS   H7X 9440   2.670   5.900   7.439 -1.3588 -0.1344  0.5783
   95SAPS   H7Y 9441   2.645   6.078   7.423 -0.7818 -0.2689  0.3944
   95SAPS   C38 9442   2.787   6.010   7.572  0.4033  0.6736 -0.1686
   95SAPS   H8X 9443   2.821   6.114   7.585 -0.0428  0.8152 -0.1114
   95SAPS   H8Y 9444   2.872   5.939   7.585 -0.6009 -0.2856  1.6086
   95SAPS   C39 9445   2.687   5.970   7.686  0.5180 -0.2292  0.1766
   95SAPS   H9X 9446   2.648   5.867   7.673 -1.6397  0.5771 -0.0919
   95SAPS   H9Y 9447   2.599   6.037   7.679  1.6203  1.2384 -0.1786
   95SAPS  C310 9448   2.739   5.980   7.834  0.5966 -0.7605 -0.4661
   95SAPS  H10X 9449   2.795   6.073   7.856 -0.9377  0.3648 -1.1522
   95SAPS  H10Y 9450   2.804   5.890   7.842  0.4979 -0.7541  0.4545
   95SAPS  C311 9451   2.626   5.954   7.929 -0.2407  0.4609  0.1564
   95SAPS  H11X 9452   2.675   5.904   8.015 -0.7593 -0.8206 -0.2679
   95SAPS  H11Y 9453   2.572   5.872   7.877  0.5925 -0.6956  1.0522
   95SAPS  C312 9454   2.542   6.074   7.971  0.6352  0.1445 -0.0140
   95SAPS  H12X 9455   2.452   6.034   8.021  0.6249 -0.5000 -0.5309
   95SAPS  H12Y 9456   2.517   6.138   7.883  2.3862  1.1947  0.2021
   95SAPS  C313 9457   2.601   6.164   8.075  0.5718 -0.3936  0.6927
   95SAPS  H13X 9458   2.518   6.231   8.105  1.1602  0.5366  0.2704
   95SAPS  H13Y 9459   2.685   6.223   8.032  0.0918  0.3652  0.7774
   95SAPS  C314 9460   2.638   6.099   8.206 -0.2211  0.0287  0.4668
   95SAPS  H14X 9461   2.687   6.168   8.277 -1.9882  2.4209 -0.5012
   95SAPS  H14Y 9462   2.712   6.018   8.187 -0.3802 -0.4200  1.6877
   95SAPS  C315 9463   2.520   6.040   8.287 -0.4027 -0.5937  0.6442
   95SAPS  H15X 9464   2.511   5.939   8.243 -0.5720 -0.1848 -0.2844
   95SAPS  H15Y 9465   2.431   6.102   8.261 -0.2288 -0.9879 -1.0049
   95SAPS  C316 9466   2.547   6.041   8.439  0.3262  0.1539 -0.7187
   95SAPS  H16X 9467   2.450   6.012   8.486  1.2132  2.0538  2.5917
   95SAPS  H16Y 9468   2.573   6.145   8.466 -2.2760  0.9339 -1.0043
   95SAPS  C317 9469   2.659   5.953   8.496 -0.4731  0.4473 -0.0355
   95SAPS  H17X 9470   2.754   5.958   8.438  1.0550  0.3899  2.3376
   95SAPS  H17Y 9471   2.634   5.846   8.485  0.1189  0.1867  1.0279
   95SAPS  C318 9472   2.697   5.960   8.650  0.5110 -0.1462 -0.2113
   95SAPS  H18X 9473   2.623   6.028   8.697  0.4504  0.8161 -1.6407
   95SAPS  H18Y 9474   2.800   5.998   8.664  0.5879  0.3718 -1.8637
   95SAPS  H18Z 9475   2.690   5.855   8.684 -0.9512 -0.2775 -0.8242
   96SAPS     N 9476   4.324   6.550   6.036  0.4001  0.4303 -0.3209
   96SAPS   HN1 9477   4.416   6.542   6.083  0.2527 -3.0038 -0.3491
   96SAPS   HN2 9478   4.305   6.454   6.000  1.0931  0.1556  0.0268
   96SAPS   HN3 9479   4.340   6.622   5.963 -2.8984  2.9921  1.2303
   96SAPS   C12 9480   4.210   6.590   6.122  0.4167 -0.8306  0.3349
   96SAPS  H12A 9481   4.237   6.691   6.147  1.7253 -0.7231 -1.3659
   96SAPS   C13 9482   4.073   6.607   6.051 -0.1701  0.2395 -0.7994
   96SAPS  O13A 9483   4.067   6.594   5.925 -0.1352  0.3278  0.4466
   96SAPS  O13B 9484   3.974   6.641   6.122  0.5399 -0.2841  0.0088
   96SAPS   C11 9485   4.194   6.501   6.251  0.5817 -0.0589  0.5430
   96SAPS  H11A 9486   4.188   6.393   6.223 -0.3076  0.0212  0.3935
   96SAPS  H11B 9487   4.099   6.530   6.301 -1.5842 -4.0924 -0.7624
   96SAPS     P 9488   4.333   6.513   6.471 -0.0677  0.1739  0.2788
   96SAPS   O13 9489   4.394   6.382   6.505  0.4851  0.0981  0.5648
   96SAPS   O14 9490   4.418   6.630   6.513  0.0044 -0.2601  0.5287
   96SAPS   O12 9491   4.310   6.522   6.321  0.3370 -0.3123 -0.2902
   96SAPS   O11 9492   4.191   6.526   6.534 -0.2227 -0.3865 -0.2809
   96SAPS    C1 9493   4.138   6.652   6.572 -0.1587 -0.1794 -0.6428
   96SAPS    HA 9494   4.144   6.734   6.498  0.1273  0.7198  0.3665
   96SAPS    HB 9495   4.031   6.628   6.591 -0.2655  1.1796  0.5763
   96SAPS    C2 9496   4.190   6.694   6.714 -0.7120 -0.6859 -0.0814
   96SAPS    HS 9497   4.296   6.723   6.698 -1.3835  1.5587 -0.8282
   96SAPS   O21 9498   4.169   6.588   6.813  0.4776 -0.4981 -0.1212
   96SAPS   C21 9499   4.271   6.541   6.871  0.0311  0.0828 -0.0233
   96SAPS   O22 9500   4.382   6.591   6.875  0.0213  0.1475 -0.4565
   96SAPS   C22 9501   4.221   6.424   6.954 -0.3695 -0.0065 -0.6738
   96SAPS   H2R 9502   4.182   6.340   6.892  1.2072 -1.2672 -0.0215
   96SAPS   H2S 9503   4.314   6.389   7.004 -1.0624  0.1781  0.7985
   96SAPS    C3 9504   4.115   6.821   6.755  0.1984  0.6791 -0.6363
   96SAPS    HX 9505   4.006   6.799   6.761  0.0979  1.5003  1.1943
   96SAPS    HY 9506   4.122   6.904   6.681 -0.7409  1.1683 -0.2032
   96SAPS   O31 9507   4.145   6.866   6.886  0.3181 -0.0206  0.5210
   96SAPS   C31 9508   4.255   6.940   6.884 -0.3883  0.1379 -1.1832
   96SAPS   O32 9509   4.326   6.972   6.793  0.0692  0.3581 -0.2954
   96SAPS   C32 9510   4.291   6.974   7.028  0.1983  0.7286  0.0756
   96SAPS   H2X 9511   4.377   7.045   7.038 -0.1970  1.5017 -1.5962
   96SAPS   H2Y 9512   4.330   6.881   7.074 -2.9816 -1.2293 -0.8365
   96SAPS   C23 9513   4.119   6.464   7.067 -0.6235  0.0406  0.1539
   96SAPS   H3R 9514   4.108   6.385   7.144 -0.9633  0.6638  0.7613
   96SAPS   H3S 9515   4.025   6.482   7.012 -0.2237 -1.0833 -0.9212
   96SAPS   C24 9516   4.158   6.592   7.141  0.0010  0.6464 -0.2422
   96SAPS   H4R 9517   4.174   6.666   7.059  1.9533 -0.8083 -1.2578
   96SAPS   H4S 9518   4.253   6.573   7.194  0.6166 -1.4288 -1.9436
   96SAPS   C25 9519   4.043   6.626   7.228  0.1197 -0.2797 -0.4896
   96SAPS   H5R 9520   3.951   6.636   7.170  0.2654 -1.5208 -0.9796
   96SAPS   C26 9521   4.045   6.651   7.363 -0.3055 -0.8527 -0.3374
   96SAPS   H6R 9522   3.951   6.675   7.414  0.1890 -0.6640  0.5122
   96SAPS   C27 9523   4.162   6.640   7.453 -0.0812  0.2320 -0.1264
   96SAPS   H7R 9524   4.134   6.678   7.554 -0.5309 -2.5014  0.8589
   96SAPS   H7S 9525   4.235   6.708   7.405  0.6050  0.5211  1.2784
   96SAPS   C28 9526   4.222   6.504   7.467  0.4477  0.8093  0.4047
   96SAPS   H8R 9527   4.150   6.423   7.489 -0.3020  0.5251 -2.6692
   96SAPS   C29 9528   4.345   6.461   7.450  0.0914  0.2238  0.4958
   96SAPS   H9R 9529   4.366   6.355   7.469 -1.2379 -0.4524 -1.4511
   96SAPS  C210 9530   4.461   6.554   7.410  0.3700 -0.4947 -0.9312
   96SAPS  H10R 9531   4.480   6.644   7.473 -1.1177  0.7957 -2.2497
   96SAPS  H10S 9532   4.426   6.611   7.321  0.6070  1.9476  0.4354
   96SAPS  C211 9533   4.595   6.494   7.367  0.7861 -0.0855 -1.3743
   96SAPS  H11R 9534   4.590   6.432   7.277 -0.6660 -0.0671 -1.3274
   96SAPS  C212 9535   4.714   6.517   7.422 -0.0720 -0.3888 -0.0102
   96SAPS  H12R 9536   4.806   6.477   7.375  0.8051  0.0116  1.3228
   96SAPS  C213 9537   4.742   6.598   7.543 -0.2504  0.1983  0.2134
   96SAPS  H13R 9538   4.693   6.696   7.527 -0.8043 -0.5463 -3.6593
   96SAPS  H13S 9539   4.847   6.619   7.572  0.1576 -1.4523  0.0452
   96SAPS  C214 9540   4.677   6.537   7.668  0.2489 -0.3185 -0.9190
   96SAPS  H14R 9541   4.603   6.460   7.641  0.7909 -0.1909 -2.9054
   96SAPS  C215 9542   4.716   6.553   7.794  0.5679 -0.3585  0.3804
   96SAPS  H15R 9543   4.650   6.536   7.880  1.3357  2.2163  1.5954
   96SAPS  C216 9544   4.827   6.650   7.835 -0.1342 -0.6706  0.3327
   96SAPS  H16R 9545   4.818   6.744   7.776 -4.4684  0.0921  1.8114
   96SAPS  H16S 9546   4.929   6.615   7.810  0.3920  1.1672 -0.1989
   96SAPS  C217 9547   4.811   6.674   7.988  0.3442 -0.2771  0.4242
   96SAPS  H17R 9548   4.704   6.692   8.013  0.0392 -0.8239 -0.4415
   96SAPS  H17S 9549   4.874   6.760   8.019  3.2486 -1.9018 -0.6146
   96SAPS  C218 9550   4.872   6.563   8.088  0.5821  0.2949  0.1088
   96SAPS  H18R 9551   4.980   6.544   8.068  0.5305 -0.5598  0.6076
   96SAPS  H18S 9552   4.819   6.467   8.076  0.2442  0.6090 -0.9893
   96SAPS  C219 9553   4.867   6.616   8.232  0.2767  0.5018 -1.2464
   96SAPS  H19R 9554   4.767   6.663   8.244  0.6216  1.1747 -0.9299
   96SAPS  H19S 9555   4.943   6.695   8.250  2.7517 -1.9697 -0.0400
   96SAPS  C220 9556   4.892   6.510   8.336  0.2612  0.5704  0.2373
   96SAPS  H20R 9557   4.957   6.429   8.297 -3.1687 -1.8786 -0.9239
   96SAPS  H20S 9558   4.801   6.453   8.365  1.1535 -1.7439 -1.2084
   96SAPS  H20T 9559   4.934   6.554   8.429  2.2683 -0.0488 -0.3301
   96SAPS   C33 9560   4.178   7.026   7.128  0.4198 -0.2634 -0.6389
   96SAPS   H3X 9561   4.098   6.949   7.128 -1.4596  1.5974 -0.3660
   96SAPS   H3Y 9562   4.152   7.129   7.095  1.9488  0.1691 -0.5561
   96SAPS   C34 9563   4.232   7.043   7.273 -0.1875 -0.2809  0.2901
   96SAPS   H4X 9564   4.264   6.947   7.317 -3.1838 -0.3961  2.4492
   96SAPS   H4Y 9565   4.147   7.074   7.337  1.6540 -0.1089  2.7887
   96SAPS   C35 9566   4.354   7.135   7.293  0.6449 -0.3554 -0.4708
   96SAPS   H5X 9567   4.334   7.229   7.237 -1.1359 -0.5922 -0.2994
   96SAPS   H5Y 9568   4.440   7.091   7.237  1.4823  3.1592 -2.2376
   96SAPS   C36 9569   4.393   7.153   7.442 -0.2920  0.0867 -0.4338
   96SAPS   H6X 9570   4.320   7.222   7.488 -1.0991 -1.8908  1.4059
   96SAPS   H6Y 9571   4.498   7.190   7.437 -0.6642  1.7448  2.1389
   96SAPS   C37 9572   4.393   7.022   7.517 -0.3283  0.1145 -0.6546
   96SAPS   H7X 9573   4.461   6.944   7.476  0.7076  1.2963 -1.2284
   96SAPS   H7Y 9574   4.286   6.991   7.517 -0.4139  0.1148  1.9562
   96SAPS   C38 9575   4.437   7.042   7.661 -0.3253  0.1037  0.4612
   96SAPS   H8X 9576   4.380   7.123   7.713 -1.4954 -0.9158  0.8299
   96SAPS   H8Y 9577   4.544   7.071   7.658 -0.2901  0.1106  1.4807
   96SAPS   C39 9578   4.414   6.911   7.734 -0.4464  0.3385  0.3667
   96SAPS   H9X 9579   4.476   6.829   7.693 -1.4381  0.1254 -0.7537
   96SAPS   H9Y 9580   4.320   6.867   7.694  1.2636 -0.3416 -3.3021
   96SAPS  C310 9581   4.410   6.931   7.885 -0.2274  0.0388 -0.2344
   96SAPS  H10X 9582   4.317   6.983   7.918 -0.5665  0.8793 -2.3318
   96SAPS  H10Y 9583   4.501   6.994   7.897 -0.1899  0.0135 -0.3845
   96SAPS  C311 9584   4.428   6.800   7.952  0.2575  0.0329  0.9542
   96SAPS  H11X 9585   4.534   6.774   7.934 -0.0283  0.0640 -1.0036
   96SAPS  H11Y 9586   4.380   6.713   7.903  2.1114 -1.0062  0.8801
   96SAPS  C312 9587   4.386   6.799   8.096  0.2004  0.0825  0.4531
   96SAPS  H12X 9588   4.277   6.783   8.111  0.8075 -3.5443  2.0412
   96SAPS  H12Y 9589   4.419   6.894   8.143 -2.0999  0.3850  1.5953
   96SAPS  C313 9590   4.436   6.666   8.166  0.3405 -0.7771  0.6901
   96SAPS  H13X 9591   4.530   6.620   8.129  1.1202  1.5383 -0.4047
   96SAPS  H13Y 9592   4.351   6.596   8.152  0.2885 -0.9118  1.6499
   96SAPS  C314 9593   4.432   6.687   8.318 -0.3772  0.4682  1.2703
   96SAPS  H14X 9594   4.340   6.737   8.354 -0.5652 -0.0797  1.5586
   96SAPS  H14Y 9595   4.514   6.759   8.341  1.4279 -0.3534 -1.9752
   96SAPS  C315 9596   4.443   6.550   8.388  0.0334 -0.4006  0.3386
   96SAPS  H15X 9597   4.547   6.515   8.367 -0.1517  0.4164 -2.3787
   96SAPS  H15Y 9598   4.361   6.487   8.348 -1.2782  2.3844 -1.7773
   96SAPS  C316 9599   4.416   6.554   8.537 -0.1334  0.5849  0.3766
   96SAPS  H16X 9600   4.419   6.446   8.563 -2.9379  0.1987 -0.5806
   96SAPS  H16Y 9601   4.311   6.575   8.567  0.1000 -0.4678  2.0437
   96SAPS  C317 9602   4.516   6.632   8.623 -0.3326 -0.3652  0.6063
   96SAPS  H17X 9603   4.526   6.739   8.592 -1.7608 -0.5603 -0.6651
   96SAPS  H17Y 9604   4.617   6.588   8.607 -0.8786 -1.3878 -0.1425
   96SAPS  C318 9605   4.490   6.623   8.770 -0.0271 -0.8687 -0.7439
   96SAPS  H18X 9606   4.400   6.684   8.792  1.4284  1.9789 -2.1205
   96SAPS  H18Y 9607   4.571   6.675   8.826  0.0670  0.2530 -1.8546
   96SAPS  H18Z 9608   4.464   6.520   8.801 -1.9890 -0.1715  0.1163
   97SAPS     N 9609   6.114   3.655   6.260  0.0086  0.4542 -0.0839
   97SAPS   HN1 9610   6.202   3.711   6.271  0.2141 -0.0939  1.3738
   97SAPS   HN2 9611   6.075   3.644   6.356 -1.1458  1.7286 -0.3686
   97SAPS   HN3 9612   6.130   3.561   6.220  0.9782 -0.2121  1.7481
   97SAPS   C12 9613   6.008   3.729   6.190  0.6190  0.8505 -0.5520
   97SAPS  H12A 9614   5.962   3.797   6.261  0.7040 -0.7784  1.1509
   97SAPS   C13 9615   6.051   3.809   6.061 -0.0304  0.1350  0.5893
   97SAPS  O13A 9616   6.170   3.812   6.019  0.3843 -0.3653 -0.0379
   97SAPS  O13B 9617   5.951   3.858   5.995 -0.1718  0.3469 -0.1488
   97SAPS   C11 9618   5.896   3.629   6.135 -0.3109  0.5207 -0.1716
   97SAPS  H11A 9619   5.943   3.563   6.059 -1.6732  0.3809 -0.9174
   97SAPS  H11B 9620   5.813   3.688   6.092 -0.5441  1.9143  1.9961
   97SAPS     P 9621   5.704   3.469   6.215  0.1246 -0.1760 -0.0225
   97SAPS   O13 9622   5.677   3.451   6.074  0.5758  1.0068  0.5404
   97SAPS   O14 9623   5.683   3.355   6.304  0.6970  0.5562 -0.7640
   97SAPS   O12 9624   5.852   3.535   6.238 -0.1608 -0.1797 -0.0766
   97SAPS   O11 9625   5.619   3.593   6.252 -0.5819  0.3435  0.2937
   97SAPS    C1 9626   5.636   3.679   6.363  0.2085 -0.1775 -0.1937
   97SAPS    HA 9627   5.740   3.680   6.404  0.1978  1.0733 -0.1764
   97SAPS    HB 9628   5.620   3.782   6.325  0.0329 -0.2942 -0.4341
   97SAPS    C2 9629   5.525   3.672   6.471  0.6208  0.6970 -0.1476
   97SAPS    HS 9630   5.565   3.734   6.554 -1.9276  1.0823  0.8826
   97SAPS   O21 9631   5.497   3.536   6.517  0.4466 -0.4167 -0.2061
   97SAPS   C21 9632   5.596   3.482   6.584 -0.0803  0.9157  0.4226
   97SAPS   O22 9633   5.707   3.526   6.606 -0.4812  0.2936 -0.4716
   97SAPS   C22 9634   5.535   3.341   6.630  0.1855  0.3441 -0.2233
   97SAPS   H2R 9635   5.425   3.356   6.635  0.2689  1.5705 -1.4414
   97SAPS   H2S 9636   5.560   3.270   6.549 -0.5955 -1.7635  1.2837
   97SAPS    C3 9637   5.394   3.742   6.428 -0.5123 -0.3324  0.7155
   97SAPS    HX 9638   5.347   3.694   6.339  2.5610 -0.0827 -1.2200
   97SAPS    HY 9639   5.400   3.845   6.387 -2.3543 -1.1153 -1.7582
   97SAPS   O31 9640   5.304   3.751   6.536  0.5121  0.4975 -0.2385
   97SAPS   C31 9641   5.212   3.658   6.548 -0.5698  1.1017  0.5755
   97SAPS   O32 9642   5.197   3.564   6.466  0.2686  0.3964 -0.7020
   97SAPS   C32 9643   5.121   3.686   6.663 -1.0949  0.3091 -0.3990
   97SAPS   H2X 9644   5.038   3.613   6.673 -0.1054 -0.9949 -1.3392
   97SAPS   H2Y 9645   5.085   3.791   6.653  0.4376  0.7860 -1.4251
   97SAPS   C23 9646   5.588   3.289   6.769  0.3607  0.1198 -0.1991
   97SAPS   H3R 9647   5.690   3.328   6.789  0.7519 -0.5911 -0.7718
   97SAPS   H3S 9648   5.599   3.179   6.760  0.5097  0.2141 -1.2976
   97SAPS   C24 9649   5.500   3.306   6.897 -0.0679 -0.2072  0.1498
   97SAPS   H4R 9650   5.538   3.241   6.978  0.4503 -0.2060 -0.0890
   97SAPS   H4S 9651   5.398   3.266   6.882 -1.5023  2.6718  1.5160
   97SAPS   C25 9652   5.473   3.439   6.975 -0.2331  0.3523  0.6860
   97SAPS   H5R 9653   5.406   3.506   6.918 -2.1449 -0.2985  2.0700
   97SAPS   C26 9654   5.516   3.472   7.100 -0.2456 -0.8488  0.1299
   97SAPS   H6R 9655   5.479   3.565   7.144 -2.3925  0.0712 -3.2517
   97SAPS   C27 9656   5.610   3.383   7.179  0.6719  0.4212 -0.1033
   97SAPS   H7R 9657   5.689   3.333   7.120 -1.0906 -1.4794 -1.0121
   97SAPS   H7S 9658   5.551   3.304   7.232 -0.0903  0.3942 -0.9713
   97SAPS   C28 9659   5.678   3.457   7.295 -0.0571  0.1428 -0.6222
   97SAPS   H8R 9660   5.770   3.509   7.267 -1.4121  1.1498 -3.6993
   97SAPS   C29 9661   5.633   3.473   7.423  0.0220 -0.3743 -0.3508
   97SAPS   H9R 9662   5.698   3.524   7.497  1.5191  0.4545 -2.1549
   97SAPS  C210 9663   5.500   3.425   7.474  0.0864  0.5666  0.1730
   97SAPS  H10R 9664   5.491   3.415   7.584 -1.6396 -0.6613 -0.0537
   97SAPS  H10S 9665   5.470   3.329   7.427  0.5005  0.5636 -0.0923
   97SAPS  C211 9666   5.404   3.528   7.444  0.5899 -0.5007 -0.7149
   97SAPS  H11R 9667   5.440   3.632   7.437 -0.4860 -0.1451 -1.2910
   97SAPS  C212 9668   5.275   3.507   7.420 -0.7423  0.4012 -0.6050
   97SAPS  H12R 9669   5.208   3.590   7.391 -1.8052  0.2047  1.1410
   97SAPS  C213 9670   5.212   3.375   7.426  0.0109  0.3705  0.5299
   97SAPS  H13R 9671   5.244   3.321   7.518  2.2548 -0.0398 -0.4276
   97SAPS  H13S 9672   5.234   3.327   7.329  0.9133  2.7471 -0.5162
   97SAPS  C214 9673   5.063   3.384   7.442 -0.8689  1.1184 -0.8545
   97SAPS  H14R 9674   5.019   3.404   7.540  0.3164 -1.2420  0.2435
   97SAPS  C215 9675   4.982   3.356   7.345  0.5533  0.0278 -0.1734
   97SAPS  H15R 9676   4.875   3.372   7.368  0.9018  2.5438  0.0454
   97SAPS  C216 9677   5.016   3.322   7.201  0.1660  0.2610  0.2725
   97SAPS  H16R 9678   5.035   3.213   7.194 -1.6035 -0.0518 -0.1321
   97SAPS  H16S 9679   5.110   3.374   7.171  1.4438 -0.8183  2.1955
   97SAPS  C217 9680   4.905   3.352   7.087 -0.1839  0.8656 -0.3917
   97SAPS  H17R 9681   4.906   3.463   7.081  0.3239  1.1333  2.9834
   97SAPS  H17S 9682   4.802   3.329   7.120 -0.6829  0.6264 -2.0443
   97SAPS  C218 9683   4.936   3.292   6.951 -0.2538  0.0738  0.3260
   97SAPS  H18R 9684   4.870   3.343   6.879 -1.2372 -2.7036 -0.8885
   97SAPS  H18S 9685   4.928   3.183   6.928 -0.1990  0.4987 -1.9342
   97SAPS  C219 9686   5.083   3.313   6.900 -1.1232 -0.1727  0.0623
   97SAPS  H19R 9687   5.149   3.236   6.945 -2.0135 -0.9631  0.0374
   97SAPS  H19S 9688   5.127   3.408   6.938 -0.1160 -0.8610  0.6511
   97SAPS  C220 9689   5.104   3.314   6.747  0.3286  0.0974  0.4872
   97SAPS  H20R 9690   5.027   3.373   6.693 -1.2440 -1.9181  0.3972
   97SAPS  H20S 9691   5.091   3.210   6.711  1.2644  0.7020 -1.7826
   97SAPS  H20T 9692   5.206   3.343   6.711 -0.5509  1.2237 -1.2561
   97SAPS   C33 9693   5.194   3.691   6.801 -0.8571  0.0730 -0.2172
   97SAPS   H3X 9694   5.273   3.769   6.804  1.4608 -2.1333  2.7341
   97SAPS   H3Y 9695   5.249   3.595   6.808  0.0879  0.6661  0.8262
   97SAPS   C34 9696   5.103   3.701   6.929  0.4877  1.2158  1.4330
   97SAPS   H4X 9697   5.012   3.640   6.910  2.6222 -1.5890 -0.5382
   97SAPS   H4Y 9698   5.075   3.808   6.915  0.7472  1.3526  1.9204
   97SAPS   C35 9699   5.174   3.674   7.067  0.2415  0.1247 -0.5080
   97SAPS   H5X 9700   5.279   3.708   7.054 -0.2502  0.9995 -2.5407
   97SAPS   H5Y 9701   5.173   3.569   7.102  0.2952  0.6501  1.1932
   97SAPS   C36 9702   5.109   3.767   7.172 -0.3788  0.3993 -0.6256
   97SAPS   H6X 9703   5.120   3.869   7.128  0.6812 -1.2226 -4.6029
   97SAPS   H6Y 9704   5.177   3.764   7.260  2.7109  1.8130 -2.7701
   97SAPS   C37 9705   4.963   3.738   7.197 -0.2872 -0.5820  0.1744
   97SAPS   H7X 9706   4.956   3.629   7.215 -0.8022 -0.5193  0.3544
   97SAPS   H7Y 9707   4.910   3.765   7.103 -0.6387  0.5159  0.6741
   97SAPS   C38 9708   4.895   3.816   7.310  0.1260  0.0731  0.7074
   97SAPS   H8X 9709   4.784   3.815   7.306 -0.0426  0.6828  3.2763
   97SAPS   H8Y 9710   4.934   3.920   7.299 -1.1593  0.3799 -1.6134
   97SAPS   C39 9711   4.942   3.783   7.454  0.3541 -0.2532  1.0712
   97SAPS   H9X 9712   5.050   3.759   7.447  0.1683 -1.0822  0.9199
   97SAPS   H9Y 9713   4.884   3.693   7.485  1.3878 -1.3475 -0.0588
   97SAPS  C310 9714   4.915   3.901   7.554 -0.3641 -0.5069  0.6014
   97SAPS  H10X 9715   4.806   3.923   7.555  0.0989  2.6866 -1.4000
   97SAPS  H10Y 9716   4.956   3.997   7.514  0.6638 -2.0194 -2.3171
   97SAPS  C311 9717   4.979   3.873   7.693  0.0864  0.2034 -0.2390
   97SAPS  H11X 9718   5.088   3.853   7.680 -0.5709 -4.6877 -0.1267
   97SAPS  H11Y 9719   4.930   3.777   7.720 -0.1201  0.7621  1.4838
   97SAPS  C312 9720   4.956   3.984   7.798  0.3357  0.1225 -0.6018
   97SAPS  H12X 9721   4.847   3.993   7.820  0.6399 -0.6655  1.4463
   97SAPS  H12Y 9722   4.989   4.082   7.758  0.1250  1.0341  1.3347
   97SAPS  C313 9723   5.006   3.952   7.937  0.1479  0.4817  0.1986
   97SAPS  H13X 9724   4.980   4.032   8.009 -0.2972  1.6381 -1.1994
   97SAPS  H13Y 9725   5.117   3.941   7.935  0.1126  0.1422 -0.0072
   97SAPS  C314 9726   4.949   3.816   7.987  0.0369 -0.1127  0.4656
   97SAPS  H14X 9727   5.013   3.740   7.937 -0.8888 -0.3642 -0.3686
   97SAPS  H14Y 9728   4.840   3.806   7.965  0.0988  1.2913 -0.6006
   97SAPS  C315 9729   4.970   3.800   8.136 -0.8514  0.7399  0.3631
   97SAPS  H15X 9730   5.073   3.836   8.156 -1.0397  0.9198  1.0548
   97SAPS  H15Y 9731   4.968   3.694   8.167 -0.3728  0.4072 -0.7168
   97SAPS  C316 9732   4.870   3.863   8.235  0.3487 -0.1918  0.0379
   97SAPS  H16X 9733   4.765   3.839   8.211 -0.3314  0.4694  2.1255
   97SAPS  H16Y 9734   4.874   3.974   8.236  0.0530 -0.1736 -0.4916
   97SAPS  C317 9735   4.895   3.828   8.384 -0.4093 -0.3097 -0.7458
   97SAPS  H17X 9736   4.994   3.870   8.410 -1.4237  1.6164  0.2233
   97SAPS  H17Y 9737   4.884   3.720   8.410 -1.9654  0.2956  1.4619
   97SAPS  C318 9738   4.807   3.911   8.477 -0.1318 -0.2651  0.4794
   97SAPS  H18X 9739   4.853   3.899   8.577  1.3890  1.2648  0.0203
   97SAPS  H18Y 9740   4.698   3.889   8.472 -0.3715  1.0773 -1.1259
   97SAPS  H18Z 9741   4.818   4.017   8.446 -0.4858  0.0535  1.4022
   98SAPS     N 9742   2.733   4.260   6.090 -0.0006 -0.7338  0.1215
   98SAPS   HN1 9743   2.752   4.343   6.150 -1.5076 -0.1803 -0.1255
   98SAPS   HN2 9744   2.713   4.180   6.154 -1.5293  1.1646  2.1575
   98SAPS   HN3 9745   2.824   4.233   6.046  1.1951 -0.5103  2.2721
   98SAPS   C12 9746   2.619   4.270   6.004 -0.5137 -0.3996  0.3444
   98SAPS  H12A 9747   2.642   4.363   5.954  2.3929 -0.7717  0.8647
   98SAPS   C13 9748   2.600   4.154   5.900  0.6112  0.3134  0.5136
   98SAPS  O13A 9749   2.693   4.064   5.899 -0.1403  0.2393  0.0315
   98SAPS  O13B 9750   2.511   4.162   5.810  0.1740 -0.2613  0.0473
   98SAPS   C11 9751   2.495   4.289   6.097  0.3964  0.7040  0.0214
   98SAPS  H11A 9752   2.483   4.198   6.159 -1.5218 -0.5271 -2.0208
   98SAPS  H11B 9753   2.407   4.303   6.031 -0.5584 -1.0118  0.8818
   98SAPS     P 9754   2.417   4.470   6.277  0.1123 -0.2839 -0.1713
   98SAPS   O13 9755   2.462   4.599   6.330 -0.1575 -0.4543 -0.4823
   98SAPS   O14 9756   2.280   4.472   6.217 -0.4748 -0.1591 -0.2782
   98SAPS   O12 9757   2.519   4.415   6.166  0.3383 -0.1377 -0.4162
   98SAPS   O11 9758   2.423   4.354   6.383  0.1369  0.0508  0.3229
   98SAPS    C1 9759   2.551   4.306   6.440 -0.6737 -0.7013 -0.7221
   98SAPS    HA 9760   2.574   4.205   6.398  1.2421 -1.2276  1.3588
   98SAPS    HB 9761   2.638   4.370   6.415 -1.0841  1.1474  2.1619
   98SAPS    C2 9762   2.545   4.285   6.599 -0.7277 -0.3088  0.0765
   98SAPS    HS 9763   2.445   4.241   6.623 -0.5355 -0.8285 -0.0543
   98SAPS   O21 9764   2.583   4.405   6.669 -0.2913  0.4188  0.2601
   98SAPS   C21 9765   2.504   4.436   6.770 -0.5327 -0.5599 -1.2307
   98SAPS   O22 9766   2.388   4.397   6.784 -0.5021  0.2935 -0.6001
   98SAPS   C22 9767   2.590   4.536   6.857 -0.1995 -0.1390 -0.4008
   98SAPS   H2R 9768   2.641   4.473   6.933  0.9389  0.5175 -0.5956
   98SAPS   H2S 9769   2.670   4.573   6.789  0.2423 -1.8631 -0.8596
   98SAPS    C3 9770   2.643   4.174   6.651  0.0090  0.3937 -0.0935
   98SAPS    HX 9771   2.742   4.225   6.642 -0.4190  1.5032  1.2666
   98SAPS    HY 9772   2.645   4.081   6.590  1.9311 -1.0738  2.0251
   98SAPS   O31 9773   2.624   4.152   6.791 -0.0437  0.5668  0.2824
   98SAPS   C31 9774   2.542   4.051   6.823  0.7064  0.6236  0.2420
   98SAPS   O32 9775   2.489   3.973   6.743 -0.0881 -0.6606 -0.0255
   98SAPS   C32 9776   2.528   4.050   6.976 -0.4008 -0.1474  0.2647
   98SAPS   H2X 9777   2.630   4.044   7.018 -1.0219 -2.7731  1.6441
   98SAPS   H2Y 9778   2.478   3.954   7.002  1.1590 -0.6411  1.6287
   98SAPS   C23 9779   2.511   4.652   6.923  0.2766  0.1631  0.3974
   98SAPS   H3R 9780   2.467   4.715   6.842 -1.4567 -0.1116  1.0899
   98SAPS   H3S 9781   2.582   4.709   6.987 -1.2422  2.2129  0.3627
   98SAPS   C24 9782   2.413   4.594   7.039 -0.1208 -0.1520 -0.3890
   98SAPS   H4R 9783   2.465   4.511   7.091 -0.0447 -0.4718 -0.9789
   98SAPS   H4S 9784   2.320   4.555   6.994 -0.9491 -2.9464  3.2592
   98SAPS   C25 9785   2.367   4.705   7.137  0.2958  0.4324 -0.1168
   98SAPS   H5R 9786   2.317   4.794   7.097  2.0271  1.2853 -0.4688
   98SAPS   C26 9787   2.383   4.697   7.267  0.1413  0.2416 -0.1696
   98SAPS   H6R 9788   2.354   4.778   7.335  0.2260 -1.0177  1.4128
   98SAPS   C27 9789   2.455   4.594   7.354  0.0230 -0.7272  0.0216
   98SAPS   H7R 9790   2.559   4.581   7.318 -0.5258 -2.2226 -1.1144
   98SAPS   H7S 9791   2.407   4.496   7.335 -1.5466  0.6691 -4.3882
   98SAPS   C28 9792   2.467   4.623   7.502 -0.2792  0.0680 -0.7359
   98SAPS   H8R 9793   2.459   4.731   7.519 -0.0719  0.3451 -2.2258
   98SAPS   C29 9794   2.487   4.535   7.599  0.3145  0.7583 -0.2305
   98SAPS   H9R 9795   2.484   4.571   7.703 -1.0711 -0.1314  0.0631
   98SAPS  C210 9796   2.501   4.385   7.587  0.3560  0.4452 -0.6488
   98SAPS  H10R 9797   2.492   4.353   7.481 -0.2573 -1.7283  0.0050
   98SAPS  H10S 9798   2.415   4.355   7.651  1.2414  0.4648  0.5747
   98SAPS  C211 9799   2.641   4.346   7.635 -0.5620 -0.7834  0.2287
   98SAPS  H11R 9800   2.719   4.396   7.576  0.3294 -1.0199  1.1849
   98SAPS  C212 9801   2.671   4.269   7.744 -0.1243  0.4908  0.3700
   98SAPS  H12R 9802   2.775   4.273   7.778  0.9468  0.5122 -2.6315
   98SAPS  C213 9803   2.565   4.204   7.839 -0.6172 -0.4571  0.5586
   98SAPS  H13R 9804   2.623   4.134   7.904  0.4810 -2.1469 -2.0906
   98SAPS  H13S 9805   2.505   4.134   7.778  0.5752 -1.1960  0.1966
   98SAPS  C214 9806   2.499   4.296   7.937  0.4188 -0.0257 -0.3126
   98SAPS  H14R 9807   2.498   4.405   7.924 -2.9380 -0.1135 -1.9337
   98SAPS  C215 9808   2.403   4.261   8.030  0.6118 -0.1983  0.0498
   98SAPS  H15R 9809   2.354   4.349   8.073  1.1832  1.1439 -1.8990
   98SAPS  C216 9810   2.336   4.131   8.068 -0.0738 -0.1932  1.0266
   98SAPS  H16R 9811   2.387   4.041   8.028 -0.0535  0.7358 -1.1494
   98SAPS  H16S 9812   2.238   4.127   8.016  1.3419  2.2846 -2.1040
   98SAPS  C217 9813   2.319   4.117   8.223 -0.4756  0.7998 -0.2182
   98SAPS  H17R 9814   2.229   4.056   8.241 -0.0876 -0.0957 -1.2274
   98SAPS  H17S 9815   2.291   4.217   8.262 -1.1638 -0.0393  1.5369
   98SAPS  C218 9816   2.446   4.055   8.277 -0.7337  0.6147 -0.6551
   98SAPS  H18R 9817   2.528   4.107   8.224 -0.5450  2.2517  1.1508
   98SAPS  H18S 9818   2.447   3.949   8.244  1.7711  0.0767  0.9200
   98SAPS  C219 9819   2.457   4.084   8.430 -0.3782  0.3424 -0.1045
   98SAPS  H19R 9820   2.406   4.012   8.497  0.1835 -1.0273 -1.0937
   98SAPS  H19S 9821   2.411   4.182   8.451 -0.2891  0.6064 -1.0754
   98SAPS  C220 9822   2.600   4.108   8.475  0.4061 -0.5658  0.0359
   98SAPS  H20R 9823   2.600   4.141   8.581 -2.3364 -1.5147  0.4165
   98SAPS  H20S 9824   2.638   4.195   8.417  1.3194 -1.1043 -0.2022
   98SAPS  H20T 9825   2.660   4.015   8.462  1.7936  0.1097  1.3181
   98SAPS   C33 9826   2.448   4.167   7.031 -0.4685 -0.3046  0.0755
   98SAPS   H3X 9827   2.340   4.164   7.005 -0.4189  3.2380 -0.9970
   98SAPS   H3Y 9828   2.487   4.259   6.983 -1.1453 -1.1850 -2.3305
   98SAPS   C34 9829   2.462   4.173   7.183 -0.3541 -0.1289  0.0170
   98SAPS   H4X 9830   2.399   4.259   7.216  1.7458  0.9006  1.6510
   98SAPS   H4Y 9831   2.566   4.202   7.207 -0.0081 -1.0791 -0.3245
   98SAPS   C35 9832   2.421   4.054   7.270 -0.7719 -0.3263  0.3687
   98SAPS   H5X 9833   2.475   3.962   7.239 -0.3137  0.6738 -2.0621
   98SAPS   H5Y 9834   2.315   4.026   7.252 -0.8134  0.0561 -0.0296
   98SAPS   C36 9835   2.425   4.087   7.419 -0.1193  0.8242 -0.3873
   98SAPS   H6X 9836   2.359   4.170   7.448 -1.7253  0.2756 -2.2195
   98SAPS   H6Y 9837   2.526   4.111   7.458 -0.2942 -2.8204  2.9660
   98SAPS   C37 9838   2.361   3.980   7.508 -0.3751 -0.2957  0.2006
   98SAPS   H7X 9839   2.250   3.976   7.507 -0.3825 -1.7668 -2.5230
   98SAPS   H7Y 9840   2.376   4.025   7.608 -0.9879 -0.6162  0.4417
   98SAPS   C38 9841   2.432   3.846   7.513  0.0581 -0.5678 -0.6589
   98SAPS   H8X 9842   2.540   3.867   7.530 -0.2479  0.8941 -0.3504
   98SAPS   H8Y 9843   2.404   3.802   7.415  0.0195 -2.2645  0.0884
   98SAPS   C39 9844   2.373   3.758   7.632 -0.6312  0.6517 -0.2393
   98SAPS   H9X 9845   2.414   3.657   7.610  0.0660  0.2621  2.4641
   98SAPS   H9Y 9846   2.262   3.758   7.624 -0.6359 -0.1268 -0.2606
   98SAPS  C310 9847   2.418   3.795   7.773 -0.6900 -0.2156 -0.2450
   98SAPS  H10X 9848   2.376   3.894   7.800  0.1230  0.3063 -0.8108
   98SAPS  H10Y 9849   2.529   3.804   7.776 -0.8067  1.4404  2.5030
   98SAPS  C311 9850   2.369   3.699   7.881  0.6674  0.6775 -0.1460
   98SAPS  H11X 9851   2.435   3.610   7.877 -1.6449 -1.1075 -2.0493
   98SAPS  H11Y 9852   2.269   3.661   7.849  1.3038 -1.5010  0.2805
   98SAPS  C312 9853   2.348   3.759   8.022 -0.0679 -0.2441  0.1670
   98SAPS  H12X 9854   2.274   3.839   7.997  0.9156 -0.4070 -4.0429
   98SAPS  H12Y 9855   2.447   3.797   8.055  0.4509 -1.8187  0.4732
   98SAPS  C313 9856   2.294   3.659   8.115  0.0546  0.0869 -0.0673
   98SAPS  H13X 9857   2.251   3.575   8.056 -1.4612 -0.2969  1.4858
   98SAPS  H13Y 9858   2.202   3.697   8.166 -0.6037  0.2385 -1.3356
   98SAPS  C314 9859   2.404   3.594   8.203  0.4201  0.0843 -0.2015
   98SAPS  H14X 9860   2.422   3.676   8.276 -2.2223  0.9989 -0.4785
   98SAPS  H14Y 9861   2.486   3.567   8.133 -0.0329  0.3159 -0.8275
   98SAPS  C315 9862   2.358   3.468   8.284 -0.0961 -0.0506  0.2617
   98SAPS  H15X 9863   2.438   3.447   8.358  2.0969  0.3986 -1.8069
   98SAPS  H15Y 9864   2.360   3.381   8.215  1.1433  1.0767 -1.2171
   98SAPS  C316 9865   2.221   3.486   8.343 -0.4015  0.0765 -1.0868
   98SAPS  H16X 9866   2.135   3.520   8.281 -1.5559 -1.1954 -0.2675
   98SAPS  H16Y 9867   2.239   3.567   8.417  3.7663 -1.0379 -0.6674
   98SAPS  C317 9868   2.162   3.375   8.430  0.0902  0.4430  0.7096
   98SAPS  H17X 9869   2.214   3.371   8.528 -0.1950  0.2630  0.8556
   98SAPS  H17Y 9870   2.192   3.280   8.381 -1.6852 -0.5846  1.4992
   98SAPS  C318 9871   2.006   3.392   8.460  0.4534  1.3824 -0.4508
   98SAPS  H18X 9872   1.988   3.486   8.516 -0.2036  0.6932  0.5273
   98SAPS  H18Y 9873   1.974   3.315   8.534  0.5579  1.2431 -0.5510
   98SAPS  H18Z 9874   1.937   3.377   8.375  2.2629  0.5906 -1.8638
   99SAPS     N 9875   5.463   3.165   6.299 -0.5624  0.6715 -0.3241
   99SAPS   HN1 9876   5.554   3.213   6.305 -0.3311  0.2069 -0.0372
   99SAPS   HN2 9877   5.382   3.221   6.333  1.3516  2.7040  1.1189
   99SAPS   HN3 9878   5.461   3.075   6.352 -0.7464 -0.3292 -1.9437
   99SAPS   C12 9879   5.444   3.122   6.158 -0.2605  0.1150  1.0209
   99SAPS  H12A 9880   5.466   3.200   6.087  2.8056 -3.2470 -2.1528
   99SAPS   C13 9881   5.529   3.010   6.103 -0.3016  0.4667 -0.1756
   99SAPS  O13A 9882   5.630   2.971   6.167  0.0327 -0.6688 -0.9852
   99SAPS  O13B 9883   5.512   2.968   5.983  0.4753  0.0716  0.0203
   99SAPS   C11 9884   5.296   3.082   6.134  0.5269  0.0073 -0.4755
   99SAPS  H11A 9885   5.287   3.043   6.030 -0.5067  0.4170 -0.5529
   99SAPS  H11B 9886   5.236   3.175   6.145 -0.1829 -0.6424  1.6417
   99SAPS     P 9887   5.115   2.900   6.202 -0.5628  0.3278 -0.1273
   99SAPS   O13 9888   5.012   3.006   6.205 -0.3680  0.3283  0.2829
   99SAPS   O14 9889   5.116   2.808   6.083  0.2796 -0.8950  0.3348
   99SAPS   O12 9890   5.258   2.971   6.212  0.4146 -0.1622 -0.8161
   99SAPS   O11 9891   5.118   2.817   6.333  0.2840  0.0378  0.3045
   99SAPS    C1 9892   5.203   2.853   6.442 -0.7913 -0.7884  0.5008
   99SAPS    HA 9893   5.269   2.768   6.470 -0.2974 -1.1731 -1.6671
   99SAPS    HB 9894   5.266   2.943   6.451  3.6262 -3.5018 -0.3646
   99SAPS    C2 9895   5.110   2.876   6.572  0.5039 -0.6774  0.0103
   99SAPS    HS 9896   5.073   2.981   6.563 -1.1727 -1.2845 -0.6366
   99SAPS   O21 9897   5.178   2.842   6.695  0.0259 -0.1350 -0.3125
   99SAPS   C21 9898   5.263   2.934   6.735 -0.4891 -0.0980 -0.0514
   99SAPS   O22 9899   5.304   3.027   6.669 -0.7080 -0.6435  0.1085
   99SAPS   C22 9900   5.317   2.912   6.874  0.2153  1.0472 -0.0568
   99SAPS   H2R 9901   5.365   2.813   6.888  1.5026  1.4344 -1.3658
   99SAPS   H2S 9902   5.400   2.984   6.892  2.9032 -1.6574 -0.7919
   99SAPS    C3 9903   4.979   2.795   6.563  0.3626  0.2771 -0.1599
   99SAPS    HX 9904   5.009   2.688   6.572 -0.8141 -0.2843 -2.2893
   99SAPS    HY 9905   4.936   2.803   6.461  2.5724 -0.3447 -1.2171
   99SAPS   O31 9906   4.896   2.829   6.679  0.4768 -0.1499  0.1399
   99SAPS   C31 9907   4.805   2.920   6.653  0.6311  0.3249 -0.0657
   99SAPS   O32 9908   4.779   2.963   6.541 -0.1439  0.4218 -0.2612
   99SAPS   C32 9909   4.717   2.969   6.770  0.8468 -0.2921  0.6064
   99SAPS   H2X 9910   4.611   2.946   6.745  0.0527 -0.6977  3.8824
   99SAPS   H2Y 9911   4.731   3.079   6.782 -0.7817 -0.2418  2.4805
   99SAPS   C23 9912   5.207   2.945   6.978 -0.1200 -0.0401  0.7237
   99SAPS   H3R 9913   5.129   2.867   6.964 -0.2112 -0.2482  2.2475
   99SAPS   H3S 9914   5.158   3.042   6.954  1.4203  1.0910  1.9570
   99SAPS   C24 9915   5.240   2.934   7.126 -0.7244 -0.4789 -0.1330
   99SAPS   H4R 9916   5.270   2.828   7.140 -1.7339 -0.6533  0.8842
   99SAPS   H4S 9917   5.142   2.949   7.178 -0.8322 -2.2186  0.2381
   99SAPS   C25 9918   5.352   3.029   7.162 -0.2022 -0.1102  0.4831
   99SAPS   H5R 9919   5.329   3.135   7.143  2.1282  0.4447  0.4589
   99SAPS   C26 9920   5.484   3.000   7.188 -0.0402  0.1758  0.0510
   99SAPS   H6R 9921   5.541   3.087   7.223 -2.2107  0.0243  4.6997
   99SAPS   C27 9922   5.553   2.865   7.192  0.1144 -0.3095  0.5426
   99SAPS   H7R 9923   5.509   2.792   7.122 -0.0974 -0.3096  0.6748
   99SAPS   H7S 9924   5.529   2.832   7.295 -2.0561  1.9525  0.8448
   99SAPS   C28 9925   5.703   2.859   7.174  0.2473  0.4884 -0.3001
   99SAPS   H8R 9926   5.734   2.790   7.095 -0.8240  0.6484 -0.8713
   99SAPS   C29 9927   5.797   2.917   7.244  0.3632 -0.1463  0.2589
   99SAPS   H9R 9928   5.903   2.900   7.221  0.3366  0.5359 -0.4151
   99SAPS  C210 9929   5.779   2.995   7.371 -0.2251 -0.4122  0.0024
   99SAPS  H10R 9930   5.846   2.940   7.440 -0.7162 -0.9629  0.0389
   99SAPS  H10S 9931   5.680   2.985   7.419  0.4539 -0.1494  1.5123
   99SAPS  C211 9932   5.822   3.135   7.362 -0.0418 -0.3389  0.7264
   99SAPS  H11R 9933   5.803   3.195   7.271 -1.7178  0.5447  1.5949
   99SAPS  C212 9934   5.855   3.204   7.471 -0.3011  0.0402 -0.3417
   99SAPS  H12R 9935   5.878   3.311   7.463 -2.8644  0.7025  0.2185
   99SAPS  C213 9936   5.873   3.155   7.621 -0.3409 -0.4421  0.6957
   99SAPS  H13R 9937   5.960   3.206   7.667 -1.1810 -0.5527  2.4999
   99SAPS  H13S 9938   5.878   3.045   7.630 -0.5347 -0.4235  1.0454
   99SAPS  C214 9939   5.751   3.204   7.695  0.2292  0.3506 -0.7117
   99SAPS  H14R 9940   5.723   3.308   7.672  0.7165  0.0673 -2.8122
   99SAPS  C215 9941   5.681   3.135   7.787  0.3520  1.1795  0.2246
   99SAPS  H15R 9942   5.596   3.183   7.836  0.7349  0.9174  1.1746
   99SAPS  C216 9943   5.721   3.003   7.840 -0.1878  0.0334 -0.2422
   99SAPS  H16R 9944   5.793   2.952   7.773 -1.1091  0.1313 -1.3263
   99SAPS  H16S 9945   5.636   2.932   7.834  0.5063 -0.8838  0.4480
   99SAPS  C217 9946   5.794   3.010   7.975  0.1780 -0.4327 -0.2670
   99SAPS  H17R 9947   5.810   2.906   8.011 -0.2004 -0.8138 -1.1670
   99SAPS  H17S 9948   5.732   3.067   8.048  3.9771  1.4786  1.7423
   99SAPS  C218 9949   5.925   3.087   7.978 -0.0286  0.3657  0.9771
   99SAPS  H18R 9950   5.907   3.195   7.959 -1.3826 -0.0897 -0.5386
   99SAPS  H18S 9951   5.994   3.039   7.904 -2.5318 -1.7531 -0.1358
   99SAPS  C219 9952   6.000   3.081   8.110 -0.1285 -0.1714  0.5583
   99SAPS  H19R 9953   6.087   3.149   8.098 -0.5220 -0.0201 -1.8802
   99SAPS  H19S 9954   6.033   2.976   8.102  0.8685  0.2700 -2.4496
   99SAPS  C220 9955   5.915   3.105   8.232  0.0668  0.1132 -0.4857
   99SAPS  H20R 9956   5.979   3.073   8.317  2.4019  1.1002 -1.7870
   99SAPS  H20S 9957   5.816   3.055   8.240  1.0219 -1.5212  2.4241
   99SAPS  H20T 9958   5.907   3.216   8.232  1.3599  0.2543 -2.3856
   99SAPS   C33 9959   4.741   2.909   6.912 -0.0357 -0.2109  1.3967
   99SAPS   H3X 9960   4.851   2.901   6.914  0.1884  0.9510 -1.6987
   99SAPS   H3Y 9961   4.710   2.802   6.904  1.5430 -0.6097  0.3409
   99SAPS   C34 9962   4.682   3.000   7.018 -0.4880 -0.1918  0.4572
   99SAPS   H4X 9963   4.574   3.023   7.006 -0.0790  2.6533  1.3833
   99SAPS   H4Y 9964   4.723   3.103   7.022 -1.2809  0.1518 -0.0505
   99SAPS   C35 9965   4.711   2.945   7.163 -0.2253 -0.1261 -0.6206
   99SAPS   H5X 9966   4.692   2.835   7.164 -0.2470 -0.1978 -2.8518
   99SAPS   H5Y 9967   4.648   3.001   7.236  1.5061 -0.2774  1.0601
   99SAPS   C36 9968   4.853   2.971   7.209 -0.6041 -0.5314 -0.0539
   99SAPS   H6X 9969   4.869   3.078   7.186  0.7376 -0.5978  0.4991
   99SAPS   H6Y 9970   4.921   2.900   7.157  0.8357 -2.2152  3.8096
   99SAPS   C37 9971   4.862   2.936   7.358 -0.3385  0.4478  0.2595
   99SAPS   H7X 9972   4.864   2.829   7.386  0.0263  1.0133  2.6211
   99SAPS   H7Y 9973   4.781   2.983   7.419 -1.1378 -1.9304  1.1455
   99SAPS   C38 9974   4.997   2.980   7.417  0.3700 -0.4169  0.1708
   99SAPS   H8X 9975   5.017   3.085   7.387 -0.5208 -0.6966 -1.5722
   99SAPS   H8Y 9976   5.076   2.920   7.366  1.2373  1.1719 -0.4139
   99SAPS   C39 9977   5.028   2.970   7.571  0.4704 -0.0090 -0.0345
   99SAPS   H9X 9978   5.026   2.861   7.594 -0.8424  0.1503  0.7246
   99SAPS   H9Y 9979   4.941   3.004   7.631  0.6180 -2.2167  1.5157
   99SAPS  C310 9980   5.156   3.040   7.619  0.3837 -0.8379  0.0823
   99SAPS  H10X 9981   5.143   3.150   7.612  0.6463 -0.7880  0.3493
   99SAPS  H10Y 9982   5.242   3.025   7.550  0.5643  0.6442 -0.0384
   99SAPS  C311 9983   5.168   3.026   7.772  0.4432  0.5148 -0.0724
   99SAPS  H11X 9984   5.151   2.921   7.804  0.7468  0.6340  0.4942
   99SAPS  H11Y 9985   5.090   3.082   7.827 -0.7596 -0.9034 -0.2709
   99SAPS  C312 9986   5.301   3.069   7.842  0.2645  0.1612  0.2885
   99SAPS  H12X 9987   5.307   3.173   7.883  0.3785  0.9725 -1.6992
   99SAPS  H12Y 9988   5.383   3.054   7.769 -0.2436  1.7206 -0.6383
   99SAPS  C313 9989   5.338   2.975   7.963 -0.3886 -0.9226 -0.0203
   99SAPS  H13X 9990   5.415   3.023   8.027  0.9036 -1.4637 -1.1232
   99SAPS  H13Y 9991   5.366   2.877   7.919  0.4629 -1.6497  2.0257
   99SAPS  C314 9992   5.221   2.954   8.053  0.4432  0.3215  0.3546
   99SAPS  H14X 9993   5.158   2.872   8.011 -1.0360  0.3565  2.3221
   99SAPS  H14Y 9994   5.172   3.053   8.061  1.5891  0.9752 -0.5826
   99SAPS  C315 9995   5.252   2.910   8.194 -0.0175  0.1229 -0.7026
   99SAPS  H15X 9996   5.293   3.002   8.239 -1.6935  1.3259 -1.5518
   99SAPS  H15Y 9997   5.318   2.820   8.191 -0.3803 -0.1657 -0.2277
   99SAPS  C316 9998   5.110   2.881   8.261  0.2215  0.0246 -0.6162
   99SAPS  H16X 9999   5.085   2.775   8.239  1.5999 -0.6365  0.7737
   99SAPS  H16Y10000   5.046   2.952   8.204  1.3948  0.1057 -1.8833
   99SAPS  C31710001   5.106   2.898   8.417 -0.0056 -0.0244  0.0658
   99SAPS  H17X10002   5.155   2.991   8.452  0.6336 -0.4295  0.2695
   99SAPS  H17Y10003   5.164   2.816   8.465 -0.8312  1.7240  4.5606
   99SAPS  C31810004   4.959   2.888   8.452  0.5602 -0.8069  0.2631
   99SAPS  H18X10005   4.956   2.914   8.560 -0.2161 -0.2676  0.1207
   99SAPS  H18Y10006   4.925   2.785   8.429 -1.7550 -0.2533  0.9277
   99SAPS  H18Z10007   4.905   2.963   8.390  0.5576  0.6655  1.9458
  100SAPS     N10008   5.909   4.141   5.995 -0.2485  0.0795 -0.2024
  100SAPS   HN110009   5.933   4.178   5.901  0.0291  0.3465 -0.0264
  100SAPS   HN210010   5.974   4.184   6.064 -1.4598  0.0049  1.0429
  100SAPS   HN310011   5.913   4.037   5.998 -1.9491 -0.0012  1.0680
  100SAPS   C1210012   5.774   4.175   6.057  0.3386  0.1432  0.4154
  100SAPS  H12A10013   5.778   4.283   6.058 -0.5558  0.2057 -0.7506
  100SAPS   C1310014   5.661   4.134   5.963 -0.1060 -0.7833  0.2246
  100SAPS  O13A10015   5.688   4.089   5.847 -0.2034 -0.2871  0.4807
  100SAPS  O13B10016   5.546   4.177   5.989 -0.2156  0.4191  0.1028
  100SAPS   C1110017   5.766   4.108   6.195 -0.1293 -0.4658  0.0747
  100SAPS  H11A10018   5.787   3.999   6.189 -0.9525 -0.5568 -1.7091
  100SAPS  H11B10019   5.662   4.127   6.229 -0.0156  0.8143 -0.2303
  100SAPS     P10020   5.868   4.144   6.437  0.0827 -0.3747  0.3074
  100SAPS   O1310021   6.000   4.088   6.481  0.6361 -0.6458 -0.2089
  100SAPS   O1410022   5.825   4.269   6.507 -0.2120 -0.6795  0.0549
  100SAPS   O1210023   5.864   4.175   6.279 -0.0979  0.1616 -0.0028
  100SAPS   O1110024   5.750   4.032   6.457 -0.2101  0.2185 -0.2874
  100SAPS    C110025   5.615   4.076   6.475  0.2273 -0.4741 -0.5849
  100SAPS    HA10026   5.604   4.184   6.449  1.0455 -0.4102 -0.6829
  100SAPS    HB10027   5.547   4.016   6.410  1.2488 -3.9625  1.3027
  100SAPS    C210028   5.570   4.063   6.627 -0.3415 -0.5597  0.2824
  100SAPS    HS10029   5.612   4.146   6.688 -0.8477 -1.4840  1.9387
  100SAPS   O2110030   5.612   3.938   6.680  0.0186  0.0444  0.5549
  100SAPS   C2110031   5.730   3.948   6.740  0.5999 -0.4115 -0.5745
  100SAPS   O2210032   5.786   4.055   6.771  0.0504 -0.0081  0.4594
  100SAPS   C2210033   5.770   3.806   6.789  0.0531  0.2889  0.6459
  100SAPS   H2R10034   5.782   3.736   6.704 -1.5376  2.5671 -1.5947
  100SAPS   H2S10035   5.873   3.807   6.831  1.2483  0.1764 -2.1240
  100SAPS    C310036   5.422   4.076   6.648  0.9992 -0.1930 -0.7117
  100SAPS    HX10037   5.358   3.993   6.610 -0.2186 -0.0701  0.9090
  100SAPS    HY10038   5.374   4.159   6.592 -2.3229 -0.6446  1.1892
  100SAPS   O3110039   5.391   4.078   6.793  0.2050  0.1318 -0.1200
  100SAPS   C3110040   5.266   4.091   6.825 -0.1482  0.2613 -0.1912
  100SAPS   O3210041   5.173   4.108   6.747 -0.2985 -0.2083  0.4106
  100SAPS   C3210042   5.254   4.064   6.972 -0.3057 -0.0363 -0.5943
  100SAPS   H2X10043   5.298   3.963   6.984  1.8718  0.8125 -0.8860
  100SAPS   H2Y10044   5.146   4.050   6.994 -0.3224  0.2934 -0.4581
  100SAPS   C2310045   5.666   3.760   6.893 -0.1131  0.6575  0.2356
  100SAPS   H3R10046   5.699   3.658   6.922  1.8989  1.7259  1.9400
  100SAPS   H3S10047   5.566   3.750   6.845 -0.0469  1.0476  0.0085
  100SAPS   C2410048   5.649   3.845   7.021 -0.0452 -0.1940 -0.0519
  100SAPS   H4R10049   5.588   3.787   7.094  1.4444 -0.1725  1.2823
  100SAPS   H4S10050   5.585   3.934   7.002  1.9741  1.9093  2.2898
  100SAPS   C2510051   5.774   3.900   7.092  0.1517 -0.1643 -0.1542
  100SAPS   H5R10052   5.848   3.942   7.022  0.2683 -0.5575 -0.2718
  100SAPS   C2610053   5.802   3.900   7.219  0.0709 -0.3958  0.2328
  100SAPS   H6R10054   5.901   3.937   7.248  0.1125 -1.4571  1.6181
  100SAPS   C2710055   5.719   3.851   7.334  0.0561 -0.3195  0.3614
  100SAPS   H7R10056   5.764   3.768   7.392 -1.4299 -2.1160 -0.9191
  100SAPS   H7S10057   5.621   3.813   7.298  0.4520 -0.7438 -0.2921
  100SAPS   C2810058   5.698   3.981   7.414  0.6795  0.5811 -0.8485
  100SAPS   H8R10059   5.644   4.066   7.369  1.3344  1.5277  0.1091
  100SAPS   C2910060   5.722   3.995   7.545 -0.2797  0.1802 -0.2708
  100SAPS   H9R10061   5.703   4.091   7.596  0.0230  0.2716 -0.3266
  100SAPS  C21010062   5.784   3.893   7.638  0.3739  0.4081  0.3515
  100SAPS  H10R10063   5.878   3.946   7.664  0.2894  1.6104 -1.5651
  100SAPS  H10S10064   5.800   3.793   7.594 -1.2249  0.6348 -0.8276
  100SAPS  C21110065   5.717   3.892   7.768  0.6405  0.0821  0.8838
  100SAPS  H11R10066   5.751   3.970   7.838  0.0968  1.7960 -0.6914
  100SAPS  C21210067   5.607   3.819   7.790  0.2271  0.3756  0.3812
  100SAPS  H12R10068   5.550   3.827   7.884 -2.2471 -2.0837 -0.7647
  100SAPS  C21310069   5.528   3.721   7.709 -0.0232  0.0298  0.5579
  100SAPS  H13R10070   5.582   3.699   7.615  0.7767 -0.0358  1.0228
  100SAPS  H13S10071   5.438   3.757   7.655  1.1708  1.3464 -0.6431
  100SAPS  C21410072   5.516   3.592   7.789  0.0819 -0.7260 -0.4417
  100SAPS  H14R10073   5.612   3.540   7.805 -0.9269 -2.4805  0.2195
  100SAPS  C21510074   5.403   3.538   7.840  0.8208  0.0067  1.2768
  100SAPS  H15R10075   5.411   3.438   7.884 -0.2924 -0.0364  1.3894
  100SAPS  C21610076   5.269   3.600   7.830  0.8625  0.3240  0.0366
  100SAPS  H16R10077   5.240   3.651   7.735 -3.4328  0.9098  1.4148
  100SAPS  H16S10078   5.252   3.679   7.907  0.1552 -0.7403  1.0007
  100SAPS  C21710079   5.158   3.486   7.848 -0.2414 -0.2722  0.0313
  100SAPS  H17R10080   5.191   3.405   7.780 -0.5938  0.4447 -1.0202
  100SAPS  H17S10081   5.065   3.526   7.802  0.3160  0.8834 -0.1477
  100SAPS  C21810082   5.133   3.443   7.997 -0.4234  0.7779 -0.8082
  100SAPS  H18R10083   5.107   3.531   8.059 -0.0182  1.4386 -1.5590
  100SAPS  H18S10084   5.227   3.414   8.049 -1.8204  0.7090  1.8030
  100SAPS  C21910085   5.036   3.322   8.017  0.1380 -0.9449 -0.3748
  100SAPS  H19R10086   5.089   3.239   7.964 -1.0856 -3.8257  2.5612
  100SAPS  H19S10087   4.943   3.340   7.959  0.7815  1.8975 -0.6273
  100SAPS  C22010088   5.002   3.290   8.162 -0.0201  0.6417 -0.7662
  100SAPS  H20R10089   5.087   3.262   8.227 -2.0133 -0.6109  1.4737
  100SAPS  H20S10090   4.923   3.212   8.172  0.9235 -0.5611 -2.2633
  100SAPS  H20T10091   4.946   3.374   8.210 -0.6942  0.2010 -0.7762
  100SAPS   C3310092   5.325   4.158   7.071 -0.6593 -0.1550 -0.3626
  100SAPS   H3X10093   5.277   4.253   7.038 -1.6036 -1.3387 -2.6500
  100SAPS   H3Y10094   5.434   4.170   7.053 -1.0147  1.4448 -1.7115
  100SAPS   C3410095   5.296   4.126   7.217 -0.0626  0.1743 -0.0014
  100SAPS   H4X10096   5.186   4.117   7.235 -0.5309  2.1094 -1.5210
  100SAPS   H4Y10097   5.318   4.222   7.268 -2.5612  1.7972 -1.7151
  100SAPS   C3510098   5.363   4.009   7.275 -0.4863  0.4393 -0.4944
  100SAPS   H5X10099   5.473   4.021   7.284 -0.6408  0.6001  1.8123
  100SAPS   H5Y10100   5.340   3.917   7.216  0.2159 -1.1684  1.5952
  100SAPS   C3610101   5.316   3.971   7.420  0.0661 -0.4175 -0.1792
  100SAPS   H6X10102   5.375   3.880   7.447  1.0649  1.0332  3.0760
  100SAPS   H6Y10103   5.210   3.941   7.434  0.1899  0.5209  4.2709
  100SAPS   C3710104   5.346   4.089   7.523 -0.6521  0.3998  0.0102
  100SAPS   H7X10105   5.286   4.182   7.512  0.4729  1.2483  0.8243
  100SAPS   H7Y10106   5.446   4.124   7.489 -0.3063 -0.4361  0.1555
  100SAPS   C3810107   5.333   4.055   7.672  0.5860  0.1534  0.3169
  100SAPS   H8X10108   5.390   3.960   7.688  2.5775  0.9667 -1.4550
  100SAPS   H8Y10109   5.226   4.043   7.696  0.9556  1.1527  2.6811
  100SAPS   C3910110   5.398   4.167   7.767  0.3692  0.4108  0.2188
  100SAPS   H9X10111   5.360   4.257   7.715  0.9349 -0.0366 -0.9980
  100SAPS   H9Y10112   5.508   4.157   7.753  0.0551 -0.8238 -1.7001
  100SAPS  C31010113   5.360   4.162   7.912  0.1470 -0.5514  0.3740
  100SAPS  H10X10114   5.253   4.153   7.941  0.3911  0.1201  1.5270
  100SAPS  H10Y10115   5.420   4.237   7.968  1.0388 -1.1404  0.2335
  100SAPS  C31110116   5.433   4.039   7.968 -0.4537 -0.9799  0.6968
  100SAPS  H11X10117   5.541   4.053   7.945 -0.5963 -3.3457 -1.8621
  100SAPS  H11Y10118   5.402   3.951   7.908  0.4030  0.4194 -1.9485
  100SAPS  C31210119   5.415   4.018   8.117  0.2369  0.2511  0.4180
  100SAPS  H12X10120   5.307   4.000   8.136  0.1344 -0.0952 -0.4381
  100SAPS  H12Y10121   5.434   4.113   8.172 -0.0201  0.4226  0.2184
  100SAPS  C31310122   5.503   3.905   8.177  0.2200  0.2288 -0.2120
  100SAPS  H13X10123   5.500   3.911   8.288 -0.1541 -2.2768 -0.0288
  100SAPS  H13Y10124   5.609   3.918   8.146  0.8186 -0.0759  1.6000
  100SAPS  C31410125   5.468   3.760   8.155 -0.2118  0.2160 -0.1735
  100SAPS  H14X10126   5.492   3.743   8.048 -3.5650  1.3884 -1.2145
  100SAPS  H14Y10127   5.358   3.753   8.161 -0.2817  0.1115 -1.3458
  100SAPS  C31510128   5.540   3.658   8.252 -0.4156  0.1045 -0.6060
  100SAPS  H15X10129   5.495   3.670   8.353  1.6938 -1.8690  0.6556
  100SAPS  H15Y10130   5.646   3.678   8.278 -0.6259  0.6090 -0.1069
  100SAPS  C31610131   5.540   3.525   8.193 -0.4648  0.3150 -0.0402
  100SAPS  H16X10132   5.604   3.521   8.102 -1.1775  1.3698 -0.6023
  100SAPS  H16Y10133   5.441   3.487   8.161 -1.1409  1.1718  0.9711
  100SAPS  C31710134   5.603   3.411   8.281  0.1205 -0.6402  0.0771
  100SAPS  H17X10135   5.532   3.375   8.359  0.8692 -2.1360  0.1034
  100SAPS  H17Y10136   5.682   3.466   8.336 -1.1971  0.8557  0.5328
  100SAPS  C31810137   5.640   3.283   8.194 -0.3033  0.1246 -0.1740
  100SAPS  H18X10138   5.724   3.304   8.124 -1.3394  1.4850 -1.0689
  100SAPS  H18Y10139   5.547   3.273   8.134 -0.7185 -2.7524  0.8181
  100SAPS  H18Z10140   5.660   3.200   8.265 -0.5017 -0.4161 -0.7411
  101OSM      N10141   6.610   4.948  11.053 -0.5708 -0.0135  0.3974
  101OSM    C1510142   6.483   4.917  11.120 -0.5155 -0.0189 -0.9944
  101OSM   H15A10143   6.447   5.001  11.177  0.1094 -0.0255 -0.5841
  101OSM   H15B10144   6.497   4.843  11.198 -0.5835  1.8890  0.9134
  101OSM   H15C10145   6.404   4.872  11.062 -1.3132 -1.9190  1.3772
  101OSM    C1410146   6.716   5.016  11.153  0.0851  0.6716 -0.1506
  101OSM   H14A10147   6.737   4.951  11.238 -1.5305  0.2756 -0.0032
  101OSM   H14B10148   6.662   5.098  11.198 -0.1278 -0.8763  2.6940
  101OSM   H14C10149   6.806   5.044  11.102 -1.2585  1.1288 -2.3791
  101OSM    C1310150   6.672   4.822  10.993  1.6955  0.1080  0.1110
  101OSM   H13A10151   6.752   4.842  10.923  0.7041 -1.7023 -1.6491
  101OSM   H13B10152   6.596   4.766  10.942  0.7703  1.3794  0.0536
  101OSM   H13C10153   6.715   4.761  11.071 -1.3137 -1.0683  0.9729
  101OSM    C1210154   6.586   5.047  10.945  0.0283 -0.2223 -0.4653
  101OSM   H12A10155   6.546   5.142  10.976  1.2802 -0.2978  1.4874
  101OSM   H12B10156   6.508   4.991  10.894 -2.5268  0.8667  1.9706
  101OSM    C1110157   6.693   5.072  10.832  0.7105  0.0938 -0.6685
  101OSM   H11A10158   6.786   5.106  10.882  2.4119 -1.6497 -2.4881
  101OSM   H11B10159   6.657   5.159  10.772  1.2845 -0.1093 -1.3177
  101OSM      P10160   6.612   4.907  10.640  0.1463  0.0590  0.4052
  101OSM    O1310161   6.665   4.783  10.578 -0.1689 -0.6350  0.6356
  101OSM    O1410162   6.486   4.889  10.710 -0.0645  0.1683  0.6450
  101OSM    O1110163   6.623   5.020  10.528 -0.1630  0.1513 -0.3677
  101OSM    O1210164   6.717   4.957  10.748  0.0621 -0.1893 -0.0564
  101OSM    C1S10165   6.748   5.078  10.496  0.2245  0.6891 -0.0721
  101OSM    H1S10166   6.823   4.996  10.489 -0.3411  0.2399 -1.0917
  101OSM    H1T10167   6.782   5.165  10.557 -2.0021  1.6967 -0.1863
  101OSM     NF10168   6.877   5.198  10.321  0.4930  0.4460  0.1829
  101OSM    HNF10169   6.880   5.298  10.326 -0.6063  0.4382  2.4460
  101OSM    C2S10170   6.749   5.139  10.352 -0.6337 -0.8017  0.7487
  101OSM    H2S10171   6.733   5.059  10.277  3.8751  0.3164 -1.7407
  101OSM    C3S10172   6.639   5.255  10.334  0.9416 -0.1679 -0.1360
  101OSM    H3S10173   6.659   5.339  10.404  1.2624 -1.3458  1.2385
  101OSM     O310174   6.506   5.205  10.356 -0.3487  0.1352 -0.2952
  101OSM    HO310175   6.524   5.127  10.410 -0.3826  1.2868  1.4658
  101OSM    C4S10176   6.638   5.321  10.202 -0.9086 -0.3980  0.0690
  101OSM    H4S10177   6.709   5.405  10.201  0.9359 -1.5939  4.3843
  101OSM    C5S10178   6.585   5.271  10.090  0.0618 -0.0706  0.0955
  101OSM    H5S10179   6.522   5.182  10.102  0.0185  0.1253  1.5145
  101OSM    C6S10180   6.593   5.322   9.948  1.1144 -0.0177  0.2646
  101OSM    H6S10181   6.509   5.286   9.885 -0.6602  2.0938  1.2330
  101OSM    H6T10182   6.676   5.277   9.891  0.4331 -1.2088  0.1732
  101OSM    C7S10183   6.613   5.474   9.929 -0.2134 -0.2146 -0.7902
  101OSM    H7S10184   6.706   5.503   9.983 -0.2477 -0.0806 -0.8018
  101OSM    H7T10185   6.520   5.523   9.965  0.3739 -1.0154  1.9808
  101OSM    C8S10186   6.632   5.521   9.779  0.2966  0.0829  0.3844
  101OSM    H8S10187   6.712   5.457   9.736  1.3533 -0.3618  2.7939
  101OSM    H8T10188   6.653   5.630   9.780  0.0685  0.1603  2.7092
  101OSM    C9S10189   6.509   5.489   9.686 -0.2243 -0.4306  0.0387
  101OSM    H9S10190   6.432   5.566   9.705  0.6149 -0.2282  3.1900
  101OSM    H9T10191   6.455   5.394   9.708 -0.4452  0.1094  1.9758
  101OSM   C10S10192   6.560   5.484   9.538  0.2989 -0.4278  0.2280
  101OSM   H10S10193   6.621   5.392   9.542 -0.9706 -1.3143 -0.1692
  101OSM   H10T10194   6.622   5.573   9.516 -0.9982  1.0892  2.3123
  101OSM   C11S10195   6.442   5.460   9.435 -0.3752 -0.2413  0.4619
  101OSM   H11S10196   6.367   5.542   9.425  0.0077 -0.0701 -1.2656
  101OSM   H11T10197   6.380   5.373   9.466 -0.2872 -0.4311  0.1059
  101OSM   C12S10198   6.501   5.430   9.304 -1.1794  0.0042  0.0828
  101OSM   H12S10199   6.576   5.349   9.320 -1.9900 -0.3663  2.4169
  101OSM   H12T10200   6.555   5.522   9.272 -1.5292  0.6390  1.2695
  101OSM   C13S10201   6.396   5.408   9.183 -0.2652 -0.4764 -0.5053
  101OSM   H13S10202   6.337   5.500   9.166  0.6544 -0.2233 -2.6986
  101OSM   H13T10203   6.332   5.322   9.213  1.2884 -0.3468  3.9737
  101OSM   C14S10204   6.488   5.380   9.066 -0.2718 -0.4034  0.3660
  101OSM   H14S10205   6.555   5.294   9.089  2.1390  1.3246  0.2402
  101OSM   H14T10206   6.543   5.477   9.055  0.3250 -0.8364 -0.5537
  101OSM   C15S10207   6.420   5.345   8.926  0.2293 -0.0254 -0.6609
  101OSM   H15S10208   6.344   5.421   8.900  0.5502 -0.0960 -1.8467
  101OSM   H15T10209   6.363   5.250   8.934 -1.5951  0.9103 -1.8044
  101OSM   C16S10210   6.532   5.341   8.825 -0.0009 -0.3101 -0.2537
  101OSM   H16S10211   6.576   5.239   8.826 -0.8279 -0.6760 -0.4257
  101OSM   H16T10212   6.611   5.414   8.855 -1.7084  1.8718 -0.7310
  101OSM   C17S10213   6.491   5.378   8.681  1.2720  0.1026 -0.7061
  101OSM   H17S10214   6.429   5.470   8.677  0.6133 -0.2856  0.2895
  101OSM   H17T10215   6.422   5.297   8.647 -1.6078  2.2518 -0.2809
  101OSM   C18S10216   6.603   5.398   8.581  0.5244  0.5158  0.3456
  101OSM   H18S10217   6.565   5.413   8.478  1.2343  2.9239  0.3934
  101OSM   H18T10218   6.663   5.304   8.582 -0.8176 -0.3781  1.1663
  101OSM   H18U10219   6.664   5.490   8.593 -0.5702  1.4198 -0.8169
  101OSM    C1F10220   6.987   5.132  10.308  0.1033 -0.1188  0.3459
  101OSM     OF10221   7.003   5.013  10.322 -0.4710  0.0632 -0.2171
  101OSM    C2F10222   7.101   5.221  10.269 -0.2769 -0.2524  0.3788
  101OSM    H2F10223   7.186   5.198  10.337  0.7109  1.1351 -0.3279
  101OSM    H2G10224   7.081   5.329  10.287 -1.8852 -0.5032  0.2405
  101OSM    C3F10225   7.129   5.200  10.122  0.8652  0.3007 -0.5037
  101OSM    H3F10226   7.165   5.097  10.102  0.8089 -0.0381  0.9784
  101OSM    H3G10227   7.223   5.247  10.087  2.6722 -3.9172 -1.9132
  101OSM    C4F10228   7.011   5.227  10.034  0.3001  0.1871  0.3408
  101OSM    H4F10229   6.952   5.317  10.061 -0.8022  0.0424 -1.4419
  101OSM    H4G10230   6.936   5.145  10.031  1.5002 -0.9546  0.4958
  101OSM    C5F10231   7.068   5.262   9.894  0.8179  0.1163  0.5512
  101OSM    H5F10232   7.164   5.210   9.871  1.3455  0.5454  1.7133
  101OSM    H5G10233   7.101   5.367   9.906  1.1005  0.8726 -4.7113
  101OSM    C6F10234   6.970   5.260   9.779  0.0095  0.3805  0.4890
  101OSM    H6F10235   6.879   5.319   9.803 -1.8888 -0.0004 -4.4914
  101OSM    H6G10236   6.939   5.155   9.762 -0.2754  0.2916  1.4894
  101OSM    C7F10237   7.029   5.323   9.656 -0.3096  0.1610  0.4674
  101OSM    H7F10238   7.099   5.246   9.618 -3.8341 -2.2496 -1.7973
  101OSM    H7G10239   7.078   5.417   9.686  3.5293 -2.0221  1.7712
  101OSM    C8F10240   6.936   5.342   9.537  0.9161  0.7411 -0.8360
  101OSM    H8F10241   6.853   5.413   9.556 -0.1977 -0.7542  0.1564
  101OSM    H8G10242   6.885   5.243   9.536  0.1314  1.0841  1.4052
  101OSM    C9F10243   7.004   5.374   9.406  0.6254 -0.2220 -0.4881
  101OSM    H9F10244   7.102   5.324   9.395 -0.1619 -1.8037 -0.6296
  101OSM   C10F10245   6.971   5.461   9.312  0.2611 -0.4908 -0.5916
  101OSM   H10F10246   7.043   5.478   9.232 -0.4930  2.7939 -0.7512
  101OSM   C11F10247   6.849   5.549   9.293  0.1120  0.7189 -0.3538
  101OSM   H11F10248   6.851   5.653   9.333  0.6873  0.9125 -0.8888
  101OSM   H11G10249   6.760   5.504   9.343 -0.0337  0.7881 -0.5531
  101OSM   C12F10250   6.809   5.578   9.150  0.3081 -0.0377 -0.4103
  101OSM   H12F10251   6.715   5.636   9.155  1.3281  1.5826  2.8074
  101OSM   H12G10252   6.785   5.476   9.113  1.5447 -0.8860  1.0007
  101OSM   C13F10253   6.921   5.627   9.061  0.0892 -0.0354  0.6074
  101OSM   H13F10254   7.005   5.559   9.036  0.0870  0.3669 -0.5547
  101OSM   H13G10255   6.969   5.720   9.097  2.0254 -1.6631  2.5167
  101OSM   C14F10256   6.867   5.649   8.914  0.9239 -0.2899 -0.8478
  101OSM   H14F10257   6.823   5.548   8.896 -0.2874 -0.2673  1.5740
  101OSM   H14G10258   6.962   5.661   8.857 -0.3183  2.6340 -2.4977
  101OSM   C15F10259   6.759   5.752   8.894 -0.0804  0.1694 -0.5927
  101OSM   H15F10260   6.778   5.848   8.946  0.2400 -1.5874  2.8086
  101OSM   H15G10261   6.677   5.717   8.961  1.3591 -2.0961  0.1155
  101OSM   C16F10262   6.697   5.757   8.756  0.7686 -0.1385  0.4845
  101OSM   H16F10263   6.607   5.821   8.744  0.6482 -0.0219  1.8542
  101OSM   H16G10264   6.668   5.657   8.720 -1.7730  0.4940  0.5800
  101OSM   C17F10265   6.800   5.801   8.648 -0.3668 -0.2243 -0.2905
  101OSM   H17F10266   6.889   5.734   8.650 -1.2049 -1.5858  4.3669
  101OSM   H17G10267   6.832   5.901   8.683 -0.9426  0.2981 -1.2228
  101OSM   C18F10268   6.729   5.793   8.514  0.1064  0.2335 -0.9152
  101OSM   H18F10269   6.637   5.856   8.516 -1.1174 -1.3796 -2.9869
  101OSM   H18G10270   6.696   5.688   8.500  0.2524  0.2364 -1.2917
  101OSM   H18H10271   6.791   5.831   8.430  0.0568  0.9644 -0.6274
  102OSM      N10272   3.401   3.504  11.181  0.0196 -0.0520 -0.0043
  102OSM    C1510273   3.333   3.635  11.202  0.4192 -0.4634  0.4981
  102OSM   H15A10274   3.381   3.707  11.138 -0.3179 -1.2902 -1.0513
  102OSM   H15B10275   3.337   3.655  11.308  0.7621 -1.0424  0.6000
  102OSM   H15C10276   3.228   3.628  11.174  0.7150  1.4527 -1.3302
  102OSM    C1410277   3.540   3.510  11.229  0.1088  0.3914 -0.0294
  102OSM   H14A10278   3.583   3.411  11.219  0.9806  0.9009 -1.6084
  102OSM   H14B10279   3.540   3.525  11.336  0.0981 -2.0702  0.3684
  102OSM   H14C10280   3.610   3.573  11.175  1.8367  0.8719  2.5742
  102OSM    C1310281   3.332   3.405  11.267 -0.5581 -0.3617 -0.0872
  102OSM   H13A10282   3.227   3.405  11.242 -0.6916 -0.1485  0.4569
  102OSM   H13B10283   3.336   3.429  11.372 -2.2228 -0.4475  0.0331
  102OSM   H13C10284   3.372   3.305  11.268 -0.3171 -0.3713  3.6335
  102OSM    C1210285   3.389   3.457  11.041  0.3224  0.1779  0.4349
  102OSM   H12A10286   3.286   3.436  11.017 -0.1461  0.9481  1.6756
  102OSM   H12B10287   3.441   3.362  11.031  0.8018  0.6551 -2.3771
  102OSM    C1110288   3.453   3.542  10.932 -0.5823 -0.4546  0.6502
  102OSM   H11A10289   3.388   3.632  10.931  1.0042  0.7535  1.0808
  102OSM   H11B10290   3.444   3.487  10.836  0.5930  1.9545 -0.9433
  102OSM      P10291   3.647   3.711  10.905  0.2349 -0.0091 -0.1582
  102OSM    O1310292   3.542   3.808  10.946 -0.1799  0.2510 -0.3814
  102OSM    O1410293   3.780   3.731  10.971  0.7447  0.0933 -0.0855
  102OSM    O1110294   3.663   3.702  10.747  0.1933  0.3164 -0.3001
  102OSM    O1210295   3.594   3.571  10.953  0.3244 -0.1321 -0.0026
  102OSM    C1S10296   3.717   3.583  10.679 -0.0619  0.7408 -0.2835
  102OSM    H1S10297   3.664   3.492  10.716  1.1156 -0.1142 -0.6611
  102OSM    H1T10298   3.824   3.567  10.703 -0.3562 -1.0054  0.0005
  102OSM     NF10299   3.717   3.463  10.467 -0.1933 -0.0783 -0.0175
  102OSM    HNF10300   3.811   3.429  10.461  0.2878  1.1082  0.3053
  102OSM    C2S10301   3.699   3.595  10.522  1.0748  0.0278 -0.1499
  102OSM    H2S10302   3.595   3.622  10.496 -0.4241 -4.6633 -0.0140
  102OSM    C3S10303   3.800   3.706  10.474  0.5479  0.1564  1.2169
  102OSM    H3S10304   3.902   3.682  10.511  0.9347  1.5685  1.1486
  102OSM     O310305   3.762   3.830  10.527  0.1584  0.2317 -0.2113
  102OSM    HO310306   3.721   3.805  10.610 -0.5146 -2.5889 -1.2779
  102OSM    C4S10307   3.799   3.718  10.322 -0.3872 -0.4939 -0.2596
  102OSM    H4S10308   3.702   3.745  10.279 -0.4860  1.3124  0.9631
  102OSM    C5S10309   3.904   3.685  10.242  0.5691  0.4133  0.2333
  102OSM    H5S10310   4.003   3.655  10.278  1.5438 -0.0078 -2.5189
  102OSM    C6S10311   3.902   3.689  10.087  0.0962  0.1156 -0.5913
  102OSM    H6S10312   3.901   3.799  10.068  0.3878  0.5793  1.7764
  102OSM    H6T10313   3.815   3.644  10.035  0.1476 -0.9409  0.2066
  102OSM    C7S10314   4.036   3.644  10.027  0.3731 -0.0531  0.4695
  102OSM    H7S10315   4.066   3.540  10.054  0.1406 -0.1037  0.5432
  102OSM    H7T10316   4.117   3.716  10.046  0.9426  0.0437 -2.0942
  102OSM    C8S10317   4.033   3.638   9.874 -0.1479 -0.0034 -0.6416
  102OSM    H8S10318   3.971   3.550   9.846 -0.1188  0.0793 -0.9750
  102OSM    H8T10319   4.133   3.617   9.830  0.5729  1.4211  0.2498
  102OSM    C9S10320   3.976   3.757   9.795 -0.0732  0.0331  0.1082
  102OSM    H9S10321   4.000   3.850   9.851  0.6588 -1.3072  2.1422
  102OSM    H9T10322   3.865   3.746   9.793 -0.0508 -0.3214  0.5152
  102OSM   C10S10323   4.027   3.759   9.647  0.4281 -0.6405  0.3644
  102OSM   H10S10324   3.980   3.678   9.588  0.0396 -0.3603  0.2841
  102OSM   H10T10325   4.137   3.756   9.629  0.5420 -0.7365  1.0517
  102OSM   C11S10326   3.972   3.883   9.577  0.7515 -0.1622 -0.0264
  102OSM   H11S10327   4.030   3.970   9.615  0.5896 -0.2649  0.4629
  102OSM   H11T10328   3.867   3.902   9.609  1.1275  0.7455  0.7114
  102OSM   C12S10329   3.975   3.880   9.428 -0.0544  0.6273  0.0261
  102OSM   H12S10330   4.077   3.861   9.387 -0.9042  2.1665 -3.1155
  102OSM   H12T10331   3.951   3.983   9.394  0.5157  1.3382  1.6861
  102OSM   C13S10332   3.862   3.792   9.355  0.0220  0.1787  0.5483
  102OSM   H13S10333   3.881   3.686   9.382 -0.1136 -0.1628 -0.6349
  102OSM   H13T10334   3.879   3.807   9.246 -1.2095  0.7213  0.4167
  102OSM   C14S10335   3.721   3.833   9.375  0.4178  0.1252  0.6032
  102OSM   H14S10336   3.718   3.941   9.347 -0.8377 -0.4028 -1.5210
  102OSM   H14T10337   3.697   3.825   9.483 -1.7098 -0.3848  0.1419
  102OSM   C15S10338   3.617   3.749   9.302 -0.2211  0.3249 -1.0067
  102OSM   H15S10339   3.620   3.647   9.345 -1.5681  1.4321  2.0122
  102OSM   H15T10340   3.653   3.745   9.197  1.5069  1.0826 -0.4860
  102OSM   C16S10341   3.475   3.801   9.304  0.9574 -0.3308  0.1030
  102OSM   H16S10342   3.458   3.909   9.291 -0.7919 -0.6866 -0.8298
  102OSM   H16T10343   3.441   3.781   9.407  0.2651  0.1938 -0.0191
  102OSM   C17S10344   3.393   3.725   9.203  0.0435  0.1761 -0.6361
  102OSM   H17S10345   3.296   3.699   9.251  1.4281 -1.5484  1.4157
  102OSM   H17T10346   3.434   3.624   9.179 -0.8053 -0.3059 -0.1251
  102OSM   C18S10347   3.385   3.803   9.071  0.6021 -0.6996 -0.8628
  102OSM   H18S10348   3.331   3.900   9.078 -0.2312 -1.2215  0.3317
  102OSM   H18T10349   3.336   3.737   8.997  0.1451 -1.5490  0.1648
  102OSM   H18U10350   3.486   3.827   9.033  0.8307 -1.3789 -0.7055
  102OSM    C1F10351   3.618   3.374  10.466 -0.0496 -0.2116 -0.3773
  102OSM     OF10352   3.512   3.409  10.509  0.2721  0.0507 -0.1860
  102OSM    C2F10353   3.644   3.234  10.414  0.6488  0.1121 -0.0244
  102OSM    H2F10354   3.616   3.158  10.490  0.9924  0.9962  1.0016
  102OSM    H2G10355   3.754   3.232  10.394  0.5337  0.9231 -0.7928
  102OSM    C3F10356   3.588   3.205  10.272  0.0387 -0.4297  0.5127
  102OSM    H3F10357   3.478   3.212  10.280 -0.0453 -1.1660  0.1336
  102OSM    H3G10358   3.620   3.099  10.258  0.6862 -0.2078  0.2467
  102OSM    C4F10359   3.624   3.301  10.158 -0.0350  0.5758  0.1801
  102OSM    H4F10360   3.735   3.309  10.164  0.6337 -5.1849  1.8453
  102OSM    H4G10361   3.575   3.400  10.160  2.2364  1.8116 -1.2998
  102OSM    C5F10362   3.597   3.250  10.016  0.1770  0.1789 -0.4019
  102OSM    H5F10363   3.497   3.200  10.012  0.3313 -0.0566 -2.2552
  102OSM    H5G10364   3.672   3.177   9.980  1.0405  0.7329  0.2442
  102OSM    C6F10365   3.594   3.359   9.911  0.1789 -0.2173 -0.5385
  102OSM    H6F10366   3.686   3.421   9.910 -0.7905  1.3181  0.5146
  102OSM    H6G10367   3.516   3.426   9.954 -1.1601 -2.6149  1.0230
  102OSM    C7F10368   3.556   3.304   9.775 -0.4045 -0.1093  0.2437
  102OSM    H7F10369   3.462   3.244   9.772 -0.2650 -0.2896 -0.8117
  102OSM    H7G10370   3.636   3.233   9.747  0.3257  0.2534  1.3316
  102OSM    C8F10371   3.551   3.403   9.667  0.0117 -0.2834  0.1191
  102OSM    H8F10372   3.486   3.482   9.710 -2.0962 -2.1328  0.4824
  102OSM    H8G10373   3.505   3.349   9.581 -0.0594  1.1542 -0.7780
  102OSM    C9F10374   3.685   3.465   9.620  0.1135  0.5005  0.4284
  102OSM    H9F10375   3.702   3.568   9.655 -2.7388  1.3822 -0.5275
  102OSM   C10F10376   3.760   3.414   9.523 -0.7788 -0.4813  0.4061
  102OSM   H10F10377   3.848   3.475   9.497 -1.6753  0.9086  0.4940
  102OSM   C11F10378   3.729   3.292   9.448 -0.4252  0.0275  0.1040
  102OSM   H11F10379   3.655   3.235   9.508  1.9084 -1.1116  2.0844
  102OSM   H11G10380   3.813   3.222   9.464  2.3299  3.3662  1.6487
  102OSM   C12F10381   3.692   3.310   9.301  0.0629  0.1606  0.1692
  102OSM   H12F10382   3.601   3.373   9.295 -0.5157 -0.4668  1.8029
  102OSM   H12G10383   3.659   3.215   9.253 -2.6846  0.4957  1.2414
  102OSM   C13F10384   3.808   3.363   9.210  0.7825 -0.1002  0.0856
  102OSM   H13F10385   3.834   3.468   9.235  1.0089 -0.1361 -0.0009
  102OSM   H13G10386   3.776   3.369   9.104  0.8785 -1.3942 -0.0257
  102OSM   C14F10387   3.933   3.282   9.212 -0.7335 -0.1540 -0.8362
  102OSM   H14F10388   3.912   3.187   9.158  0.0290 -1.4436  1.0110
  102OSM   H14G10389   3.955   3.255   9.318 -0.0370  1.0139 -0.6733
  102OSM   C15F10390   4.040   3.367   9.155  0.1181  0.2831 -0.3653
  102OSM   H15F10391   4.054   3.446   9.231  0.4862 -0.1934  0.0629
  102OSM   H15G10392   4.023   3.412   9.054 -0.8595  0.8812  0.0480
  102OSM   C16F10393   4.163   3.282   9.148 -0.1311  0.5812  0.2000
  102OSM   H16F10394   4.137   3.207   9.070 -1.2679  0.2773  0.8435
  102OSM   H16G10395   4.192   3.222   9.238  0.1479  0.1760 -0.1537
  102OSM   C17F10396   4.292   3.346   9.102 -0.4161 -0.6320  0.2871
  102OSM   H17F10397   4.306   3.439   9.161 -0.4437  0.5776 -1.5462
  102OSM   H17G10398   4.269   3.367   8.996  2.0495 -0.6810 -0.3272
  102OSM   C18F10399   4.415   3.255   9.097  0.4708  0.3841  0.1803
  102OSM   H18F10400   4.397   3.178   9.019  1.9375  0.3691 -0.1816
  102OSM   H18G10401   4.437   3.201   9.192 -1.6428 -1.3056 -0.2202
  102OSM   H18H10402   4.501   3.305   9.046  0.2012 -0.5748 -1.2944
  103OSM      N10403   4.837   6.156  11.207 -0.5512  0.1725 -0.3144
  103OSM    C1510404   4.913   6.265  11.261  0.3552 -0.8570  0.3757
  103OSM   H15A10405   4.847   6.336  11.309 -0.9415 -1.1811 -0.8570
  103OSM   H15B10406   4.958   6.310  11.174 -0.0309  3.1536  2.0145
  103OSM   H15C10407   4.982   6.234  11.338  1.8992  0.9506 -0.2278
  103OSM    C1410408   4.819   6.042  11.310 -0.1348 -0.0121 -0.5967
  103OSM   H14A10409   4.914   6.020  11.356 -0.7429 -3.3636 -0.7072
  103OSM   H14B10410   4.782   5.949  11.272 -2.1860  0.1222  0.9031
  103OSM   H14C10411   4.756   6.083  11.388  0.6103 -0.1844  0.1035
  103OSM    C1310412   4.711   6.206  11.157 -0.4455 -0.0506 -0.8112
  103OSM   H13A10413   4.648   6.253  11.231 -1.1291  1.8798 -2.5380
  103OSM   H13B10414   4.662   6.131  11.097 -0.2765  1.0135 -2.3159
  103OSM   H13C10415   4.727   6.282  11.082 -2.2163  0.5300 -0.6446
  103OSM    C1210416   4.913   6.092  11.094  0.0585  0.3009  0.7194
  103OSM   H12A10417   4.849   6.018  11.047  0.9526 -0.8842  1.3073
  103OSM   H12B10418   4.990   6.028  11.133 -0.5426 -0.9219 -0.0005
  103OSM    C1110419   4.968   6.177  10.977  0.1797 -0.2432  0.4187
  103OSM   H11A10420   4.890   6.243  10.935 -1.0988 -1.0521  1.4586
  103OSM   H11B10421   4.991   6.113  10.888  0.6807  0.1490  0.2641
  103OSM      P10422   5.225   6.192  11.035  0.4430 -0.6170 -0.5357
  103OSM    O1310423   5.310   6.283  11.114  0.1971 -0.7113  0.1596
  103OSM    O1410424   5.204   6.061  11.095  0.0247  0.0784  0.9503
  103OSM    O1110425   5.273   6.182  10.884  0.1514  0.2084  0.6015
  103OSM    O1210426   5.083   6.259  11.024  0.3539 -0.7111  0.2104
  103OSM    C1S10427   5.246   6.302  10.797 -0.5359 -0.0009 -0.3837
  103OSM    H1S10428   5.304   6.391  10.830 -1.5377  0.2026  0.9275
  103OSM    H1T10429   5.138   6.329  10.804 -0.2730  0.7932  1.1519
  103OSM     NF10430   5.263   6.381  10.559  0.3034  0.1002 -0.2454
  103OSM    HNF10431   5.177   6.393  10.510 -0.5837 -1.2909  0.8662
  103OSM    C2S10432   5.271   6.261  10.647 -0.2440 -0.8798  0.6497
  103OSM    H2S10433   5.375   6.221  10.650 -0.2723 -1.1372 -0.9833
  103OSM    C3S10434   5.183   6.142  10.605  0.2864 -0.2832 -0.7213
  103OSM    H3S10435   5.075   6.169  10.602 -0.6806 -3.5593  0.6143
  103OSM     O310436   5.183   6.030  10.691  0.3133 -0.1821  0.1576
  103OSM    HO310437   5.220   6.066  10.772 -0.6796 -0.6782  0.8600
  103OSM    C4S10438   5.216   6.094  10.470  0.1890  0.3564 -0.2147
  103OSM    H4S10439   5.320   6.074  10.442  0.5067  0.9189  0.5082
  103OSM    C5S10440   5.126   6.093  10.369  0.2896  0.2299 -0.6316
  103OSM    H5S10441   5.031   6.144  10.390  0.1237 -0.2832 -0.1153
  103OSM    C6S10442   5.161   6.047  10.226 -0.1845  0.1767 -0.6071
  103OSM    H6S10443   5.080   5.985  10.183  1.0037 -0.7494 -1.5951
  103OSM    H6T10444   5.236   5.965  10.231 -0.7273 -0.2960 -0.0312
  103OSM    C7S10445   5.215   6.148  10.126  0.2099  0.9414  0.0251
  103OSM    H7S10446   5.300   6.190  10.184  0.4936  0.3151  0.0809
  103OSM    H7T10447   5.130   6.217  10.108 -0.9082 -0.4958 -0.3921
  103OSM    C8S10448   5.264   6.068   9.999  0.1429  0.1493 -0.9981
  103OSM    H8S10449   5.175   6.024   9.949 -2.2283  2.5239  0.8458
  103OSM    H8T10450   5.343   5.995  10.026 -2.3975 -2.2755  0.3752
  103OSM    C9S10451   5.319   6.170   9.894  0.0026  0.9689 -0.2147
  103OSM    H9S10452   5.415   6.213   9.928  1.2357 -2.1932  0.7347
  103OSM    H9T10453   5.241   6.247   9.879  0.0990  0.7845 -1.8249
  103OSM   C10S10454   5.341   6.096   9.762 -0.8564  0.4668  0.0698
  103OSM   H10S10455   5.256   6.029   9.740 -0.8809  0.6642 -0.4640
  103OSM   H10T10456   5.435   6.041   9.783 -1.7265 -1.0205  0.1820
  103OSM   C11S10457   5.376   6.186   9.643  0.6694 -0.5233 -0.4774
  103OSM   H11S10458   5.473   6.240   9.642 -0.8969  2.6996 -4.2177
  103OSM   H11T10459   5.295   6.263   9.639  0.5993 -0.5384  0.3708
  103OSM   C12S10460   5.370   6.106   9.512  0.2296 -0.7727  0.1045
  103OSM   H12S10461   5.263   6.080   9.497 -0.3156  0.4913  1.5742
  103OSM   H12T10462   5.425   6.010   9.500  0.0250 -1.0974  1.5679
  103OSM   C13S10463   5.402   6.195   9.385  0.0676  0.5279 -0.1833
  103OSM   H13S10464   5.512   6.204   9.368  0.2163  0.3681  0.6522
  103OSM   H13T10465   5.349   6.293   9.384  0.2730  0.7098  1.9476
  103OSM   C14S10466   5.346   6.123   9.257  0.2122 -0.6841 -0.0184
  103OSM   H14S10467   5.240   6.093   9.271  0.6571 -2.7750 -0.7235
  103OSM   H14T10468   5.391   6.024   9.233 -0.3584 -1.1832  0.9146
  103OSM   C15S10469   5.348   6.212   9.126  0.6012  0.4519 -0.1882
  103OSM   H15S10470   5.331   6.321   9.140 -0.1847  0.3906 -0.5887
  103OSM   H15T10471   5.263   6.186   9.059  0.9178  1.4604 -1.0141
  103OSM   C16S10472   5.482   6.190   9.054 -0.0998  0.2078 -0.1978
  103OSM   H16S10473   5.508   6.082   9.045 -1.8425 -0.2844  0.3275
  103OSM   H16T10474   5.546   6.240   9.130 -1.4731 -0.9830  1.8232
  103OSM   C17S10475   5.477   6.276   8.933  0.0174 -0.1196  0.2983
  103OSM   H17S10476   5.460   6.383   8.955  0.0966  0.0285 -0.3432
  103OSM   H17T10477   5.390   6.246   8.871 -0.8861  1.1719  0.9124
  103OSM   C18S10478   5.603   6.261   8.851 -0.3682 -0.7383 -0.0039
  103OSM   H18S10479   5.592   6.177   8.780 -0.5992 -0.6993 -0.0136
  103OSM   H18T10480   5.697   6.251   8.910 -0.1883 -0.7001 -0.2787
  103OSM   H18U10481   5.614   6.345   8.779 -1.5629  1.0181  1.7468
  103OSM    C1F10482   5.350   6.485  10.571  0.1272 -0.3855 -0.0406
  103OSM     OF10483   5.455   6.488  10.635  0.1262  0.3407 -0.0505
  103OSM    C2F10484   5.303   6.619  10.514  0.5110 -0.1625  0.0040
  103OSM    H2F10485   5.286   6.692  10.596 -0.8051 -0.7005  0.2378
  103OSM    H2G10486   5.214   6.612  10.447  0.8902 -2.5067 -0.3476
  103OSM    C3F10487   5.409   6.680  10.418  0.0326  0.4098  0.0479
  103OSM    H3F10488   5.502   6.693  10.477  0.0679  1.4950 -0.2297
  103OSM    H3G10489   5.372   6.779  10.383  1.0321  1.3144  1.4455
  103OSM    C4F10490   5.440   6.596  10.297 -0.0830  0.1078  0.1157
  103OSM    H4F10491   5.366   6.612  10.216 -1.9001 -0.3786  1.6063
  103OSM    H4G10492   5.428   6.487  10.317 -1.5298 -0.2887 -2.4366
  103OSM    C5F10493   5.584   6.627  10.245  0.0733 -0.4159  0.2811
  103OSM    H5F10494   5.607   6.568  10.154 -2.3235 -1.0853  0.0327
  103OSM    H5G10495   5.650   6.590  10.326 -1.1539 -0.5924  1.2311
  103OSM    C6F10496   5.595   6.776  10.210  0.2692  0.3755 -0.7563
  103OSM    H6F10497   5.604   6.834  10.305 -1.2963  1.7810 -1.4000
  103OSM    H6G10498   5.494   6.798  10.169 -0.8383  1.0190  2.0459
  103OSM    C7F10499   5.707   6.813  10.118 -0.3097  0.5466 -0.0419
  103OSM    H7F10500   5.672   6.791  10.015 -1.3289  0.3941  0.3257
  103OSM    H7G10501   5.792   6.742  10.130  0.6091  1.6006 -0.0989
  103OSM    C8F10502   5.759   6.959  10.132  0.3974 -0.1514 -0.3652
  103OSM    H8F10503   5.856   6.987  10.085  0.6408  2.2726  1.4164
  103OSM    H8G10504   5.785   6.976  10.238  2.9538  2.9816 -1.3184
  103OSM    C9F10505   5.651   7.062  10.104 -0.5898  0.6997 -0.3070
  103OSM    H9F10506   5.606   7.104  10.195  0.5613 -1.4333  1.3405
  103OSM   C10F10507   5.597   7.108   9.993  0.0804  0.5113  0.2998
  103OSM   H10F10508   5.518   7.183  10.009 -2.0569 -1.5328 -0.0985
  103OSM   C11F10509   5.624   7.072   9.844  0.1028  0.3930 -0.3087
  103OSM   H11F10510   5.681   6.977   9.832  2.9549  2.2961 -3.3299
  103OSM   H11G10511   5.672   7.157   9.791 -3.2851  1.5126 -1.9504
  103OSM   C12F10512   5.493   7.066   9.761  0.3034 -0.0839 -0.0334
  103OSM   H12F10513   5.447   7.167   9.754 -2.1962 -1.1227  0.2941
  103OSM   H12G10514   5.419   7.012   9.824 -0.5242  1.7731  0.6478
  103OSM   C13F10515   5.512   7.001   9.618  0.1034  0.1912 -0.0632
  103OSM   H13F10516   5.543   6.896   9.637  0.5411  0.1068 -1.1705
  103OSM   H13G10517   5.416   7.004   9.561 -1.1147 -1.8053  1.7475
  103OSM   C14F10518   5.628   7.067   9.540  0.7069 -0.6485 -0.2560
  103OSM   H14F10519   5.722   7.042   9.594  0.7924  1.8822  0.9241
  103OSM   H14G10520   5.601   7.175   9.544  2.1642 -0.2649  0.1129
  103OSM   C15F10521   5.656   7.019   9.396  0.8812  0.0907  0.3048
  103OSM   H15F10522   5.566   7.048   9.338  0.1964  0.9506  1.7480
  103OSM   H15G10523   5.665   6.908   9.399  0.0192 -0.0459 -1.1486
  103OSM   C16F10524   5.787   7.079   9.342  0.6903  0.4156  0.6312
  103OSM   H16F10525   5.867   7.062   9.417  0.0133  1.4784  1.6206
  103OSM   H16G10526   5.779   7.189   9.333  0.8807  0.4199  0.4968
  103OSM   C17F10527   5.821   7.013   9.213 -0.7596 -0.2137 -0.6852
  103OSM   H17F10528   5.738   7.040   9.144 -0.8686 -0.7564 -0.7670
  103OSM   H17G10529   5.830   6.903   9.225  2.4905 -0.2252 -1.9581
  103OSM   C18F10530   5.952   7.059   9.155  0.1939 -0.4073  0.2512
  103OSM   H18F10531   6.032   7.065   9.231 -1.0763 -2.3884  1.8300
  103OSM   H18G10532   5.935   7.157   9.104  0.7986 -0.9228 -0.9869
  103OSM   H18H10533   5.990   6.990   9.076 -0.8767  1.9152 -2.4878
  104OSM      N10534   3.225   6.545  10.993 -0.1692 -0.1942 -0.7197
  104OSM    C1510535   3.157   6.659  11.061  0.7014  0.8009  0.3117
  104OSM   H15A10536   3.228   6.739  11.074  1.6310 -0.0659  0.6989
  104OSM   H15B10537   3.123   6.621  11.156  1.2236 -2.0543 -0.5422
  104OSM   H15C10538   3.071   6.697  11.007  0.1430 -1.6741 -0.6729
  104OSM    C1410539   3.344   6.504  11.072 -0.4056 -0.7357  0.1610
  104OSM   H14A10540   3.404   6.427  11.026 -0.1207 -2.1281  2.6887
  104OSM   H14B10541   3.305   6.473  11.168  1.1612  0.5225  1.2330
  104OSM   H14C10542   3.409   6.588  11.086 -0.9255 -0.1895 -0.5884
  104OSM    C1310543   3.135   6.423  10.997 -0.0467 -0.1223 -0.0924
  104OSM   H13A10544   3.042   6.437  10.945 -0.0632  0.1007 -0.0058
  104OSM   H13B10545   3.119   6.380  11.095 -0.8138 -0.8034 -0.5091
  104OSM   H13C10546   3.182   6.338  10.950  0.8282  1.3452 -1.9977
  104OSM    C1210547   3.254   6.583  10.846 -0.8345  0.2177 -0.1609
  104OSM   H12A10548   3.281   6.688  10.849  1.6354 -0.2889 -1.4014
  104OSM   H12B10549   3.169   6.567  10.782  1.6243 -0.5924 -3.5256
  104OSM    C1110550   3.362   6.500  10.774  0.8291 -0.0404 -0.1469
  104OSM   H11A10551   3.346   6.523  10.666 -2.1116  1.1036  0.4388
  104OSM   H11B10552   3.340   6.392  10.790 -0.6401  0.2022 -0.4084
  104OSM      P10553   3.556   6.669  10.751 -0.0812  0.3132 -0.2254
  104OSM    O1310554   3.466   6.781  10.757  0.0410  0.1799  0.1569
  104OSM    O1410555   3.693   6.682  10.809 -0.8464  0.3564  0.2237
  104OSM    O1110556   3.571   6.624  10.598 -0.1807 -0.5839  0.4991
  104OSM    O1210557   3.491   6.540  10.823 -0.1657 -0.9556  0.1884
  104OSM    C1S10558   3.628   6.494  10.570 -0.5225 -0.2027  0.0435
  104OSM    H1S10559   3.596   6.406  10.630  0.2128 -0.8750 -0.5209
  104OSM    H1T10560   3.736   6.498  10.597 -0.5645  1.6040  0.0814
  104OSM     NF10561   3.695   6.328  10.397 -0.6200  0.5730 -0.0866
  104OSM    HNF10562   3.789   6.332  10.365 -0.2344 -1.9182  0.5124
  104OSM    C2S10563   3.623   6.455  10.417 -0.3427 -0.3266  0.1244
  104OSM    H2S10564   3.519   6.445  10.380 -0.5454 -0.7000  0.7777
  104OSM    C3S10565   3.685   6.573  10.333  0.3950  0.1845  0.2740
  104OSM    H3S10566   3.791   6.585  10.365  0.4115 -1.6677  1.0285
  104OSM     O310567   3.616   6.697  10.344  0.1613 -0.3876 -0.4230
  104OSM    HO310568   3.576   6.692  10.431 -1.9718  3.0848 -1.0168
  104OSM    C4S10569   3.686   6.526  10.193  0.3265  1.5796 -0.2293
  104OSM    H4S10570   3.742   6.435  10.170  0.0721  1.3933 -0.1234
  104OSM    C5S10571   3.614   6.572  10.092 -0.2119 -0.9483  0.0624
  104OSM    H5S10572   3.549   6.660  10.102  0.6524 -0.0693 -1.5707
  104OSM    C6S10573   3.617   6.515   9.953 -1.0270 -0.0044  0.1888
  104OSM    H6S10574   3.512   6.517   9.918 -0.5856 -0.4962 -1.2295
  104OSM    H6T10575   3.637   6.406   9.947 -1.6196 -0.0529 -3.9972
  104OSM    C7S10576   3.701   6.602   9.854 -0.7225  0.0291  0.0477
  104OSM    H7S10577   3.810   6.591   9.877 -0.6433 -0.7858 -0.6766
  104OSM    H7T10578   3.671   6.708   9.859  0.0003  0.3581 -1.9417
  104OSM    C8S10579   3.672   6.558   9.718 -0.7436 -0.2658 -0.1710
  104OSM    H8S10580   3.566   6.583   9.697 -0.1225  0.1892 -3.3418
  104OSM    H8T10581   3.677   6.448   9.705  1.4800 -0.1242 -0.8183
  104OSM    C9S10582   3.755   6.633   9.621 -0.1850 -0.3289  0.0665
  104OSM    H9S10583   3.863   6.638   9.649 -0.4798  2.1956  0.9951
  104OSM    H9T10584   3.725   6.738   9.599 -0.4118 -0.2401  0.7882
  104OSM   C10S10585   3.732   6.559   9.485 -0.4829  1.0144 -0.2066
  104OSM   H10S10586   3.627   6.553   9.450 -0.4981  0.5958 -0.0901
  104OSM   H10T10587   3.758   6.454   9.508  0.1289  1.5428  1.7218
  104OSM   C11S10588   3.822   6.616   9.369 -0.0508  1.0250 -0.5508
  104OSM   H11S10589   3.927   6.580   9.379 -0.9093 -2.1069 -1.5770
  104OSM   H11T10590   3.819   6.726   9.381  0.6489  0.9480  0.4658
  104OSM   C12S10591   3.777   6.580   9.223  0.0372 -0.0337 -0.8173
  104OSM   H12S10592   3.673   6.619   9.221  0.3141  1.6855  4.2891
  104OSM   H12T10593   3.772   6.469   9.220 -0.0021 -0.0657  0.2100
  104OSM   C13S10594   3.872   6.645   9.127  0.3875  0.3767 -0.5858
  104OSM   H13S10595   3.902   6.562   9.061  3.0707 -0.0071  0.9551
  104OSM   H13T10596   3.958   6.699   9.174  1.6149 -0.6422 -1.5850
  104OSM   C14S10597   3.804   6.756   9.039 -0.2396  0.5012 -0.8788
  104OSM   H14S10598   3.745   6.812   9.115  0.4369  0.8266 -0.5818
  104OSM   H14T10599   3.718   6.706   8.991 -1.1036  2.3675 -1.3705
  104OSM   C15S10600   3.882   6.839   8.943 -0.0406 -0.0861 -0.5256
  104OSM   H15S10601   3.834   6.938   8.924 -1.5622 -0.5932  0.4817
  104OSM   H15T10602   3.889   6.782   8.849  0.1916 -0.8298 -0.0670
  104OSM   C16S10603   4.029   6.857   8.991 -0.0774 -0.5123  0.5429
  104OSM   H16S10604   4.081   6.759   8.984  0.9052  0.0380 -0.1107
  104OSM   H16T10605   4.028   6.898   9.094 -1.3985  0.5351  0.1404
  104OSM   C17S10606   4.107   6.953   8.897  0.0693 -0.0733 -0.5426
  104OSM   H17S10607   4.187   6.991   8.964  0.6942  1.5929 -2.1492
  104OSM   H17T10608   4.057   7.051   8.882  1.2859  0.3169 -2.4359
  104OSM   C18S10609   4.167   6.894   8.772  0.6217 -0.4100  0.1360
  104OSM   H18S10610   4.156   6.783   8.766 -4.0367 -0.0938 -0.8802
  104OSM   H18T10611   4.273   6.927   8.765 -0.4677  3.3397 -1.2706
  104OSM   H18U10612   4.121   6.928   8.677  0.6514 -2.0445 -0.5097
  104OSM    C1F10613   3.632   6.208  10.418  0.0618  0.7656 -0.4676
  104OSM     OF10614   3.518   6.198  10.460  1.1536 -0.3088 -0.0603
  104OSM    C2F10615   3.702   6.085  10.385 -0.6538  0.9935 -0.1241
  104OSM    H2F10616   3.708   6.009  10.467 -1.8061  0.1047 -0.8189
  104OSM    H2G10617   3.808   6.101  10.360 -1.3175  1.1341 -3.2589
  104OSM    C3F10618   3.640   6.020  10.258 -0.7489  0.0742 -0.5106
  104OSM    H3F10619   3.535   5.986  10.266 -0.7628  0.3335  0.6391
  104OSM    H3G10620   3.698   5.928  10.233  0.7803  1.4105 -2.2227
  104OSM    C4F10621   3.669   6.114  10.134  0.6427 -0.1485  0.2450
  104OSM    H4F10622   3.771   6.157  10.136 -0.0720  1.6437 -0.0066
  104OSM    H4G10623   3.588   6.189  10.133  1.1812  0.4492  0.7024
  104OSM    C5F10624   3.670   6.018  10.008 -0.2208  0.4977 -0.3395
  104OSM    H5F10625   3.600   5.932  10.024  1.3373 -1.4764 -3.1817
  104OSM    H5G10626   3.766   5.963  10.000 -0.6040 -0.2625  0.0740
  104OSM    C6F10627   3.632   6.078   9.880 -0.5133 -0.6105 -0.3112
  104OSM    H6F10628   3.699   6.167   9.873  1.4688 -1.8974  1.1944
  104OSM    H6G10629   3.522   6.095   9.882 -0.6838 -1.7067  0.4126
  104OSM    C7F10630   3.664   5.994   9.755  0.3375  0.4096  0.5325
  104OSM    H7F10631   3.582   5.920   9.741  0.1299  0.6613  0.4263
  104OSM    H7G10632   3.761   5.940   9.770  0.3163  0.6069  1.4263
  104OSM    C8F10633   3.689   6.069   9.619 -0.4059 -0.2368 -0.7548
  104OSM    H8F10634   3.779   6.128   9.648 -0.0922 -0.6300 -0.9059
  104OSM    H8G10635   3.601   6.135   9.619  1.0639  1.8185 -0.1588
  104OSM    C9F10636   3.704   5.974   9.499  0.2979 -0.3222  0.4707
  104OSM    H9F10637   3.671   5.870   9.514 -1.6101  0.1091 -0.4812
  104OSM   C10F10638   3.786   5.981   9.390  0.1632  0.7043 -0.0884
  104OSM   H10F10639   3.771   5.904   9.313  0.6974  0.4975  0.0104
  104OSM   C11F10640   3.881   6.092   9.357  0.6438  0.1232  0.4423
  104OSM   H11F10641   3.833   6.191   9.369  0.2986  0.1984 -1.3249
  104OSM   H11G10642   3.914   6.095   9.251 -0.5661  3.5575  0.0390
  104OSM   C12F10643   4.004   6.104   9.439  0.1575  0.2287  0.1291
  104OSM   H12F10644   3.979   6.086   9.546 -1.1894  0.5523 -0.1146
  104OSM   H12G10645   4.044   6.208   9.430  1.6828 -0.4753 -1.8081
  104OSM   C13F10646   4.119   6.000   9.399 -0.0051  0.6589 -0.8999
  104OSM   H13F10647   4.136   6.015   9.290  0.3939 -0.9268 -1.0771
  104OSM   H13G10648   4.080   5.897   9.405  1.2674  0.1918 -0.4754
  104OSM   C14F10649   4.243   6.019   9.479 -0.4098  0.0550  0.5025
  104OSM   H14F10650   4.290   6.118   9.464 -2.2189  1.1143  1.4817
  104OSM   H14G10651   4.322   5.946   9.450 -1.0756 -0.3913 -0.2155
  104OSM   C15F10652   4.219   6.011   9.629 -0.2835  0.3266 -0.0839
  104OSM   H15F10653   4.169   6.102   9.669 -0.3547  0.0517  0.4630
  104OSM   H15G10654   4.320   6.011   9.675 -0.6128  1.3490  0.6919
  104OSM   C16F10655   4.155   5.878   9.687 -0.0035 -0.5446 -0.3276
  104OSM   H16F10656   4.190   5.784   9.639 -1.1676 -0.8187 -0.6716
  104OSM   H16G10657   4.044   5.879   9.681 -0.1863 -2.0912  1.7899
  104OSM   C17F10658   4.192   5.860   9.836  0.6686 -0.4714  0.2571
  104OSM   H17F10659   4.300   5.839   9.850  0.5779 -0.1280  1.5737
  104OSM   H17G10660   4.146   5.766   9.874  0.7151 -0.1234  1.1917
  104OSM   C18F10661   4.150   5.979   9.931 -0.3407 -0.3357 -0.2304
  104OSM   H18F10662   4.222   6.062   9.916 -0.1462 -0.0568  2.0182
  104OSM   H18G10663   4.147   5.951  10.038 -0.6152  2.4582  0.5850
  104OSM   H18H10664   4.046   6.014   9.913 -0.7281 -0.2981  1.8769
  105OSM      N10665   3.056   5.712  11.204 -0.4014  0.4695  0.2819
  105OSM    C1510666   3.143   5.591  11.230 -0.5683 -0.6410  0.5338
  105OSM   H15A10667   3.235   5.612  11.176  0.4675  0.0776  2.4672
  105OSM   H15B10668   3.103   5.502  11.185 -1.2538  0.0278 -0.2141
  105OSM   H15C10669   3.170   5.576  11.333  0.0283 -2.6640  0.1207
  105OSM    C1410670   2.955   5.723  11.305 -0.1928  0.2422 -0.0940
  105OSM   H14A10671   2.888   5.638  11.314 -0.9391  0.9263  1.1314
  105OSM   H14B10672   2.889   5.808  11.296  0.1275  0.5692  0.5985
  105OSM   H14C10673   3.004   5.734  11.400 -1.4208  0.3946  0.5515
  105OSM    C1310674   3.143   5.835  11.206  0.5401  0.4714  0.2691
  105OSM   H13A10675   3.186   5.857  11.302  1.4203  1.8415 -0.4064
  105OSM   H13B10676   3.078   5.921  11.193  0.2204  0.0950 -0.7005
  105OSM   H13C10677   3.218   5.840  11.129  1.9928 -0.5274  1.5763
  105OSM    C1210678   2.992   5.715  11.066  0.2847  0.0802 -0.4427
  105OSM   H12A10679   2.935   5.806  11.059 -0.5172 -0.4978 -2.2356
  105OSM   H12B10680   2.926   5.631  11.052  2.8412 -2.0152 -0.8849
  105OSM    C1110681   3.088   5.702  10.944  0.4743  0.2300  0.0742
  105OSM   H11A10682   3.164   5.782  10.943  1.6184 -0.7965  1.1255
  105OSM   H11B10683   3.020   5.712  10.857  1.1902  2.3352 -0.2870
  105OSM      P10684   3.100   5.439  10.908 -0.1181 -0.0334  0.2622
  105OSM    O1310685   3.207   5.341  10.949 -0.4890  0.3286  0.2353
  105OSM    O1410686   2.967   5.426  10.976 -0.8373  0.0876 -0.6981
  105OSM    O1110687   3.077   5.449  10.747  0.7147 -0.2268  0.3848
  105OSM    O1210688   3.168   5.582  10.938 -0.9934 -0.2999 -0.1475
  105OSM    C1S10689   3.175   5.521  10.665  0.9356 -0.5389 -0.2311
  105OSM    H1S10690   3.282   5.503  10.689  0.9828  1.8850  1.9132
  105OSM    H1T10691   3.160   5.631  10.673  1.4469 -0.4954  0.1807
  105OSM     NF10692   3.272   5.528  10.437 -0.0335 -0.2096 -0.2543
  105OSM    HNF10693   3.263   5.617  10.393 -0.5443 -1.2073 -2.3225
  105OSM    C2S10694   3.163   5.484  10.518  0.2284  0.3525 -0.4039
  105OSM    H2S10695   3.154   5.374  10.502 -1.0657  0.2541  0.7923
  105OSM    C3S10696   3.032   5.542  10.465  0.2203  0.0542  0.9699
  105OSM    H3S10697   3.034   5.650  10.489 -1.2440  0.3875 -0.2900
  105OSM     O310698   2.918   5.479  10.525 -0.1912  0.1048 -0.2945
  105OSM    HO310699   2.947   5.452  10.612 -1.2671 -0.1691 -0.0168
  105OSM    C4S10700   3.021   5.524  10.318 -0.1856  0.1973  0.2288
  105OSM    H4S10701   3.068   5.601  10.255 -1.0309 -0.2541 -0.9795
  105OSM    C5S10702   2.956   5.426  10.249 -0.6253 -0.3129 -0.2578
  105OSM    H5S10703   2.890   5.352  10.297 -2.1507  0.7673 -0.6000
  105OSM    C6S10704   2.950   5.417  10.095  0.0892  0.0347 -0.4160
  105OSM    H6S10705   2.861   5.467  10.053 -0.0809 -0.8915 -1.1912
  105OSM    H6T10706   2.941   5.310  10.069 -1.9451  0.0361  0.1157
  105OSM    C7S10707   3.081   5.471  10.035 -0.7215 -0.4317 -0.8318
  105OSM    H7S10708   3.166   5.420  10.086 -0.0987  2.1583  0.9026
  105OSM    H7T10709   3.112   5.572  10.067  3.4845 -2.1920  1.5525
  105OSM    C8S10710   3.096   5.453   9.885 -1.0995  0.7623 -0.1401
  105OSM    H8S10711   3.130   5.349   9.863  1.2457  1.5585 -0.5335
  105OSM    H8T10712   3.168   5.524   9.839  1.1539 -2.0626 -1.3468
  105OSM    C9S10713   2.968   5.467   9.803 -0.1608  0.7331  1.3952
  105OSM    H9S10714   2.935   5.572   9.789  0.9361  0.9482  0.2779
  105OSM    H9T10715   2.893   5.399   9.849  1.4252 -2.3583 -0.3257
  105OSM   C10S10716   2.991   5.413   9.660  0.0385 -0.4969 -0.3355
  105OSM   H10S10717   2.974   5.303   9.659  1.0010 -0.6594 -0.2089
  105OSM   H10T10718   3.100   5.412   9.639  0.0167 -3.3356 -0.7907
  105OSM   C11S10719   2.918   5.495   9.556 -0.5930  0.3130  0.3532
  105OSM   H11S10720   2.952   5.598   9.579 -0.2508 -0.1592  2.0735
  105OSM   H11T10721   2.808   5.485   9.568 -0.7937 -0.8310 -1.7719
  105OSM   C12S10722   2.953   5.449   9.417  0.3150  0.1273  0.4462
  105OSM   H12S10723   2.948   5.338   9.413  1.5349  0.0930 -1.6663
  105OSM   H12T10724   3.057   5.487   9.406  0.1359  0.7581  0.8782
  105OSM   C13S10725   2.864   5.509   9.306 -0.7373 -0.8695  0.3943
  105OSM   H13S10726   2.862   5.619   9.319 -1.0938 -0.7346 -0.7158
  105OSM   H13T10727   2.759   5.478   9.324 -1.4066 -0.1906 -2.0419
  105OSM   C14S10728   2.918   5.473   9.169 -0.4253 -0.7452  0.2289
  105OSM   H14S10729   2.915   5.362   9.161  0.6886 -0.8410  0.9137
  105OSM   H14T10730   3.023   5.504   9.152 -0.6301 -0.2520 -0.1380
  105OSM   C15S10731   2.829   5.520   9.061  0.3014  0.2948  0.2305
  105OSM   H15S10732   2.791   5.623   9.077 -0.6557  0.0635 -0.4842
  105OSM   H15T10733   2.732   5.466   9.063  0.6230 -0.3909 -1.2778
  105OSM   C16S10734   2.883   5.485   8.919 -0.1077 -0.0623 -0.6765
  105OSM   H16S10735   2.828   5.540   8.840 -1.0226  2.4745  1.5535
  105OSM   H16T10736   2.867   5.378   8.895 -0.4936 -0.9776  3.0615
  105OSM   C17S10737   3.035   5.511   8.907 -0.1896 -0.0746 -0.2887
  105OSM   H17S10738   3.094   5.429   8.955 -0.0592  0.4470  0.4539
  105OSM   H17T10739   3.059   5.608   8.955  2.5885  0.0595 -1.7319
  105OSM   C18S10740   3.092   5.509   8.761  0.9903  0.0753  0.2136
  105OSM   H18S10741   3.039   5.435   8.696  0.0157  0.1053  0.9566
  105OSM   H18T10742   3.196   5.472   8.757  0.7030 -0.7246 -0.0875
  105OSM   H18U10743   3.063   5.608   8.718  2.0048 -0.4104 -1.7002
  105OSM    C1F10744   3.393   5.473  10.432  0.3156  0.9414  0.6733
  105OSM     OF10745   3.409   5.373  10.497  0.1789  0.2863  0.4750
  105OSM    C2F10746   3.497   5.530  10.341 -0.3744 -0.0555  0.4996
  105OSM    H2F10747   3.595   5.482  10.360  0.8106  1.9090 -0.3734
  105OSM    H2G10748   3.502   5.636  10.375  2.9466 -0.6513  2.3211
  105OSM    C3F10749   3.461   5.509  10.195  0.5618 -0.4046  0.8631
  105OSM    H3F10750   3.363   5.549  10.161 -0.2842 -3.2041 -0.2830
  105OSM    H3G10751   3.452   5.401  10.173  1.1586 -0.0151 -1.7578
  105OSM    C4F10752   3.583   5.556  10.111  0.3007 -0.9582  0.2211
  105OSM    H4F10753   3.684   5.529  10.149  0.4072  0.3018  0.9021
  105OSM    H4G10754   3.582   5.667  10.116  0.2600 -0.7368 -2.8149
  105OSM    C5F10755   3.576   5.519   9.962  0.0155  0.4173  0.2696
  105OSM    H5F10756   3.481   5.562   9.923  0.3766  1.3229  0.3645
  105OSM    H5G10757   3.560   5.409   9.955  0.8486  0.0708  2.7508
  105OSM    C6F10758   3.687   5.582   9.878  0.5094  0.9868 -0.1401
  105OSM    H6F10759   3.783   5.548   9.922  0.3289  1.2723  0.4917
  105OSM    H6G10760   3.686   5.693   9.891  0.1812  0.8829  0.8398
  105OSM    C7F10761   3.672   5.555   9.729 -0.0393  0.3500  0.2653
  105OSM    H7F10762   3.724   5.633   9.669  0.2742 -0.8921 -1.1394
  105OSM    H7G10763   3.564   5.562   9.705  0.3282  0.1200 -1.6844
  105OSM    C8F10764   3.713   5.406   9.680  0.7827  0.5780 -0.0072
  105OSM    H8F10765   3.673   5.332   9.753  1.9091  1.5729  1.7029
  105OSM    H8G10766   3.824   5.398   9.684  0.6331 -2.0225  1.3785
  105OSM    C9F10767   3.663   5.393   9.541  1.2205  1.0822 -0.3729
  105OSM    H9F10768   3.557   5.422   9.540  0.9094  0.6279  3.5142
  105OSM   C10F10769   3.725   5.347   9.431  0.3704 -0.1749 -0.1559
  105OSM   H10F10770   3.661   5.342   9.341 -1.4571  1.5466  0.9594
  105OSM   C11F10771   3.870   5.294   9.428  0.6781 -0.6607  0.1010
  105OSM   H11F10772   3.871   5.216   9.348 -3.5899 -0.3008 -0.5785
  105OSM   H11G10773   3.901   5.244   9.522 -1.5428 -2.1735  0.1234
  105OSM   C12F10774   3.976   5.408   9.395  0.0573  0.7600  0.6008
  105OSM   H12F10775   4.072   5.365   9.432  0.6896  0.4490 -1.2717
  105OSM   H12G10776   3.957   5.502   9.451 -2.1701  0.6952  0.0561
  105OSM   C13F10777   3.980   5.443   9.250  0.3880  0.2119  0.3243
  105OSM   H13F10778   3.877   5.479   9.229  1.0448  2.1664  0.3191
  105OSM   H13G10779   3.982   5.353   9.185  0.5024  0.0691  0.5225
  105OSM   C14F10780   4.074   5.553   9.229 -0.3477 -0.5936  0.5359
  105OSM   H14F10781   4.171   5.512   9.266 -0.4760 -1.2447  0.1713
  105OSM   H14G10782   4.048   5.630   9.304  0.3565  0.4355 -0.2494
  105OSM   C15F10783   4.096   5.601   9.075  0.7148  0.6109  0.2761
  105OSM   H15F10784   4.143   5.530   9.005 -0.2914  2.0275 -1.9414
  105OSM   H15G10785   4.181   5.672   9.086  1.5962 -0.6573  2.3956
  105OSM   C16F10786   3.972   5.670   9.013  0.1592 -0.1085  0.2848
  105OSM   H16F10787   3.920   5.722   9.096 -1.4546  1.1043 -1.3981
  105OSM   H16G10788   3.908   5.589   8.973  1.9260 -0.5834 -1.7351
  105OSM   C17F10789   4.015   5.768   8.903  0.1037 -0.0654  0.4135
  105OSM   H17F10790   3.930   5.778   8.832  0.9593 -0.6930 -0.7438
  105OSM   H17G10791   4.102   5.727   8.846 -1.1138  0.2832 -1.8169
  105OSM   C18F10792   4.038   5.896   8.975 -0.1403 -0.3087 -0.5655
  105OSM   H18F10793   4.131   5.884   9.035 -0.1367  0.0092 -0.5059
  105OSM   H18G10794   3.948   5.927   9.033  1.6921 -0.1205  2.4286
  105OSM   H18H10795   4.049   5.975   8.898 -0.9441  0.0064 -0.3753
  106OSM      N10796   4.793   3.541  10.948  0.6054 -0.6133  0.0184
  106OSM    C1510797   4.820   3.423  10.853 -0.4128 -0.2281  0.6090
  106OSM   H15A10798   4.921   3.436  10.818 -0.3721  0.0909  0.8408
  106OSM   H15B10799   4.754   3.440  10.770 -0.6998  0.5422  0.9900
  106OSM   H15C10800   4.810   3.323  10.894 -1.4499 -0.2305  0.3628
  106OSM    C1410801   4.895   3.524  11.055  0.5210 -0.1633 -0.3000
  106OSM   H14A10802   4.891   3.603  11.129  1.3829 -0.1243 -0.2841
  106OSM   H14B10803   4.993   3.518  11.011  0.0483  2.8980 -2.0485
  106OSM   H14C10804   4.881   3.438  11.120  1.1936 -0.2844 -0.3107
  106OSM    C1310805   4.828   3.662  10.866 -0.1899 -1.0853 -0.1797
  106OSM   H13A10806   4.933   3.654  10.841 -0.7171 -3.6709 -2.0712
  106OSM   H13B10807   4.822   3.753  10.923  1.4147 -1.3393  0.4197
  106OSM   H13C10808   4.761   3.666  10.781  0.4900  0.4591 -0.6666
  106OSM    C1210809   4.647   3.553  11.003  0.3525 -0.0884  0.1961
  106OSM   H12A10810   4.632   3.638  11.068  1.4230  0.1456  0.1612
  106OSM   H12B10811   4.623   3.466  11.062  3.2538 -2.2447 -1.5011
  106OSM    C1110812   4.544   3.566  10.890 -0.2753  0.7160 -0.3029
  106OSM   H11A10813   4.554   3.484  10.817 -0.9371 -0.4443  0.8746
  106OSM   H11B10814   4.572   3.655  10.829  1.5762  0.2462 -0.1758
  106OSM      P10815   4.301   3.669  10.916 -0.1177 -0.0287 -0.1710
  106OSM    O1310816   4.175   3.615  10.972 -0.2423  0.2961  0.5638
  106OSM    O1410817   4.335   3.803  10.960 -0.1896 -0.2785  0.1359
  106OSM    O1110818   4.289   3.671  10.759 -0.1443 -0.2744  0.2453
  106OSM    O1210819   4.415   3.567  10.956  0.6399  0.0582  0.3326
  106OSM    C1S10820   4.247   3.547  10.695 -0.1177 -1.2123 -0.2407
  106OSM    H1S10821   4.146   3.515  10.729  0.9839 -1.9521  2.5325
  106OSM    H1T10822   4.301   3.460  10.739 -3.5759 -3.5812 -0.2667
  106OSM     NF10823   4.227   3.446  10.460  0.0604 -0.3603  0.2665
  106OSM    HNF10824   4.301   3.393  10.419 -0.8926 -1.2627 -0.3425
  106OSM    C2S10825   4.271   3.563  10.536 -0.1055  0.2686  0.2473
  106OSM    H2S10826   4.206   3.645  10.498  0.2488  0.7738  0.7221
  106OSM    C3S10827   4.421   3.590  10.509 -0.1875  0.8541  0.0587
  106OSM    H3S10828   4.483   3.504  10.543 -1.2205  1.2752  3.4734
  106OSM     O310829   4.479   3.693  10.583 -0.2666 -0.2051 -0.4000
  106OSM    HO310830   4.412   3.717  10.646  0.4226  2.6878 -0.5979
  106OSM    C4S10831   4.453   3.620  10.361 -0.5070  0.0999  0.2033
  106OSM    H4S10832   4.497   3.527  10.322 -0.1590 -0.7326  2.4181
  106OSM    C5S10833   4.447   3.737  10.298  0.5186 -0.7554 -0.3499
  106OSM    H5S10834   4.410   3.829  10.345 -0.9843  1.1120 -4.6815
  106OSM    C6S10835   4.479   3.750  10.156  0.5576  0.4033 -0.1602
  106OSM    H6S10836   4.586   3.780  10.150  1.5758 -2.5101  1.5029
  106OSM    H6T10837   4.419   3.838  10.127 -2.4926 -1.2281  0.7627
  106OSM    C7S10838   4.456   3.633  10.055 -0.3898  1.0511 -0.1246
  106OSM    H7S10839   4.356   3.586  10.066 -0.6457  2.0161  2.2379
  106OSM    H7T10840   4.536   3.555  10.063  0.5125  2.0771  1.4119
  106OSM    C8S10841   4.461   3.677   9.909  0.7826 -0.5215 -0.9910
  106OSM    H8S10842   4.500   3.781   9.905 -0.4581 -0.0288 -0.7212
  106OSM    H8T10843   4.359   3.692   9.869 -0.2247 -1.0735  1.2394
  106OSM    C9S10844   4.531   3.573   9.819 -0.4375 -0.2202  0.0576
  106OSM    H9S10845   4.462   3.486   9.824  0.0021 -0.7689 -2.0595
  106OSM    H9T10846   4.635   3.556   9.854  0.6089  1.1386 -2.1484
  106OSM   C10S10847   4.540   3.616   9.673 -0.1402 -0.1916 -0.1083
  106OSM   H10S10848   4.608   3.703   9.658 -0.8393  0.2294 -0.9680
  106OSM   H10T10849   4.435   3.641   9.648 -0.1898 -0.4602 -0.1752
  106OSM   C11S10850   4.602   3.508   9.580 -0.4423 -0.0576 -0.2994
  106OSM   H11S10851   4.697   3.475   9.626 -0.8866  0.6507  1.2095
  106OSM   H11T10852   4.614   3.546   9.476 -2.3524  0.4848 -0.3623
  106OSM   C12S10853   4.531   3.372   9.560 -0.3131 -0.2719  0.1569
  106OSM   H12S10854   4.444   3.383   9.492  0.2908  1.2711 -0.4224
  106OSM   H12T10855   4.489   3.334   9.655  1.4844 -1.0083  0.6933
  106OSM   C13S10856   4.619   3.265   9.486  0.8474 -0.2704  0.3285
  106OSM   H13S10857   4.713   3.255   9.544 -0.7970  0.1927  3.3164
  106OSM   H13T10858   4.641   3.306   9.385  0.0722  0.2844  0.3778
  106OSM   C14S10859   4.534   3.133   9.479 -0.0457  0.6295  0.0339
  106OSM   H14S10860   4.438   3.166   9.434  0.8464  3.2001 -0.1831
  106OSM   H14T10861   4.518   3.093   9.581  2.3123 -1.9573 -0.4905
  106OSM   C15S10862   4.592   3.030   9.383 -0.3192 -0.2098  0.5632
  106OSM   H15S10863   4.697   3.012   9.413  0.6627  1.4640 -1.6226
  106OSM   H15T10864   4.593   3.081   9.284 -2.1945  0.6611  0.9383
  106OSM   C16S10865   4.509   2.899   9.356  0.8575  0.2406 -0.5221
  106OSM   H16S10866   4.411   2.929   9.313  0.8527  1.8578  0.5637
  106OSM   H16T10867   4.492   2.848   9.453  0.4456  0.2098 -0.6106
  106OSM   C17S10868   4.567   2.796   9.262  0.0518  0.0334 -0.6027
  106OSM   H17S10869   4.497   2.709   9.260 -0.3241  0.3403 -2.3421
  106OSM   H17T10870   4.666   2.763   9.300  0.0764  0.5395 -0.2272
  106OSM   C18S10871   4.572   2.838   9.117 -0.0410  0.0402 -0.8224
  106OSM   H18S10872   4.634   2.929   9.108  1.8991 -1.0055  0.9562
  106OSM   H18T10873   4.472   2.873   9.083  0.4509  1.6351 -0.6803
  106OSM   H18U10874   4.625   2.762   9.056  1.8024 -0.4219  1.2328
  106OSM    C1F10875   4.101   3.402  10.437  0.4433 -0.4259 -0.1453
  106OSM     OF10876   4.002   3.447  10.497 -0.0507 -0.2775  0.4699
  106OSM    C2F10877   4.091   3.281  10.346 -0.4105 -0.2259 -0.1782
  106OSM    H2F10878   4.006   3.227  10.392 -0.4005  1.6951  2.3411
  106OSM    H2G10879   4.179   3.215  10.359 -0.5934  0.0425  3.3352
  106OSM    C3F10880   4.074   3.330  10.203  0.0227  0.2056 -0.3122
  106OSM    H3F10881   4.149   3.409  10.179 -1.1670  1.5919  0.3668
  106OSM    H3G10882   3.973   3.375  10.202 -1.1419 -1.8687  3.8167
  106OSM    C4F10883   4.091   3.225  10.086 -0.5877 -0.1915  0.4022
  106OSM    H4F10884   4.184   3.165  10.096  0.4319  0.7743 -2.2915
  106OSM    H4G10885   4.109   3.273   9.987  1.7511  1.6215  1.5818
  106OSM    C5F10886   3.976   3.129  10.086  0.3318 -0.0869  0.1824
  106OSM    H5F10887   3.884   3.188  10.064  1.6896  1.9924 -0.2626
  106OSM    H5G10888   3.963   3.099  10.192 -0.1998 -0.2731  0.0705
  106OSM    C6F10889   3.998   3.004  10.004 -0.4527  0.1000 -0.1237
  106OSM    H6F10890   4.105   2.977   9.986 -0.5521 -3.5425  3.2341
  106OSM    H6G10891   3.956   3.010   9.902 -0.7197 -0.6521 -0.0673
  106OSM    C7F10892   3.954   2.881  10.076  0.8899 -0.2613 -0.5448
  106OSM    H7F10893   3.843   2.880  10.078  0.8239 -2.8039 -1.6683
  106OSM    H7G10894   3.986   2.888  10.182 -0.4078  2.9904 -0.2557
  106OSM    C8F10895   4.003   2.749  10.020 -0.3207  0.0618  0.4664
  106OSM    H8F10896   3.954   2.740   9.920  1.1888  1.4798 -0.4558
  106OSM    H8G10897   3.959   2.669  10.084  2.1315 -0.7933  1.1761
  106OSM    C9F10898   4.154   2.726  10.010  0.2761  0.3128 -0.0289
  106OSM    H9F10899   4.218   2.771  10.088  0.3702  1.3684 -0.7014
  106OSM   C10F10900   4.207   2.672   9.900  0.0053 -0.4489  1.0445
  106OSM   H10F10901   4.317   2.674   9.890  0.0936 -0.8613  1.7850
  106OSM   C11F10902   4.130   2.615   9.778 -0.3701  0.3625  0.3163
  106OSM   H11F10903   4.025   2.592   9.803 -0.4706  2.2385  1.7996
  106OSM   H11G10904   4.166   2.517   9.738 -1.4245 -0.1819  0.6625
  106OSM   C12F10905   4.140   2.710   9.654 -0.5749 -0.1791 -0.1727
  106OSM   H12F10906   4.085   2.659   9.573 -0.8291  2.2813 -1.6416
  106OSM   H12G10907   4.248   2.708   9.626  0.6771  2.0617  3.6200
  106OSM   C13F10908   4.105   2.855   9.672 -0.1343 -0.6219 -0.5976
  106OSM   H13F10909   4.141   2.885   9.773 -1.9041  0.2422 -0.1889
  106OSM   H13G10910   3.994   2.860   9.675 -0.0969 -0.0044 -0.1779
  106OSM   C14F10911   4.162   2.945   9.565 -0.1554  0.1803  0.4998
  106OSM   H14F10912   4.121   2.906   9.469 -0.8564  1.3559  0.3064
  106OSM   H14G10913   4.271   2.927   9.577 -0.3596 -1.8050 -0.1213
  106OSM   C15F10914   4.124   3.094   9.580  0.1647  0.4645  0.4493
  106OSM   H15F10915   4.015   3.105   9.597  0.2141  1.5725  0.1524
  106OSM   H15G10916   4.143   3.138   9.479 -1.5944  0.6790  0.1761
  106OSM   C16F10917   4.202   3.168   9.692 -0.3991  0.0662  0.7969
  106OSM   H16F10918   4.303   3.174   9.647 -2.0393  0.0515 -3.3044
  106OSM   H16G10919   4.194   3.110   9.786  1.6522  1.1458  1.7199
  106OSM   C17F10920   4.152   3.311   9.717 -0.4627 -0.4378  0.3042
  106OSM   H17F10921   4.225   3.342   9.795 -1.1140  0.2467  0.6492
  106OSM   H17G10922   4.053   3.312   9.767  0.1889 -4.4818  2.0903
  106OSM   C18F10923   4.155   3.404   9.597  0.3027 -0.5142  0.1793
  106OSM   H18F10924   4.134   3.509   9.629  0.2177 -1.3323  3.0965
  106OSM   H18G10925   4.085   3.378   9.515  0.4170  0.8217 -0.3783
  106OSM   H18H10926   4.252   3.387   9.546 -1.5353 -1.1216 -3.4366
  107OSM      N10927   5.320   2.482  11.484 -0.2104  0.2781 -0.3702
  107OSM    C1510928   5.231   2.605  11.495  0.1311  0.2131 -0.7681
  107OSM   H15A10929   5.150   2.604  11.423 -0.2156  0.0069 -0.3707
  107OSM   H15B10930   5.287   2.698  11.492 -0.2637  0.4680 -0.3774
  107OSM   H15C10931   5.191   2.609  11.595 -0.9264  3.7547 -1.1598
  107OSM    C1410932   5.387   2.493  11.356  0.0951  0.1293  0.1560
  107OSM   H14A10933   5.312   2.477  11.279  0.1157 -0.7168  0.3034
  107OSM   H14B10934   5.465   2.420  11.342 -0.7611 -0.6244 -0.9596
  107OSM   H14C10935   5.422   2.595  11.349  0.9972 -0.1379  0.6189
  107OSM    C1310936   5.421   2.483  11.594  0.2531  0.2437 -0.0261
  107OSM   H13A10937   5.483   2.571  11.585 -0.8740  0.8359 -3.0159
  107OSM   H13B10938   5.487   2.398  11.587 -2.1240 -1.7740  0.4103
  107OSM   H13C10939   5.372   2.500  11.689  1.6267  1.6701  0.4683
  107OSM    C1210940   5.233   2.353  11.504  0.0806 -1.3109 -0.3937
  107OSM   H12A10941   5.242   2.304  11.600 -1.1334  0.4672  0.6922
  107OSM   H12B10942   5.269   2.279  11.434  1.0260 -3.2759  2.0394
  107OSM    C1110943   5.082   2.362  11.472 -0.5986 -0.4911 -0.1756
  107OSM   H11A10944   5.040   2.436  11.544 -0.5651 -1.0203  0.3984
  107OSM   H11B10945   5.023   2.273  11.500 -1.7679  0.2981 -0.0303
  107OSM      P10946   4.947   2.495  11.294  0.3857 -0.2050  0.0855
  107OSM    O1310947   4.820   2.419  11.272  0.4148  0.3220 -0.0571
  107OSM    O1410948   4.945   2.614  11.387 -0.0954  0.1350  0.1126
  107OSM    O1110949   5.009   2.555  11.154 -0.7616  0.3101  0.5742
  107OSM    O1210950   5.053   2.394  11.329  0.6297  0.1005 -0.3578
  107OSM    C1S10951   5.083   2.471  11.064  0.1757  0.1807 -0.4927
  107OSM    H1S10952   5.011   2.411  11.004 -0.4013 -1.2341  1.5110
  107OSM    H1T10953   5.144   2.396  11.118 -0.1018  1.8311  2.3347
  107OSM     NF10954   5.196   2.471  10.840  0.7946  0.1338 -0.0193
  107OSM    HNF10955   5.291   2.441  10.841  0.8839  0.4142 -0.0294
  107OSM    C2S10956   5.155   2.556  10.954  0.8167 -0.0612  0.1878
  107OSM    H2S10957   5.084   2.632  10.918  0.3750  0.1211  1.4038
  107OSM    C3S10958   5.271   2.634  11.023 -0.6999  0.1964  0.0725
  107OSM    H3S10959   5.328   2.554  11.075 -0.2819  0.2068 -0.3667
  107OSM     O310960   5.229   2.723  11.126  0.0135  0.1840 -0.6998
  107OSM    HO310961   5.144   2.699  11.162  1.4323 -0.7165  2.4322
  107OSM    C4S10962   5.348   2.712  10.928 -0.8010 -0.5188 -0.1568
  107OSM    H4S10963   5.289   2.779  10.864  1.6822  0.5751 -1.4382
  107OSM    C5S10964   5.482   2.718  10.925 -0.2775  0.1933  0.5069
  107OSM    H5S10965   5.544   2.669  11.002  1.1513  1.7651  0.4196
  107OSM    C6S10966   5.544   2.797  10.815  0.2277 -0.2696 -0.0841
  107OSM    H6S10967   5.609   2.878  10.854  0.6616  0.5655 -2.3789
  107OSM    H6T10968   5.464   2.850  10.760  0.6749  0.7150  0.1842
  107OSM    C7S10969   5.619   2.706  10.708 -0.1249  0.0372 -0.4284
  107OSM    H7S10970   5.682   2.633  10.762  0.8234 -0.6339 -2.3710
  107OSM    H7T10971   5.692   2.755  10.641  1.7993 -2.3604 -0.1985
  107OSM    C8S10972   5.518   2.640  10.616 -0.6479 -0.0592 -0.4317
  107OSM    H8S10973   5.427   2.702  10.605 -0.8137  0.3750  2.6116
  107OSM    H8T10974   5.475   2.549  10.662 -3.2241 -0.0956 -2.6840
  107OSM    C9S10975   5.578   2.615  10.472 -0.1191  0.8718 -0.9644
  107OSM    H9S10976   5.650   2.531  10.481 -1.6125 -0.3971 -0.3602
  107OSM    H9T10977   5.636   2.702  10.435  0.0175  0.2496 -2.2493
  107OSM   C10S10978   5.480   2.572  10.362  0.1665 -0.6708  0.0563
  107OSM   H10S10979   5.405   2.654  10.360 -2.3885 -2.8663  0.3078
  107OSM   H10T10980   5.426   2.479  10.389 -0.9928 -0.2933 -0.9034
  107OSM   C11S10981   5.539   2.557  10.221  0.1173 -0.0087  0.4504
  107OSM   H11S10982   5.587   2.458  10.214 -0.9887 -0.4559 -1.8941
  107OSM   H11T10983   5.613   2.639  10.207  1.4537 -1.4385 -1.1640
  107OSM   C12S10984   5.431   2.563  10.115  0.5497  0.4640  0.3235
  107OSM   H12S10985   5.367   2.647  10.148 -2.6867 -1.9926  0.8306
  107OSM   H12T10986   5.364   2.474  10.111  0.5148  0.5212 -2.4211
  107OSM   C13S10987   5.484   2.580   9.971 -0.4647  0.1760  0.0039
  107OSM   H13S10988   5.563   2.504   9.955 -1.3840 -0.9373  0.6025
  107OSM   H13T10989   5.527   2.682   9.961 -2.3494  0.9052 -1.3755
  107OSM   C14S10990   5.379   2.562   9.856 -0.3048 -0.2795 -0.4609
  107OSM   H14S10991   5.295   2.635   9.862  1.4998  1.8440  0.3273
  107OSM   H14T10992   5.335   2.460   9.867 -1.4485  0.2421 -0.0849
  107OSM   C15S10993   5.450   2.576   9.724 -0.3085  0.0802 -0.8601
  107OSM   H15S10994   5.538   2.509   9.713  0.0536 -0.0662  2.1447
  107OSM   H15T10995   5.484   2.679   9.697 -1.3545  0.7838  0.4049
  107OSM   C16S10996   5.360   2.528   9.606 -0.1611  0.7982 -0.3028
  107OSM   H16S10997   5.255   2.554   9.628 -0.4080 -1.1263  1.1334
  107OSM   H16T10998   5.360   2.417   9.613 -1.2710  0.8147  0.0147
  107OSM   C17S10999   5.407   2.577   9.466 -0.0186 -0.1433 -0.1672
  107OSM   H17S11000   5.383   2.498   9.392 -2.3746  0.4947 -0.1481
  107OSM   H17T11001   5.518   2.589   9.466 -0.0677  0.4902  1.0483
  107OSM   C18S11002   5.338   2.702   9.420  0.1318 -0.1296  0.1684
  107OSM   H18S11003   5.235   2.663   9.403  0.5337 -1.8126  1.3131
  107OSM   H18T11004   5.378   2.743   9.324  1.0097  1.9485  1.3693
  107OSM   H18U11005   5.342   2.779   9.500  3.0023 -2.1848  2.2100
  107OSM    C1F11006   5.110   2.425  10.746  0.3764 -0.7632 -0.7525
  107OSM     OF11007   4.989   2.449  10.769  0.0753  0.4672 -0.2509
  107OSM    C2F11008   5.168   2.366  10.622 -0.3148  1.0737 -0.0826
  107OSM    H2F11009   5.229   2.277  10.646 -2.6638 -1.7764 -3.6907
  107OSM    H2G11010   5.230   2.448  10.578 -0.8311  0.6615 -1.6531
  107OSM    C3F11011   5.065   2.328  10.522  0.2523 -0.0240 -0.2257
  107OSM    H3F11012   4.996   2.413  10.501  0.3634  0.1138 -0.0287
  107OSM    H3G11013   4.993   2.249  10.551 -2.9980  1.6002 -3.0745
  107OSM    C4F11014   5.118   2.286  10.386 -0.4514  0.0517 -0.2223
  107OSM    H4F11015   5.102   2.176  10.378  0.1898 -0.0474 -0.1634
  107OSM    H4G11016   5.225   2.310  10.369 -0.2317  0.0901  1.1747
  107OSM    C5F11017   5.032   2.348  10.272 -0.0028 -0.5601 -0.0316
  107OSM    H5F11018   5.033   2.459  10.285 -3.7461 -0.6260  2.0298
  107OSM    H5G11019   4.930   2.317  10.301  0.2823  1.0814  3.2226
  107OSM    C6F11020   5.083   2.310  10.134  0.2971  0.4374 -0.2781
  107OSM    H6F11021   5.065   2.202  10.114 -0.4824  0.5135 -0.0101
  107OSM    H6G11022   5.191   2.333  10.123 -0.3056  3.4338 -0.7077
  107OSM    C7F11023   5.009   2.376  10.011 -0.3267  0.7538 -1.1574
  107OSM    H7F11024   5.015   2.485  10.028  1.2596  0.7332 -1.4163
  107OSM    H7G11025   4.901   2.357  10.026  0.2265 -1.2018  1.1979
  107OSM    C8F11026   5.061   2.343   9.868  0.7989  0.0149 -0.0511
  107OSM    H8F11027   5.172   2.343   9.866  0.7977  0.5193 -0.2395
  107OSM    H8G11028   5.025   2.418   9.794 -2.5361 -2.0330 -0.7168
  107OSM    C9F11029   4.998   2.220   9.822  0.4079  0.0322 -0.5926
  107OSM    H9F11030   4.955   2.157   9.902  1.7121 -2.2830 -1.5871
  107OSM   C10F11031   5.000   2.169   9.698 -0.3004 -0.3927  0.2659
  107OSM   H10F11032   4.947   2.076   9.674  1.0005 -0.6877 -1.6897
  107OSM   C11F11033   5.083   2.225   9.587  0.5959  0.8224 -0.9098
  107OSM   H11F11034   5.178   2.167   9.582 -0.2667 -0.5187 -2.7924
  107OSM   H11G11035   5.120   2.326   9.619  1.2877  0.6293 -1.0762
  107OSM   C12F11036   5.019   2.262   9.447  0.2227  0.2156  0.1225
  107OSM   H12F11037   5.102   2.303   9.386  0.1703 -1.6540 -1.3010
  107OSM   H12G11038   4.948   2.346   9.462 -2.2896 -1.4438 -1.5575
  107OSM   C13F11039   4.947   2.147   9.384 -0.1432 -0.3685  0.2136
  107OSM   H13F11040   4.861   2.119   9.449  1.3721 -2.1072  1.5568
  107OSM   H13G11041   5.016   2.061   9.374 -0.3257 -0.7100  1.6928
  107OSM   C14F11042   4.894   2.175   9.245  0.3176 -0.1314 -0.0698
  107OSM   H14F11043   4.852   2.278   9.240  0.2269  0.0152  2.4958
  107OSM   H14G11044   4.809   2.105   9.230 -0.1305 -0.0587  1.8664
  107OSM   C15F11045   4.984   2.155   9.123 -0.7227  0.4299 -0.3413
  107OSM   H15F11046   4.978   2.045   9.114  0.4885  0.4093 -1.1487
  107OSM   H15G11047   5.088   2.191   9.139 -0.1834 -1.2295  0.0050
  107OSM   C16F11048   4.938   2.221   8.995  0.0190  0.2599 -0.2855
  107OSM   H16F11049   4.892   2.319   9.019  0.5861  0.0445  1.9195
  107OSM   H16G11050   4.858   2.153   8.960  0.6571 -0.0358 -1.2000
  107OSM   C17F11051   5.051   2.234   8.889  0.1145 -0.0671  0.0862
  107OSM   H17F11052   5.096   2.133   8.882  0.8365 -0.1634  3.9178
  107OSM   H17G11053   5.136   2.295   8.924  0.7993 -1.4029  0.8104
  107OSM   C18F11054   4.999   2.289   8.758  0.3640  1.0596  0.0523
  107OSM   H18F11055   4.902   2.239   8.739  0.9001 -0.6426  1.4765
  107OSM   H18G11056   5.051   2.260   8.664 -0.1273  0.6302 -0.0939
  107OSM   H18H11057   4.968   2.395   8.758 -0.5711  0.8015  1.4351
  108OSM      N11058   3.811   5.462  10.672 -0.4412  0.0454  0.2694
  108OSM    C1511059   3.851   5.398  10.545  0.6099 -0.1305 -0.1682
  108OSM   H15A11060   3.958   5.395  10.533  0.8913  2.4673  0.9973
  108OSM   H15B11061   3.820   5.447  10.454  2.2716  0.9332 -0.2037
  108OSM   H15C11062   3.810   5.298  10.538 -0.6912  0.3048  0.7184
  108OSM    C1411063   3.660   5.433  10.698 -0.7715  0.8670 -0.1426
  108OSM   H14A11064   3.627   5.331  10.711 -0.1444  0.5737 -0.7826
  108OSM   H14B11065   3.599   5.475  10.620 -0.6567  0.0586 -0.6738
  108OSM   H14C11066   3.639   5.481  10.792 -0.4834  2.1088 -0.6902
  108OSM    C1311067   3.878   5.407  10.793  0.0154 -0.1210  1.0871
  108OSM   H13A11068   3.857   5.467  10.880  1.7688 -0.0345  1.4960
  108OSM   H13B11069   3.985   5.403  10.780  0.0338 -0.8737  1.4021
  108OSM   H13C11070   3.857   5.303  10.813 -2.9250  0.5985  2.3093
  108OSM    C1211071   3.837   5.613  10.671 -0.1574 -0.5432  0.1779
  108OSM   H12A11072   3.941   5.639  10.670 -0.1567 -0.3612  1.9373
  108OSM   H12B11073   3.799   5.643  10.767  0.3063 -1.0104  0.5108
  108OSM    C1111074   3.768   5.700  10.567  0.1249  0.3626  0.1654
  108OSM   H11A11075   3.791   5.654  10.469 -0.0647  0.6044  0.0067
  108OSM   H11B11076   3.817   5.800  10.573  0.7463  0.0889 -0.2869
  108OSM      P11077   3.561   5.777  10.712 -0.2668 -0.0025  0.0927
  108OSM    O1311078   3.545   5.685  10.824  0.2965 -0.3947  0.5543
  108OSM    O1411079   3.633   5.901  10.746  0.1926 -0.6782  0.5782
  108OSM    O1111080   3.420   5.822  10.647 -0.1692 -0.6187  0.1050
  108OSM    O1211081   3.627   5.700  10.589 -0.0268 -0.3445 -0.1752
  108OSM    C1S11082   3.421   5.899  10.533  0.1229 -0.2863 -0.1741
  108OSM    H1S11083   3.463   5.836  10.452  1.5767 -1.0795  1.1347
  108OSM    H1T11084   3.485   5.989  10.542 -0.4546  0.8807 -5.1505
  108OSM     NF11085   3.271   5.986  10.355 -0.1307 -0.3735  0.5395
  108OSM    HNF11086   3.306   6.076  10.330  0.3123 -0.0110  2.2898
  108OSM    C2S11087   3.278   5.948  10.500 -0.5120  0.1661  0.1379
  108OSM    H2S11088   3.209   5.863  10.518  1.4015 -1.5463 -0.2650
  108OSM    C3S11089   3.238   6.050  10.608  0.3698 -0.3435 -0.3627
  108OSM    H3S11090   3.311   6.133  10.609 -0.4229  0.3575 -0.1022
  108OSM     O311091   3.248   6.010  10.746  0.3620  0.2022 -0.1601
  108OSM    HO311092   3.274   5.917  10.742 -0.6704 -0.1281  0.6622
  108OSM    C4S11093   3.105   6.109  10.582 -0.1810  0.4635 -0.1594
  108OSM    H4S11094   3.026   6.037  10.556  1.4207 -1.9826  1.2678
  108OSM    C5S11095   3.072   6.232  10.597  0.2911 -0.1943 -0.0468
  108OSM    H5S11096   3.149   6.303  10.634 -0.0832  0.9836 -1.4572
  108OSM    C6S11097   2.933   6.277  10.582  0.3000  0.3214 -0.3148
  108OSM    H6S11098   2.905   6.356  10.654  1.1788  0.7844 -0.4771
  108OSM    H6T11099   2.860   6.198  10.611 -0.0569  1.5009  2.2124
  108OSM    C7S11100   2.904   6.330  10.442 -0.3861 -0.6608 -1.0070
  108OSM    H7S11101   2.929   6.244  10.377  0.0611 -2.5299  1.4816
  108OSM    H7T11102   2.953   6.429  10.432 -1.8700 -0.0252 -2.6784
  108OSM    C8S11103   2.750   6.337  10.435  0.2238  0.1688 -0.3661
  108OSM    H8S11104   2.713   6.381  10.530  2.0914 -3.7059  2.4034
  108OSM    H8T11105   2.704   6.236  10.430  0.6992 -0.6078  4.9690
  108OSM    C9S11106   2.712   6.433  10.319  0.3008 -0.1277  0.5745
  108OSM    H9S11107   2.780   6.520  10.325  0.8376 -0.4246 -0.7605
  108OSM    H9T11108   2.604   6.459  10.328  0.3878  0.6832 -0.4893
  108OSM   C10S11109   2.736   6.367  10.181  0.2128  0.7122 -0.0674
  108OSM   H10S11110   2.677   6.274  10.169 -0.4943  1.3452 -2.0783
  108OSM   H10T11111   2.841   6.331  10.187 -0.6687 -1.9131  0.6009
  108OSM   C11S11112   2.727   6.460  10.059  0.6954 -0.0455 -0.0197
  108OSM   H11S11113   2.804   6.537  10.079  1.6837 -1.1505  0.5295
  108OSM   H11T11114   2.624   6.503  10.057  0.6287  0.0851  2.5705
  108OSM   C12S11115   2.760   6.385   9.921  0.1406  0.2960 -0.5394
  108OSM   H12S11116   2.669   6.327   9.893 -0.0077  0.2616  0.0006
  108OSM   H12T11117   2.838   6.310   9.946  0.0697  0.3480 -0.1664
  108OSM   C13S11118   2.801   6.473   9.807 -0.0375 -0.3872  0.6535
  108OSM   H13S11119   2.886   6.529   9.851 -1.6529  2.5923  0.2979
  108OSM   H13T11120   2.718   6.539   9.774 -1.2076 -2.4921 -0.8729
  108OSM   C14S11121   2.843   6.403   9.674 -0.1332 -0.3134 -0.2959
  108OSM   H14S11122   2.744   6.377   9.632 -0.5218 -0.5955  0.7516
  108OSM   H14T11123   2.887   6.308   9.713 -1.7894 -1.2869 -0.6957
  108OSM   C15S11124   2.926   6.493   9.594 -0.4873 -0.3485  0.1090
  108OSM   H15S11125   3.025   6.507   9.644 -0.8140  3.2746 -0.0034
  108OSM   H15T11126   2.891   6.598   9.580  1.2919  0.0062 -2.4570
  108OSM   C16S11127   2.940   6.431   9.459  0.2385 -0.5320 -0.5103
  108OSM   H16S11128   2.842   6.385   9.435 -0.0815  1.1776 -2.7907
  108OSM   H16T11129   3.021   6.355   9.452  1.6915  0.7827  1.0507
  108OSM   C17S11130   2.966   6.538   9.349  0.0178  0.9319 -0.5882
  108OSM   H17S11131   3.068   6.581   9.365  1.6677 -2.6909 -0.2691
  108OSM   H17T11132   2.895   6.624   9.348 -0.0691  1.0134 -4.6516
  108OSM   C18S11133   2.964   6.482   9.207  0.1208  0.0619 -0.2003
  108OSM   H18S11134   2.959   6.567   9.136  1.6084  0.5180  0.2030
  108OSM   H18T11135   2.867   6.429   9.199  0.5322 -1.1402  1.9132
  108OSM   H18U11136   3.039   6.406   9.178 -0.2929 -1.1164  1.6359
  108OSM    C1F11137   3.277   5.885  10.267  0.4931  0.3075  0.3897
  108OSM     OF11138   3.249   5.770  10.301 -0.5798 -0.4630  0.7300
  108OSM    C2F11139   3.297   5.929  10.125  0.7691 -0.7221 -0.5187
  108OSM    H2F11140   3.399   5.974  10.125  1.3687 -1.8803  1.9446
  108OSM    H2G11141   3.217   6.000  10.095 -0.4735 -1.7618  0.2455
  108OSM    C3F11142   3.282   5.815  10.024 -0.4134  0.1476  0.3173
  108OSM    H3F11143   3.180   5.778  10.045 -0.3836 -0.5654 -0.6977
  108OSM    H3G11144   3.345   5.725  10.038  0.8743  0.5650 -2.1618
  108OSM    C4F11145   3.295   5.861   9.871 -0.3147 -0.2632 -0.4575
  108OSM    H4F11146   3.401   5.891   9.859 -0.1028 -0.8179 -0.0482
  108OSM    H4G11147   3.240   5.957   9.866  1.1228  0.6632  0.5279
  108OSM    C5F11148   3.252   5.758   9.765 -0.1726  0.1811  0.1023
  108OSM    H5F11149   3.143   5.737   9.763  0.1343 -1.5186 -0.0002
  108OSM    H5G11150   3.307   5.668   9.797 -0.0935  0.3150  0.3432
  108OSM    C6F11151   3.302   5.787   9.625 -0.2775 -0.3902 -0.1053
  108OSM    H6F11152   3.412   5.808   9.627  0.1103 -1.9254 -2.2180
  108OSM    H6G11153   3.246   5.874   9.584 -1.6667 -0.4072  1.6245
  108OSM    C7F11154   3.291   5.673   9.535 -0.2486 -0.0753  0.4550
  108OSM    H7F11155   3.199   5.616   9.560 -0.0547  0.1123  1.6590
  108OSM    H7G11156   3.370   5.597   9.552 -0.8496 -1.7488 -3.2927
  108OSM    C8F11157   3.290   5.712   9.380 -0.3723  0.4979  1.0039
  108OSM    H8F11158   3.380   5.774   9.361  0.2202 -0.5099  0.4400
  108OSM    H8G11159   3.209   5.785   9.358 -0.9323 -0.1211  0.9630
  108OSM    C9F11160   3.272   5.599   9.279  0.4714  0.5391 -0.1184
  108OSM    H9F11161   3.168   5.571   9.258  0.9654 -0.6501 -1.1254
  108OSM   C10F11162   3.368   5.536   9.206 -0.3436 -0.3223  0.1688
  108OSM   H10F11163   3.341   5.452   9.141 -0.5898 -0.7111  0.7645
  108OSM   C11F11164   3.517   5.561   9.207 -0.0941 -0.1343 -0.8251
  108OSM   H11F11165   3.565   5.462   9.196  2.6888  0.7020  2.1715
  108OSM   H11G11166   3.559   5.618   9.293  1.0739 -0.9007 -0.8571
  108OSM   C12F11167   3.568   5.632   9.083  0.0869  0.3158  0.3061
  108OSM   H12F11168   3.487   5.634   9.007 -1.8916 -4.0548  1.9994
  108OSM   H12G11169   3.655   5.579   9.038  0.2853  0.5036  0.4655
  108OSM   C13F11170   3.613   5.771   9.116  0.7816 -0.6878 -1.0946
  108OSM   H13F11171   3.714   5.769   9.162  0.3958 -1.9155 -0.2529
  108OSM   H13G11172   3.544   5.830   9.179  0.0730 -1.2223 -1.3588
  108OSM   C14F11173   3.628   5.858   8.992  0.0073 -0.3080 -0.2374
  108OSM   H14F11174   3.535   5.841   8.935 -0.5159  0.3448  0.4086
  108OSM   H14G11175   3.705   5.813   8.926  0.4829  0.3936 -0.1686
  108OSM   C15F11176   3.660   6.003   9.012  0.9192  0.2868 -0.3497
  108OSM   H15F11177   3.754   6.025   9.067  1.3706  0.1253 -1.0449
  108OSM   H15G11178   3.579   6.055   9.067  0.2267 -2.2498  1.1540
  108OSM   C16F11179   3.651   6.064   8.870 -0.3742  0.1404  0.3506
  108OSM   H16F11180   3.553   6.027   8.835 -0.8277 -0.0654  1.7673
  108OSM   H16G11181   3.733   6.026   8.805 -1.1799 -1.3320  0.1448
  108OSM   C17F11182   3.640   6.216   8.869 -0.1770  0.2191 -0.0475
  108OSM   H17F11183   3.548   6.245   8.923 -0.5916  0.9018 -1.0823
  108OSM   H17G11184   3.628   6.255   8.765  1.9882 -1.7786 -1.1552
  108OSM   C18F11185   3.750   6.299   8.939 -0.2436  0.2300  0.6575
  108OSM   H18F11186   3.846   6.243   8.946  0.7692  1.9954  1.4527
  108OSM   H18G11187   3.712   6.304   9.044 -0.5847  0.2190  0.5377
  108OSM   H18H11188   3.760   6.405   8.906  1.3259  0.9656  3.2087
  109OSM      N11189   3.491   2.201  11.157  0.0815 -0.4573 -0.4257
  109OSM    C1511190   3.345   2.226  11.170 -0.3215  0.4842  0.6124
  109OSM   H15A11191   3.324   2.332  11.170 -1.7584  0.2227  0.6112
  109OSM   H15B11192   3.294   2.206  11.263 -0.4752 -0.4010  0.3483
  109OSM   H15C11193   3.297   2.177  11.086  2.9836  1.7985 -2.2800
  109OSM    C1411194   3.558   2.285  11.267 -0.4990 -0.8189  0.6312
  109OSM   H14A11195   3.524   2.275  11.369 -0.0012  3.5023  1.4388
  109OSM   H14B11196   3.553   2.392  11.253  0.7438 -1.1245 -3.3823
  109OSM   H14C11197   3.661   2.254  11.273 -0.0771  0.3080 -0.2969
  109OSM    C1311198   3.512   2.062  11.201 -0.0670  0.3192  0.1769
  109OSM   H13A11199   3.478   2.003  11.118 -1.6156  0.3660  0.7446
  109OSM   H13B11200   3.437   2.021  11.267 -1.3894  0.0931 -1.3990
  109OSM   H13C11201   3.615   2.042  11.227 -0.6151 -0.5963  1.7549
  109OSM    C1211202   3.553   2.232  11.013  0.2698  0.2859  0.2608
  109OSM   H12A11203   3.660   2.219  11.015  0.5405  1.9331 -0.9440
  109OSM   H12B11204   3.520   2.331  10.984 -0.1760 -0.1999 -0.9422
  109OSM    C1111205   3.505   2.140  10.898  0.8171  0.0119 -0.4952
  109OSM   H11A11206   3.527   2.032  10.909 -1.8550 -0.7822 -2.1367
  109OSM   H11B11207   3.559   2.173  10.807 -0.4470  2.7197 -0.3695
  109OSM      P11208   3.310   2.284  10.797  0.4086  0.1200 -0.0359
  109OSM    O1311209   3.161   2.291  10.810 -0.3861 -0.6555  0.0587
  109OSM    O1411210   3.381   2.408  10.841 -0.8487  0.6650 -0.0129
  109OSM    O1111211   3.355   2.254  10.651 -0.1210 -0.0878 -0.0244
  109OSM    O1211212   3.361   2.158  10.885 -0.9891  0.3607  0.0727
  109OSM    C1S11213   3.363   2.130  10.585 -0.5619 -1.0218  0.0224
  109OSM    H1S11214   3.297   2.051  10.628 -2.2897 -0.9123 -2.2635
  109OSM    H1T11215   3.473   2.109  10.581 -0.3533  0.0493  0.0327
  109OSM     NF11216   3.337   2.018  10.360 -0.3972 -0.6198  0.2833
  109OSM    HNF11217   3.415   2.017  10.297 -1.3421 -1.0654 -0.9063
  109OSM    C2S11218   3.303   2.142  10.436 -0.4459  0.3460  0.1927
  109OSM    H2S11219   3.193   2.140  10.449 -0.3945  0.2568  0.6282
  109OSM    C3S11220   3.368   2.265  10.372 -0.4685  0.4415 -0.7201
  109OSM    H3S11221   3.479   2.264  10.379 -0.4547 -0.5789 -0.8741
  109OSM     O311222   3.326   2.396  10.424  0.1599  0.3267  0.1534
  109OSM    HO311223   3.297   2.384  10.515  1.3742  0.1291  0.5415
  109OSM    C4S11224   3.331   2.268  10.224 -0.1766 -0.3887 -0.1216
  109OSM    H4S11225   3.227   2.275  10.191 -1.1863 -1.5802  2.5393
  109OSM    C5S11226   3.432   2.257  10.139 -0.5458 -0.3278 -0.0332
  109OSM    H5S11227   3.531   2.225  10.174 -0.7795 -0.6004  0.3839
  109OSM    C6S11228   3.402   2.255   9.987 -0.0165 -0.5897  0.3704
  109OSM    H6S11229   3.447   2.167   9.937 -1.2643 -0.5123 -0.9586
  109OSM    H6T11230   3.457   2.344   9.948  1.0189  0.0941  3.2017
  109OSM    C7S11231   3.260   2.269   9.931  0.7394 -0.1375 -0.5474
  109OSM    H7S11232   3.208   2.357   9.975 -0.1474 -1.2316  0.6564
  109OSM    H7T11233   3.195   2.191   9.976 -0.3487  0.6516 -0.7136
  109OSM    C8S11234   3.247   2.277   9.776  1.0406  0.0110  0.3899
  109OSM    H8S11235   3.140   2.291   9.753  0.9279  0.8361  1.3279
  109OSM    H8T11236   3.283   2.182   9.731  0.1787  0.5275 -1.4733
  109OSM    C9S11237   3.316   2.395   9.704 -0.5385  1.0710  0.5436
  109OSM    H9S11238   3.423   2.392   9.737 -0.4090 -2.5037  0.2310
  109OSM    H9T11239   3.272   2.492   9.733 -1.3321  0.9900 -0.3539
  109OSM   C10S11240   3.302   2.369   9.561  0.0105  0.3627  0.3490
  109OSM   H10S11241   3.204   2.412   9.534  0.2991 -0.2489 -1.8611
  109OSM   H10T11242   3.320   2.261   9.538  0.1954  0.0615  1.8058
  109OSM   C11S11243   3.407   2.444   9.475  0.3687  0.1927  0.6675
  109OSM   H11S11244   3.498   2.397   9.517 -1.0267 -1.8839  1.5112
  109OSM   H11T11245   3.404   2.553   9.494 -0.1192  1.1170 -3.6711
  109OSM   C12S11246   3.389   2.414   9.322 -0.0117 -0.2723  0.4743
  109OSM   H12S11247   3.287   2.438   9.287 -0.7087 -1.1858  1.7991
  109OSM   H12T11248   3.413   2.306   9.318 -0.9314 -0.4387 -1.7438
  109OSM   C13S11249   3.499   2.482   9.240  0.6073  0.0949  0.0076
  109OSM   H13S11250   3.601   2.471   9.283  1.2253  1.8437 -0.9098
  109OSM   H13T11251   3.482   2.592   9.231  1.4236  0.1601 -0.8453
  109OSM   C14S11252   3.522   2.420   9.103  0.0388  0.9152 -0.1623
  109OSM   H14S11253   3.425   2.429   9.049 -0.3722 -2.9499 -0.3163
  109OSM   H14T11254   3.564   2.317   9.103 -2.8910 -0.4664 -3.3167
  109OSM   C15S11255   3.628   2.508   9.042 -0.7624 -0.0972 -0.4105
  109OSM   H15S11256   3.715   2.511   9.112 -0.3458 -0.7289 -0.8858
  109OSM   H15T11257   3.589   2.612   9.041  0.7516  0.5092  0.2118
  109OSM   C16S11258   3.682   2.458   8.903  0.0030 -0.6509 -0.0495
  109OSM   H16S11259   3.589   2.424   8.852 -0.4991 -0.3864  0.6810
  109OSM   H16T11260   3.757   2.383   8.935 -0.0149  0.2255  2.1898
  109OSM   C17S11261   3.750   2.567   8.819 -0.4996 -0.3838  0.4211
  109OSM   H17S11262   3.685   2.657   8.817 -2.3813 -1.5831 -4.0238
  109OSM   H17T11263   3.756   2.539   8.712 -0.4895  2.7659 -0.4932
  109OSM   C18S11264   3.889   2.605   8.870 -0.0786  0.4515  0.8856
  109OSM   H18S11265   3.968   2.528   8.855  0.4427  0.9166  1.1730
  109OSM   H18T11266   3.892   2.611   8.981  3.9805 -1.2725  1.0493
  109OSM   H18U11267   3.916   2.698   8.817 -0.0172  0.0070  0.1221
  109OSM    C1F11268   3.289   1.900  10.388 -0.2201 -0.4597 -0.9486
  109OSM     OF11269   3.196   1.896  10.462  0.0666  0.2815  0.3305
  109OSM    C2F11270   3.358   1.774  10.334 -0.5120 -0.6322  0.2060
  109OSM    H2F11271   3.279   1.699  10.315 -0.8213 -0.1779 -0.3294
  109OSM    H2G11272   3.427   1.736  10.413  0.1761  1.4160  0.6534
  109OSM    C3F11273   3.448   1.785  10.214 -0.1550  0.1774 -0.0439
  109OSM    H3F11274   3.511   1.694  10.203 -0.0374  0.2373  0.1309
  109OSM    H3G11275   3.524   1.863  10.234 -1.9907  2.1476 -0.3082
  109OSM    C4F11276   3.370   1.805  10.081  0.3710  0.1471  0.2624
  109OSM    H4F11277   3.315   1.901  10.088  2.0642  1.1156  1.0896
  109OSM    H4G11278   3.305   1.715  10.075 -0.5083  0.7029  1.0386
  109OSM    C5F11279   3.460   1.809   9.964 -0.5739 -0.4284  0.4522
  109OSM    H5F11280   3.502   1.706   9.961  0.7179  0.0211  1.8946
  109OSM    H5G11281   3.553   1.867   9.980 -1.1757  0.2229  1.8239
  109OSM    C6F11282   3.392   1.856   9.830  0.1433  0.2438 -0.0177
  109OSM    H6F11283   3.308   1.925   9.850  0.3651  1.4563 -2.8367
  109OSM    H6G11284   3.339   1.768   9.787  2.3378 -0.9151 -0.5146
  109OSM    C7F11285   3.485   1.913   9.723  0.0909 -0.1140 -0.3187
  109OSM    H7F11286   3.548   1.824   9.704 -0.1213 -0.1029 -1.1137
  109OSM    H7G11287   3.538   1.998   9.770 -0.0371  0.5890 -1.4151
  109OSM    C8F11288   3.416   1.948   9.593 -0.1949 -0.1097 -0.1937
  109OSM    H8F11289   3.326   2.006   9.620 -0.7521 -0.7524 -0.6180
  109OSM    H8G11290   3.382   1.856   9.539 -1.1223  0.1846 -0.1336
  109OSM    C9F11291   3.507   2.032   9.506 -0.1423 -0.4608  0.0800
  109OSM    H9F11292   3.543   2.120   9.561 -0.9089  0.3801 -0.7403
  109OSM   C10F11293   3.560   2.007   9.385  0.3852  0.0468 -0.1276
  109OSM   H10F11294   3.631   2.080   9.341  1.7993 -1.1764  0.0272
  109OSM   C11F11295   3.545   1.887   9.304  0.7805  1.4225  0.3596
  109OSM   H11F11296   3.464   1.830   9.354  0.1178  1.1236 -1.0146
  109OSM   H11G11297   3.638   1.830   9.326 -0.4655  0.0113  2.2818
  109OSM   C12F11298   3.509   1.897   9.154  0.6059 -0.2658 -0.0209
  109OSM   H12F11299   3.411   1.945   9.132 -1.0175 -2.5395  1.7445
  109OSM   H12G11300   3.509   1.799   9.103  1.0634  0.3359 -1.2241
  109OSM   C13F11301   3.626   1.971   9.090 -0.2161 -0.2496  0.0519
  109OSM   H13F11302   3.723   1.926   9.120 -0.7023 -2.5361 -1.4933
  109OSM   H13G11303   3.611   2.074   9.126 -1.2256 -0.3610 -0.0082
  109OSM   C14F11304   3.601   1.970   8.934 -0.2668 -0.0166 -0.2422
  109OSM   H14F11305   3.493   1.986   8.915  0.0686  2.2444 -0.5106
  109OSM   H14G11306   3.621   1.869   8.893 -0.2248  0.2933 -0.9992
  109OSM   C15F11307   3.683   2.076   8.858  0.0164 -1.0048  0.3661
  109OSM   H15F11308   3.793   2.065   8.872  0.1991  1.7994  1.6066
  109OSM   H15G11309   3.665   2.177   8.900  3.2435  0.0613 -0.4914
  109OSM   C16F11310   3.648   2.101   8.712  0.1762  0.1826  0.5411
  109OSM   H16F11311   3.556   2.161   8.728 -0.5846 -0.0556 -2.4714
  109OSM   H16G11312   3.636   2.011   8.649  0.4768 -0.4087  1.3102
  109OSM   C17F11313   3.756   2.190   8.650  0.2280  0.2704 -0.2388
  109OSM   H17F11314   3.849   2.129   8.651 -0.0799 -0.2289 -0.9627
  109OSM   H17G11315   3.770   2.276   8.719 -0.0464  1.3728 -1.5067
  109OSM   C18F11316   3.741   2.248   8.513  0.7749  0.6151 -0.6648
  109OSM   H18F11317   3.747   2.151   8.459  1.1879  0.4906 -0.3945
  109OSM   H18G11318   3.823   2.316   8.482  0.9543  0.7789  0.1395
  109OSM   H18H11319   3.645   2.304   8.514 -0.3720 -1.2479 -1.0805
  110OSM      N11320   3.940   6.342  11.063 -0.0116  0.7335  0.4563
  110OSM    C1511321   4.086   6.358  11.045 -0.5020 -0.2346 -0.3545
  110OSM   H15A11322   4.112   6.425  10.965  3.3134  0.8666  1.5854
  110OSM   H15B11323   4.130   6.261  11.024 -0.6360 -0.3151 -0.2657
  110OSM   H15C11324   4.135   6.396  11.133 -1.5839  0.0085  0.1601
  110OSM    C1411325   3.914   6.249  11.179  0.2566  0.2394 -0.5607
  110OSM   H14A11326   3.931   6.147  11.149  3.2222  0.8540 -1.2134
  110OSM   H14B11327   3.809   6.262  11.201  0.2730 -1.6713  0.8952
  110OSM   H14C11328   3.963   6.279  11.271 -1.3764  0.6914  0.2183
  110OSM    C1311329   3.874   6.476  11.077  0.1208 -0.1567  1.3001
  110OSM   H13A11330   3.899   6.520  11.172  2.4257 -0.9453  1.1067
  110OSM   H13B11331   3.767   6.467  11.064 -0.1135  0.1683  2.8404
  110OSM   H13C11332   3.904   6.538  10.994 -0.1088  1.7086  2.5629
  110OSM    C1211333   3.885   6.273  10.935  0.4216 -0.7195 -0.3675
  110OSM   H12A11334   3.777   6.277  10.938  0.3744 -1.3310 -0.9700
  110OSM   H12B11335   3.912   6.169  10.939 -2.9152 -1.7924 -1.7270
  110OSM    C1111336   3.914   6.340  10.803  0.2957 -0.4362  0.7950
  110OSM   H11A11337   3.890   6.448  10.794 -2.7149 -0.9421  1.5409
  110OSM   H11B11338   3.847   6.299  10.724 -1.8992  2.1882  1.1235
  110OSM      P11339   4.104   6.201  10.674  0.5413  0.5531 -0.1946
  110OSM    O1311340   4.239   6.168  10.712  0.0406 -0.1787  0.1376
  110OSM    O1411341   4.005   6.097  10.695 -0.0432 -0.1443  0.1806
  110OSM    O1111342   4.109   6.265  10.537 -0.0188 -0.5766 -0.4194
  110OSM    O1211343   4.054   6.322  10.764 -0.2118 -0.2060  0.5695
  110OSM    C1S11344   4.197   6.373  10.513  0.4400 -0.1892 -0.2676
  110OSM    H1S11345   4.302   6.351  10.542  0.7204  0.7579 -0.5201
  110OSM    H1T11346   4.155   6.466  10.558  0.8419 -0.7059  1.2192
  110OSM     NF11347   4.302   6.522  10.346 -0.1095 -0.0644  0.0429
  110OSM    HNF11348   4.270   6.616  10.353 -1.9074 -0.7418  2.1226
  110OSM    C2S11349   4.210   6.411  10.362  0.0148  0.2010  0.4014
  110OSM    H2S11350   4.261   6.322  10.319  1.6764  2.0282 -1.6393
  110OSM    C3S11351   4.068   6.425  10.295  0.7081 -0.1190 -0.4244
  110OSM    H3S11352   4.029   6.522  10.334  3.6988  1.3408 -0.6959
  110OSM     O311353   3.970   6.326  10.329  0.2636  0.1991 -0.2314
  110OSM    HO311354   4.018   6.276  10.396  1.9934 -0.0603 -1.6002
  110OSM    C4S11355   4.087   6.446  10.150  0.0933 -0.0664 -0.1089
  110OSM    H4S11356   4.137   6.541  10.125  0.1880 -0.5837 -1.9954
  110OSM    C5S11357   4.069   6.347  10.060 -0.1676  0.3692 -0.2012
  110OSM    H5S11358   4.037   6.250  10.100  2.7202  0.0212  1.6090
  110OSM    C6S11359   4.092   6.352   9.913  0.7148  0.0448  0.5327
  110OSM    H6S11360   3.991   6.369   9.870 -0.3328 -1.2221  2.4071
  110OSM    H6T11361   4.125   6.259   9.863 -0.4128  0.2127 -0.5658
  110OSM    C7S11362   4.186   6.464   9.867  0.1369  0.1296  0.0753
  110OSM    H7S11363   4.293   6.459   9.897 -0.0467 -0.6860  0.6367
  110OSM    H7T11364   4.153   6.559   9.914 -0.6577  0.4084 -1.0248
  110OSM    C8S11365   4.185   6.472   9.725  0.1083 -0.1205  0.2883
  110OSM    H8S11366   4.080   6.498   9.699 -0.8588 -1.4063  2.6348
  110OSM    H8T11367   4.202   6.374   9.676 -1.2765  0.0606 -0.5987
  110OSM    C9S11368   4.287   6.568   9.658 -0.7757 -0.7367  0.3370
  110OSM    H9S11369   4.375   6.564   9.726  0.1013  0.8698 -0.6550
  110OSM    H9T11370   4.254   6.674   9.665  0.8946 -0.2000  0.6569
  110OSM   C10S11371   4.337   6.524   9.518  0.0462 -0.4614  0.1233
  110OSM   H10S11372   4.375   6.419   9.523  3.8739  0.8117  1.3686
  110OSM   H10T11373   4.423   6.590   9.495 -0.2591 -0.2249 -0.3647
  110OSM   C11S11374   4.231   6.530   9.399 -0.1425  0.2537 -0.0056
  110OSM   H11S11375   4.185   6.631   9.390 -0.0936  0.1716 -1.4846
  110OSM   H11T11376   4.143   6.470   9.433 -0.3392  0.7796  0.4181
  110OSM   C12S11377   4.299   6.478   9.271  1.2136  0.5456 -0.6140
  110OSM   H12S11378   4.368   6.394   9.293  0.6566 -0.6429 -2.9662
  110OSM   H12T11379   4.370   6.553   9.230  0.7354  0.8522 -0.9027
  110OSM   C13S11380   4.193   6.440   9.163 -0.0165  0.3783 -0.1578
  110OSM   H13S11381   4.115   6.518   9.152  0.9032  1.5426  1.1880
  110OSM   H13T11382   4.139   6.349   9.197 -0.9553  1.5023  1.4888
  110OSM   C14S11383   4.269   6.443   9.025 -0.6063  0.6218 -0.6766
  110OSM   H14S11384   4.308   6.542   8.993 -2.5808  1.4381 -0.6960
  110OSM   H14T11385   4.200   6.419   8.941 -2.1340  2.5086 -0.0358
  110OSM   C15S11386   4.378   6.331   9.008  0.1325  0.1830 -0.5329
  110OSM   H15S11387   4.474   6.357   9.058  0.1551 -0.8251 -0.0184
  110OSM   H15T11388   4.415   6.322   8.904  0.8016 -0.6536 -0.2338
  110OSM   C16S11389   4.311   6.201   9.062 -0.6430  0.6489  0.8331
  110OSM   H16S11390   4.216   6.179   9.009  0.4275 -0.0498 -0.8980
  110OSM   H16T11391   4.285   6.199   9.170 -1.0018  0.0178  0.7398
  110OSM   C17S11392   4.390   6.066   9.032 -0.2424 -0.2511 -0.7552
  110OSM   H17S11393   4.385   6.050   8.922  1.3407 -0.4794 -0.8146
  110OSM   H17T11394   4.338   5.980   9.079 -1.0531 -0.3514 -1.7915
  110OSM   C18S11395   4.535   6.078   9.090 -0.6928  0.6285  0.6107
  110OSM   H18S11396   4.516   6.118   9.192 -2.1055  1.7374 -0.0361
  110OSM   H18T11397   4.606   6.135   9.026  0.6326 -2.1553 -0.5439
  110OSM   H18U11398   4.570   5.973   9.094  1.5135  1.3394  1.1446
  110OSM    C1F11399   4.436   6.506  10.358  0.0426  0.0649 -0.2099
  110OSM     OF11400   4.486   6.394  10.377 -0.0267 -0.6232 -0.2155
  110OSM    C2F11401   4.512   6.634  10.360 -0.0041  0.5000  0.0681
  110OSM    H2F11402   4.614   6.622  10.402 -0.1034  1.4734  0.5945
  110OSM    H2G11403   4.461   6.700  10.433  2.8853  1.7764  1.0517
  110OSM    C3F11404   4.515   6.690  10.216  0.0189  0.3499 -0.4395
  110OSM    H3F11405   4.409   6.705  10.186 -1.4582 -0.5019  3.7171
  110OSM    H3G11406   4.563   6.626  10.139  0.0687  0.9480 -0.9137
  110OSM    C4F11407   4.593   6.823  10.192 -0.1271  0.0637  0.6482
  110OSM    H4F11408   4.695   6.800  10.229  1.3976  0.4680 -2.9961
  110OSM    H4G11409   4.542   6.904  10.249 -1.3767  1.0816 -1.7873
  110OSM    C5F11410   4.617   6.839  10.041  0.3217  0.3486 -0.3539
  110OSM    H5F11411   4.680   6.757  10.000  2.3679  1.7879 -0.2002
  110OSM    H5G11412   4.676   6.930  10.018  0.8313  0.0150 -0.3886
  110OSM    C6F11413   4.492   6.837   9.956  0.8780 -0.8917  0.3136
  110OSM    H6F11414   4.419   6.905  10.004  0.8140  1.0107 -2.2858
  110OSM    H6G11415   4.443   6.739   9.936 -0.5949 -0.2210  0.5072
  110OSM    C7F11416   4.507   6.916   9.820 -0.1728 -0.1413 -0.5746
  110OSM    H7F11417   4.560   7.011   9.843 -1.9025  0.8056 -0.3570
  110OSM    H7G11418   4.411   6.944   9.773 -2.8091 -1.8718  3.1858
  110OSM    C8F11419   4.599   6.833   9.733  0.6836  0.2656 -0.3298
  110OSM    H8F11420   4.572   6.725   9.724 -0.4638  0.0259  3.9890
  110OSM    H8G11421   4.702   6.828   9.776  0.8413  0.3651 -0.6862
  110OSM    C9F11422   4.611   6.878   9.588 -0.1118 -0.5233  0.2880
  110OSM    H9F11423   4.516   6.862   9.535 -0.0210 -1.1606  0.3140
  110OSM   C10F11424   4.717   6.932   9.526  0.8271 -0.1548  0.4875
  110OSM   H10F11425   4.694   6.960   9.422 -1.0543 -2.0265  0.3262
  110OSM   C11F11426   4.849   6.967   9.581 -0.7403 -0.5388 -0.3506
  110OSM   H11F11427   4.843   6.960   9.692  1.4163 -2.3032 -0.2627
  110OSM   H11G11428   4.885   7.070   9.564 -0.1862 -0.2644  2.0734
  110OSM   C12F11429   4.966   6.881   9.542  0.0021 -1.0901 -0.2056
  110OSM   H12F11430   4.928   6.777   9.548 -4.6628  0.3018 -0.8671
  110OSM   H12G11431   5.057   6.901   9.602 -0.0933  0.1074 -0.4425
  110OSM   C13F11432   5.024   6.891   9.393  0.0048 -0.3560  0.0875
  110OSM   H13F11433   5.069   6.992   9.384  0.4043 -0.6944 -2.5409
  110OSM   H13G11434   4.949   6.873   9.313  0.9035  2.0611 -1.4101
  110OSM   C14F11435   5.140   6.785   9.381 -0.2890 -0.6358  0.1063
  110OSM   H14F11436   5.104   6.699   9.320  0.2721 -2.0353  1.6776
  110OSM   H14G11437   5.162   6.753   9.485  1.7241  0.8181  0.1853
  110OSM   C15F11438   5.269   6.841   9.309  0.4947  0.3785  0.3341
  110OSM   H15F11439   5.356   6.776   9.334  0.4300  0.1179 -0.0976
  110OSM   H15G11440   5.287   6.942   9.350  1.0121  1.2820 -1.9784
  110OSM   C16F11441   5.264   6.857   9.152  0.1428 -0.4013  0.2842
  110OSM   H16F11442   5.215   6.774   9.097 -0.1219  1.5490 -2.6356
  110OSM   H16G11443   5.366   6.877   9.114 -0.2454  0.3813 -0.4024
  110OSM   C17F11444   5.165   6.975   9.108 -0.7009 -0.1542  0.5169
  110OSM   H17F11445   5.224   7.065   9.135 -0.7647  0.3502 -0.9214
  110OSM   H17G11446   5.073   6.971   9.170 -1.0781  0.1242 -0.0159
  110OSM   C18F11447   5.126   6.981   8.956  1.2554 -0.1760 -0.4351
  110OSM   H18F11448   5.053   6.898   8.944 -0.5794  1.0005  1.7319
  110OSM   H18G11449   5.210   6.952   8.890  1.0663 -2.1601  0.1301
  110OSM   H18H11450   5.090   7.084   8.931  2.5850  0.1635 -1.0304
  111OSM      N11451   6.188   3.615  10.988 -0.0982  0.5314  0.1908
  111OSM    C1511452   6.265   3.581  11.117 -0.7547  0.2212  1.2245
  111OSM   H15A11453   6.205   3.528  11.189 -2.5091 -0.5813 -0.7127
  111OSM   H15B11454   6.312   3.671  11.154  4.5498 -1.3451 -0.7303
  111OSM   H15C11455   6.337   3.508  11.082 -0.7837 -0.7804  3.1675
  111OSM    C1411456   6.064   3.690  11.024 -0.4852 -0.0132  0.6297
  111OSM   H14A11457   6.003   3.700  10.935 -0.8302  0.7233  0.9462
  111OSM   H14B11458   6.078   3.781  11.080 -2.3784  0.5130  0.3310
  111OSM   H14C11459   5.996   3.626  11.078  0.0001 -1.5257 -0.4688
  111OSM    C1311460   6.265   3.697  10.894 -0.4710 -0.6952 -0.4366
  111OSM   H13A11461   6.214   3.713  10.801  1.1828  1.6953 -1.0341
  111OSM   H13B11462   6.353   3.641  10.866  0.3351  1.2218 -1.9956
  111OSM   H13C11463   6.294   3.792  10.938 -2.4571 -0.2937  0.0745
  111OSM    C1211464   6.161   3.488  10.921  0.2873 -0.6195  0.1670
  111OSM   H12A11465   6.254   3.444  10.890  1.3903  0.2417  2.0725
  111OSM   H12B11466   6.100   3.512  10.835 -0.6373  2.5837  1.5415
  111OSM    C1111467   6.088   3.376  11.000  0.3055 -0.3256  0.2940
  111OSM   H11A11468   6.156   3.355  11.086  0.3403 -1.0007  0.1025
  111OSM   H11B11469   6.090   3.291  10.929  0.6875  0.3585 -0.5239
  111OSM      P11470   5.832   3.326  11.005 -0.0401 -0.3652  0.1043
  111OSM    O1311471   5.854   3.183  11.041  0.1835 -0.1954 -0.0733
  111OSM    O1411472   5.705   3.385  11.052  0.0659 -0.6270  0.4151
  111OSM    O1111473   5.847   3.322  10.847 -0.2630  0.3281  0.3613
  111OSM    O1211474   5.956   3.406  11.047  0.2388  0.4871  0.2946
  111OSM    C1S11475   5.753   3.364  10.743 -0.4821 -0.5018  0.4509
  111OSM    H1S11476   5.748   3.474  10.753  0.3924 -0.4719  0.6641
  111OSM    H1T11477   5.652   3.320  10.754 -1.2750  1.2327  0.4428
  111OSM     NF11478   5.687   3.381  10.515  0.6625  0.0043  0.3750
  111OSM    HNF11479   5.618   3.313  10.492  0.9889 -0.2952  0.2728
  111OSM    C2S11480   5.800   3.334  10.601 -0.9771 -0.1929  0.3627
  111OSM    H2S11481   5.887   3.401  10.581  0.3233 -1.2638  2.0688
  111OSM    C3S11482   5.842   3.180  10.590  0.7247 -0.1011 -0.2488
  111OSM    H3S11483   5.758   3.115  10.621  0.1991  0.6965  0.0208
  111OSM     O311484   5.942   3.131  10.677 -0.1015 -0.7634  0.1108
  111OSM    HO311485   5.948   3.205  10.738 -1.9919  0.0744 -0.6468
  111OSM    C4S11486   5.875   3.144  10.452  0.5398  0.0896 -0.2326
  111OSM    H4S11487   5.965   3.190  10.410  0.3230  2.6398  1.8395
  111OSM    C5S11488   5.798   3.055  10.383  0.3832 -0.9021 -0.7817
  111OSM    H5S11489   5.721   2.994  10.433 -1.2125 -0.0604 -2.1043
  111OSM    C6S11490   5.811   3.016  10.238 -0.0697 -0.0883 -0.3129
  111OSM    H6S11491   5.713   2.992  10.192 -0.0302  2.1346 -1.6864
  111OSM    H6T11492   5.882   2.933  10.221  1.3918  1.4307 -1.9929
  111OSM    C7S11493   5.878   3.129  10.153  0.4100 -0.3577  0.3167
  111OSM    H7S11494   5.911   3.084  10.056 -0.8164 -0.8671  0.1178
  111OSM    H7T11495   5.974   3.161  10.198  0.8256  2.2119 -2.1339
  111OSM    C8S11496   5.795   3.245  10.123  0.3032 -0.0507 -0.5570
  111OSM    H8S11497   5.783   3.312  10.211 -3.8551  0.9714 -1.6605
  111OSM    H8T11498   5.687   3.223  10.106  0.3659  1.6373 -4.1243
  111OSM    C9S11499   5.847   3.337  10.007  0.0129 -0.2403 -0.3251
  111OSM    H9S11500   5.956   3.354  10.003  0.5918 -2.8303  2.0064
  111OSM    H9T11501   5.801   3.437  10.024  1.9084  0.8344 -1.2212
  111OSM   C10S11502   5.795   3.297   9.871  0.5121  0.4027 -1.0136
  111OSM   H10S11503   5.684   3.298   9.878  0.2803 -1.1532 -3.2971
  111OSM   H10T11504   5.831   3.195   9.848  0.6694  0.3799 -0.6744
  111OSM   C11S11505   5.834   3.393   9.762  0.0803  0.3740  0.0368
  111OSM   H11S11506   5.944   3.389   9.751  0.0155 -1.1921 -0.2544
  111OSM   H11T11507   5.806   3.497   9.791  0.6335  0.9069 -1.2884
  111OSM   C12S11508   5.764   3.359   9.622  0.8895  0.2955 -1.1264
  111OSM   H12S11509   5.655   3.370   9.640  1.2536 -1.1195  2.8072
  111OSM   H12T11510   5.780   3.255   9.588 -0.0191 -0.7194  1.3084
  111OSM   C13S11511   5.817   3.445   9.506  0.2507  0.0861  0.2932
  111OSM   H13S11512   5.928   3.444   9.514  0.1612 -1.7525  1.7932
  111OSM   H13T11513   5.789   3.550   9.530 -0.0000  0.0431  0.1843
  111OSM   C14S11514   5.757   3.407   9.368  0.3802 -0.6291 -0.5558
  111OSM   H14S11515   5.650   3.402   9.398  0.6811  1.4075  1.0532
  111OSM   H14T11516   5.776   3.303   9.334  0.4733 -1.0636  0.7713
  111OSM   C15S11517   5.771   3.518   9.265  0.8033 -0.6412  0.1764
  111OSM   H15S11518   5.880   3.537   9.251  1.3404 -2.1304  2.0096
  111OSM   H15T11519   5.734   3.612   9.313  1.2892 -0.1956 -0.3012
  111OSM   C16S11520   5.700   3.489   9.122 -0.8826 -0.9892  0.5624
  111OSM   H16S11521   5.748   3.396   9.084  1.1762 -0.1321  0.9624
  111OSM   H16T11522   5.729   3.566   9.048 -1.5799 -0.6497  0.6358
  111OSM   C17S11523   5.555   3.457   9.123 -0.0071  0.0616 -0.2345
  111OSM   H17S11524   5.506   3.549   9.161 -0.7975 -0.7589  0.7935
  111OSM   H17T11525   5.539   3.379   9.200 -0.5365 -2.8006 -3.0207
  111OSM   C18S11526   5.505   3.417   8.983 -0.0169  0.5014 -0.0967
  111OSM   H18S11527   5.404   3.371   8.992 -0.1527  1.0682  1.5346
  111OSM   H18T11528   5.580   3.345   8.943  0.2060  0.2997  0.6678
  111OSM   H18U11529   5.502   3.507   8.918  2.8709  1.2995  0.7152
  111OSM    C1F11530   5.645   3.507  10.506  0.3142 -0.5469  0.5232
  111OSM     OF11531   5.704   3.608  10.549 -0.0161 -0.1622 -0.0788
  111OSM    C2F11532   5.510   3.519  10.436  0.3831 -0.4796  0.2247
  111OSM    H2F11533   5.483   3.626  10.418  3.1886  0.3159  0.2577
  111OSM    H2G11534   5.434   3.482  10.508  0.7588  2.7058  2.4529
  111OSM    C3F11535   5.509   3.460  10.288  0.0991 -0.6171 -0.5940
  111OSM    H3F11536   5.527   3.351  10.296 -0.4573 -0.6360  0.5331
  111OSM    H3G11537   5.595   3.500  10.230  0.3597 -3.2431 -2.1856
  111OSM    C4F11538   5.374   3.477  10.220 -0.1283 -0.0815 -0.5893
  111OSM    H4F11539   5.348   3.584  10.231 -0.9613 -0.2551 -0.7904
  111OSM    H4G11540   5.304   3.424  10.288  0.0699  3.1827  2.4032
  111OSM    C5F11541   5.369   3.427  10.076 -0.0986  0.5151 -0.1526
  111OSM    H5F11542   5.265   3.397  10.050 -0.6255  0.6492  1.6298
  111OSM    H5G11543   5.431   3.335  10.074 -1.3503 -0.3683  0.0353
  111OSM    C6F11544   5.413   3.523   9.967  0.0603  0.0216 -0.4515
  111OSM    H6F11545   5.514   3.565   9.986 -0.6073  2.0316 -1.0453
  111OSM    H6G11546   5.343   3.609   9.969  1.0947  0.9951  3.7194
  111OSM    C7F11547   5.395   3.457   9.832 -0.1304  0.3923 -0.2540
  111OSM    H7F11548   5.289   3.428   9.821 -0.0282 -0.4506  0.8524
  111OSM    H7G11549   5.454   3.363   9.828 -3.5897 -2.0148  1.0417
  111OSM    C8F11550   5.441   3.553   9.719  0.2339  0.4178  0.4592
  111OSM    H8F11551   5.550   3.573   9.716  0.1285  1.0153  0.4779
  111OSM    H8G11552   5.405   3.656   9.740 -0.7013 -0.0943  1.4654
  111OSM    C9F11553   5.389   3.506   9.583 -0.7486  0.0272 -0.6667
  111OSM    H9F11554   5.356   3.401   9.590 -0.5602  0.0909  3.8920
  111OSM   C10F11555   5.405   3.579   9.469  0.3933 -0.6064  0.3604
  111OSM   H10F11556   5.372   3.540   9.372  0.4757 -0.4186  0.2567
  111OSM   C11F11557   5.486   3.703   9.470 -0.1839 -0.5564 -0.1575
  111OSM   H11F11558   5.578   3.697   9.408 -0.4815  0.2199 -0.6833
  111OSM   H11G11559   5.541   3.721   9.565  1.0800 -0.2369 -0.9221
  111OSM   C12F11560   5.405   3.836   9.451  0.3098  0.1986  0.0394
  111OSM   H12F11561   5.475   3.920   9.472 -1.6918  1.5210  1.8048
  111OSM   H12G11562   5.318   3.837   9.520 -1.3289 -2.3489 -1.8213
  111OSM   C13F11563   5.341   3.863   9.317 -0.0781  0.2700  0.3234
  111OSM   H13F11564   5.307   3.969   9.315 -1.0180 -0.0263 -1.1438
  111OSM   H13G11565   5.258   3.793   9.291  0.4254  0.4694 -2.0412
  111OSM   C14F11566   5.431   3.842   9.194  0.0420  0.3872 -0.0820
  111OSM   H14F11567   5.372   3.806   9.108  0.6945 -0.1360 -0.3223
  111OSM   H14G11568   5.511   3.769   9.220  0.0392  0.0260 -1.0783
  111OSM   C15F11569   5.504   3.970   9.147 -0.3444 -0.1980  0.0889
  111OSM   H15F11570   5.560   4.016   9.230  2.5612 -0.2660 -1.6895
  111OSM   H15G11571   5.421   4.041   9.125 -0.5279 -0.4013  0.1264
  111OSM   C16F11572   5.603   3.947   9.029 -0.4262 -0.1179 -0.5996
  111OSM   H16F11573   5.686   3.879   9.056  0.3715  1.7556  2.1127
  111OSM   H16G11574   5.656   4.045   9.018 -0.4561 -0.0319 -0.0226
  111OSM   C17F11575   5.536   3.919   8.894  0.3528 -0.0822  0.0533
  111OSM   H17F11576   5.461   3.837   8.899  0.9996 -0.6651  0.4480
  111OSM   H17G11577   5.613   3.888   8.819  2.2976 -1.0081  2.2987
  111OSM   C18F11578   5.462   4.042   8.828  0.4945 -0.0149  0.3301
  111OSM   H18F11579   5.365   4.068   8.876  0.6854  4.6063 -1.2311
  111OSM   H18G11580   5.436   4.018   8.723  0.5095 -0.3303  0.3967
  111OSM   H18H11581   5.518   4.137   8.839 -0.3846  0.4669  0.7661
  112OSM      N11582   4.428   0.074  10.995  0.3435  0.4527 -0.7220
  112OSM    C1511583   4.326  -0.039  11.027  0.1329  0.1859  0.2785
  112OSM   H15A11584   4.246  -0.045  10.955 -0.7321  0.7721  1.1577
  112OSM   H15B11585   4.291  -0.011  11.126  0.5371 -0.7967  0.7156
  112OSM   H15C11586   4.371  -0.137  11.036 -0.6820 -0.2109  0.2023
  112OSM    C1411587   4.354   0.204  11.012 -0.1142 -0.4225 -0.1909
  112OSM   H14A11588   4.269   0.205  10.945  0.8334  0.7882 -1.4175
  112OSM   H14B11589   4.410   0.292  10.984 -2.2894  0.7258 -1.1587
  112OSM   H14C11590   4.312   0.220  11.111  2.4933  0.5509  0.8514
  112OSM    C1311591   4.541   0.064  11.095  0.7162 -0.2453  0.5158
  112OSM   H13A11592   4.573  -0.038  11.109  0.6912 -1.1152 -4.2712
  112OSM   H13B11593   4.507   0.114  11.185  0.3865 -0.5056  0.5343
  112OSM   H13C11594   4.631   0.111  11.058 -0.6280  1.6027 -0.5892
  112OSM    C1211595   4.474   0.068  10.852  0.0319 -0.8943 -0.6768
  112OSM   H12A11596   4.544   0.147  10.832 -2.1549  1.1717 -0.5235
  112OSM   H12B11597   4.394   0.099  10.787 -0.1597 -1.0020 -0.4966
  112OSM    C1111598   4.531  -0.067  10.801 -0.1160  0.4451 -0.0788
  112OSM   H11A11599   4.514  -0.069  10.691  1.1746  1.1022 -0.2996
  112OSM   H11B11600   4.466  -0.142  10.852 -0.6942  0.9180 -0.1106
  112OSM      P11601   4.734  -0.208  10.903  0.2249 -0.1863  0.0602
  112OSM    O1311602   4.877  -0.193  10.904 -0.7788 -0.4045 -0.2398
  112OSM    O1411603   4.674  -0.228  11.036  0.0355 -0.0363 -0.5073
  112OSM    O1111604   4.697  -0.324  10.805  0.0139 -0.4794  0.3968
  112OSM    O1211605   4.673  -0.077  10.833 -0.3680 -0.0251  0.1773
  112OSM    C1S11606   4.713  -0.310  10.664 -0.0514  0.1948  0.6156
  112OSM    H1S11607   4.775  -0.225  10.627  1.1892 -1.0132 -0.1513
  112OSM    H1T11608   4.613  -0.297  10.617  0.6391  1.0648 -0.6736
  112OSM     NF11609   4.795  -0.419  10.461  0.5061 -0.0057 -0.6645
  112OSM    HNF11610   4.712  -0.441  10.409  0.1980 -1.4118  0.3776
  112OSM    C2S11611   4.775  -0.441  10.603  0.2419  0.1708 -0.4318
  112OSM    H2S11612   4.873  -0.461  10.650 -0.0459 -3.8499 -1.2284
  112OSM    C3S11613   4.687  -0.562  10.639  1.1089  0.0113 -0.7809
  112OSM    H3S11614   4.584  -0.534  10.608  0.0588 -0.9418  1.6376
  112OSM     O311615   4.682  -0.593  10.777 -0.6669  0.2092  0.1252
  112OSM    HO311616   4.722  -0.514  10.814  0.3542 -0.5164  0.6202
  112OSM    C4S11617   4.729  -0.682  10.563 -0.4301  0.1976 -0.3412
  112OSM    H4S11618   4.648  -0.690  10.489 -0.9030 -0.6692  0.2503
  112OSM    C5S11619   4.832  -0.772  10.571 -0.0651  0.6243  0.7955
  112OSM    H5S11620   4.913  -0.770  10.645 -1.4869  1.4878  2.3843
  112OSM    C6S11621   4.853  -0.886  10.474 -0.1001 -0.0724 -0.4719
  112OSM    H6S11622   4.844  -0.974  10.542  0.9847  1.0406  1.1755
  112OSM    H6T11623   4.952  -0.869  10.426 -1.1510  4.8169 -1.4334
  112OSM    C7S11624   4.743  -0.909  10.361 -0.0804 -1.0689 -0.4934
  112OSM    H7S11625   4.797  -0.876  10.270  0.1894  0.5459  0.2080
  112OSM    H7T11626   4.655  -0.843  10.377  1.0255  0.0745  1.2056
  112OSM    C8S11627   4.687  -1.050  10.341 -0.7933  0.3975  0.2512
  112OSM    H8S11628   4.639  -1.073  10.439 -2.8924  2.6688 -0.1617
  112OSM    H8T11629   4.767  -1.125  10.322  0.6949  1.5777  1.6531
  112OSM    C9S11630   4.591  -1.060  10.222 -0.7648  0.3980  0.2441
  112OSM    H9S11631   4.503  -0.993  10.233 -0.9686  0.1554  0.0929
  112OSM    H9T11632   4.547  -1.162  10.226 -1.4598  0.6527 -0.6096
  112OSM   C10S11633   4.659  -1.025  10.087 -0.2940 -0.1836 -0.4577
  112OSM   H10S11634   4.754  -1.083  10.085 -0.3817 -0.3352 -0.2733
  112OSM   H10T11635   4.676  -0.916  10.082 -1.4172  0.1392  1.8005
  112OSM   C11S11636   4.581  -1.070   9.966 -0.2562  1.5585 -0.4645
  112OSM   H11S11637   4.478  -1.028   9.966 -1.3890 -0.9267  1.4877
  112OSM   H11T11638   4.578  -1.181   9.968  0.7348  1.5392  0.5109
  112OSM   C12S11639   4.640  -1.030   9.830  0.3889  0.4932  0.0282
  112OSM   H12S11640   4.742  -1.074   9.829  0.2783  0.1962 -1.6982
  112OSM   H12T11641   4.656  -0.920   9.825  0.8506  0.4319  0.0708
  112OSM   C13S11642   4.549  -1.073   9.715  0.7307 -0.1432 -0.1951
  112OSM   H13S11643   4.472  -0.993   9.705 -0.9878 -1.6429  0.4610
  112OSM   H13T11644   4.500  -1.170   9.737  0.0121 -0.6566 -3.4991
  112OSM   C14S11645   4.614  -1.080   9.577  0.5052 -0.3783  0.2777
  112OSM   H14S11646   4.686  -1.164   9.573 -0.5088 -1.2650 -0.0673
  112OSM   H14T11647   4.668  -0.986   9.555 -0.4364  0.9569  3.0962
  112OSM   C15S11648   4.504  -1.096   9.469  0.1502 -0.1453 -0.7770
  112OSM   H15S11649   4.430  -1.014   9.473  1.0374  0.7192 -1.6692
  112OSM   H15T11650   4.446  -1.183   9.508 -0.9009  0.0461 -1.8743
  112OSM   C16S11651   4.568  -1.118   9.332 -0.5749 -0.1972 -0.3380
  112OSM   H16S11652   4.625  -1.213   9.325 -1.5085 -0.7723 -0.3160
  112OSM   H16T11653   4.642  -1.036   9.319 -0.7799 -0.0114 -0.3536
  112OSM   C17S11654   4.473  -1.110   9.213  0.1232  0.3207  0.4391
  112OSM   H17S11655   4.428  -1.009   9.200  2.8208  1.3639 -1.8292
  112OSM   H17T11656   4.391  -1.184   9.221  1.3044 -1.0547  0.1957
  112OSM   C18S11657   4.535  -1.145   9.071  0.6411  0.5005  0.4698
  112OSM   H18S11658   4.580  -1.246   9.073 -0.5709 -0.0716 -0.2598
  112OSM   H18T11659   4.606  -1.063   9.045  0.6225  1.1319  2.2868
  112OSM   H18U11660   4.447  -1.156   9.004  1.4016 -2.0433 -0.2237
  112OSM    C1F11661   4.899  -0.345  10.414  0.0413  0.0641  0.3541
  112OSM     OF11662   4.999  -0.331  10.482  0.6882 -0.3395 -0.2423
  112OSM    C2F11663   4.889  -0.313  10.268 -0.2575  0.2443 -0.0948
  112OSM    H2F11664   4.814  -0.231  10.259 -1.6402 -0.8508  0.9883
  112OSM    H2G11665   4.861  -0.404  10.212  0.8874  1.3236 -2.5513
  112OSM    C3F11666   5.028  -0.266  10.219 -0.5810 -0.3698 -0.4058
  112OSM    H3F11667   5.099  -0.351  10.233 -0.4124 -0.2533 -0.5560
  112OSM    H3G11668   5.059  -0.171  10.267  0.3864 -1.2056  0.7008
  112OSM    C4F11669   5.040  -0.262  10.065  0.0450  0.0397  0.2016
  112OSM    H4F11670   4.942  -0.243  10.016  0.1412  0.4371  0.1649
  112OSM    H4G11671   5.089  -0.352  10.022 -0.7884  0.0287 -0.7605
  112OSM    C5F11672   5.120  -0.142  10.006  0.0214 -0.0376 -0.8374
  112OSM    H5F11673   5.200  -0.119  10.080 -0.9097 -0.4927  0.3537
  112OSM    H5G11674   5.057  -0.052   9.994  1.4666  1.1304 -0.0714
  112OSM    C6F11675   5.166  -0.187   9.868 -0.0511  0.0204 -0.1420
  112OSM    H6F11676   5.069  -0.216   9.821 -0.6185  1.5000  0.0498
  112OSM    H6G11677   5.231  -0.273   9.896  1.0272  1.0747  0.6916
  112OSM    C7F11678   5.255  -0.077   9.799  0.2946  0.2774  0.5239
  112OSM    H7F11679   5.206   0.023   9.806  1.0520  0.7894 -1.2178
  112OSM    H7G11680   5.271  -0.097   9.691 -0.7198 -1.8917  0.7259
  112OSM    C8F11681   5.401  -0.057   9.857 -0.2957 -0.1806 -0.2015
  112OSM    H8F11682   5.370  -0.029   9.960 -0.7839  1.8142 -0.8426
  112OSM    H8G11683   5.461   0.023   9.809  1.8423 -2.1615 -1.0045
  112OSM    C9F11684   5.481  -0.184   9.882  0.1980 -0.1378 -0.3691
  112OSM    H9F11685   5.453  -0.238   9.974 -1.5492  0.1893 -0.6795
  112OSM   C10F11686   5.562  -0.230   9.788 -0.2264  0.3387 -0.1792
  112OSM   H10F11687   5.630  -0.315   9.806  1.7945  1.8179 -0.4466
  112OSM   C11F11688   5.578  -0.171   9.655  0.1818 -0.1827  0.1505
  112OSM   H11F11689   5.652  -0.088   9.652 -2.4769  2.4135  1.4028
  112OSM   H11G11690   5.483  -0.122   9.626  0.8052  2.0768  1.6030
  112OSM   C12F11691   5.622  -0.272   9.547  0.4662  0.3834 -0.0176
  112OSM   H12F11692   5.549  -0.355   9.538 -0.5801  1.2017  0.6187
  112OSM   H12G11693   5.720  -0.313   9.579 -0.6681 -2.7849 -0.2811
  112OSM   C13F11694   5.626  -0.207   9.400  0.1911 -0.1429  0.4068
  112OSM   H13F11695   5.678  -0.109   9.408 -3.7753  2.2417 -0.1167
  112OSM   H13G11696   5.523  -0.196   9.360  1.1017 -2.0763 -2.8402
  112OSM   C14F11697   5.696  -0.291   9.293  0.4340  0.0249 -0.6253
  112OSM   H14F11698   5.675  -0.399   9.307  0.0478  0.1554 -0.1801
  112OSM   H14G11699   5.805  -0.269   9.303  0.2780  0.4624  0.2324
  112OSM   C15F11700   5.645  -0.265   9.153 -0.0203 -0.8125 -0.6597
  112OSM   H15F11701   5.536  -0.283   9.154 -0.4109  0.8192  3.6874
  112OSM   H15G11702   5.695  -0.344   9.092 -1.9351 -1.8387 -0.9950
  112OSM   C16F11703   5.670  -0.123   9.093  0.1024  0.4479  0.5233
  112OSM   H16F11704   5.778  -0.098   9.089  0.8168 -2.4442 -1.4505
  112OSM   H16G11705   5.617  -0.051   9.159 -1.1741  1.2992 -1.3425
  112OSM   C17F11706   5.607  -0.094   8.955  0.8912  0.5526  0.4503
  112OSM   H17F11707   5.496  -0.087   8.963  0.6320 -0.3725 -1.5907
  112OSM   H17G11708   5.624  -0.173   8.878 -0.7860  0.3299  0.2723
  112OSM   C18F11709   5.657   0.046   8.905  0.1874  0.9107  0.0277
  112OSM   H18F11710   5.628   0.122   8.980  0.9115  1.8529 -0.6356
  112OSM   H18G11711   5.607   0.067   8.807  1.4646  0.8033 -0.6685
  112OSM   H18H11712   5.767   0.051   8.900  0.7423 -2.9583  3.5880
  113OSM      N11713   2.953   4.001  11.151  0.1832 -0.2404 -0.1976
  113OSM    C1511714   3.060   4.100  11.182 -0.3570 -0.2561 -0.5284
  113OSM   H15A11715   3.127   4.055  11.253 -1.2805 -2.2052 -0.8123
  113OSM   H15B11716   3.031   4.199  11.216  1.9440  0.5603 -0.7718
  113OSM   H15C11717   3.131   4.119  11.104 -0.1816  0.7509 -0.1510
  113OSM    C1411718   3.019   3.865  11.141  0.1132  0.3874  0.6240
  113OSM   H14A11719   3.103   3.883  11.076 -1.0015  2.0830 -0.4405
  113OSM   H14B11720   2.952   3.788  11.106  0.0754 -0.0274  1.5719
  113OSM   H14C11721   3.053   3.826  11.235  0.7046  2.7739  1.4809
  113OSM    C1311722   2.854   3.988  11.261  0.0368  0.5415 -0.2483
  113OSM   H13A11723   2.898   3.969  11.358  2.7533 -0.9268 -1.6455
  113OSM   H13B11724   2.781   3.911  11.244  1.6358 -0.9331 -0.8185
  113OSM   H13C11725   2.810   4.086  11.260 -1.3136  0.0062  1.5463
  113OSM    C1211726   2.874   4.045  11.022  0.4679 -0.3895  0.2897
  113OSM   H12A11727   2.826   4.142  11.027 -0.0037 -0.6454  0.9181
  113OSM   H12B11728   2.790   3.981  11.004 -1.1330  1.0296  2.2770
  113OSM    C1111729   2.976   4.073  10.899 -0.1701 -0.3045  0.1173
  113OSM   H11A11730   2.899   4.084  10.819  0.5661 -0.4538 -0.6233
  113OSM   H11B11731   3.027   3.978  10.875  1.3107  0.2648  0.8887
  113OSM      P11732   3.006   4.333  10.902  0.2363  0.1507  0.0333
  113OSM    O1311733   2.871   4.340  10.955  0.2891 -0.2250 -0.6464
  113OSM    O1411734   3.108   4.422  10.955  0.5167 -0.1250  0.6073
  113OSM    O1111735   2.999   4.365  10.742  0.8174  0.5501 -0.6110
  113OSM    O1211736   3.065   4.187  10.904 -0.5133  0.2227  0.8575
  113OSM    C1S11737   3.110   4.327  10.659  0.0189 -0.2729  0.6459
  113OSM    H1S11738   3.147   4.222  10.664  2.1498  0.4083 -0.1847
  113OSM    H1T11739   3.198   4.392  10.673 -1.4845  2.2483 -0.8596
  113OSM     NF11740   3.157   4.282  10.416  0.0115  0.1816  0.3029
  113OSM    HNF11741   3.247   4.323  10.403  1.8335 -2.3220  3.5785
  113OSM    C2S11742   3.069   4.356  10.501  0.5432 -0.4217 -0.5792
  113OSM    H2S11743   2.971   4.306  10.490 -0.6148  1.3404  1.0221
  113OSM    C3S11744   3.049   4.504  10.477 -0.4062  0.2647 -0.0821
  113OSM    H3S11745   3.146   4.555  10.464  0.7854 -1.1074  2.6462
  113OSM     O311746   2.989   4.578  10.586 -0.3725 -0.0821 -0.2858
  113OSM    HO311747   2.990   4.511  10.654  0.7831 -0.1990 -0.3986
  113OSM    C4S11748   2.964   4.544  10.354  0.4748 -0.1836 -0.5435
  113OSM    H4S11749   2.857   4.541  10.380  0.5185 -2.0174 -0.4313
  113OSM    C5S11750   3.005   4.609  10.247  0.3251  0.0732  0.6126
  113OSM    H5S11751   3.110   4.641  10.243  0.3546  0.3182  2.5651
  113OSM    C6S11752   2.922   4.663  10.141  0.2531 -1.1915  0.2130
  113OSM    H6S11753   2.957   4.768  10.130  3.6352 -1.9682  2.0943
  113OSM    H6T11754   2.819   4.675  10.181 -0.0034 -2.1329 -0.1363
  113OSM    C7S11755   2.925   4.615   9.996 -0.2487  0.3032 -0.9520
  113OSM    H7S11756   2.878   4.514   9.996 -0.0540  0.2054 -0.0005
  113OSM    H7T11757   3.032   4.601   9.972 -0.3937 -3.4896 -0.1015
  113OSM    C8S11758   2.852   4.703   9.899  0.2125  0.3556  0.1294
  113OSM    H8S11759   2.893   4.806   9.891  0.3534  0.1761 -1.7209
  113OSM    H8T11760   2.746   4.726   9.921  0.4371  0.5704  1.0732
  113OSM    C9S11761   2.854   4.636   9.767 -0.0663  0.5164 -0.4380
  113OSM    H9S11762   2.792   4.544   9.771  0.9136 -0.1127  1.3587
  113OSM    H9T11763   2.950   4.592   9.735 -1.0595 -0.9951 -1.4767
  113OSM   C10S11764   2.814   4.725   9.653 -0.6337 -0.0337 -0.2675
  113OSM   H10S11765   2.874   4.818   9.644 -1.4917  0.4389 -1.3736
  113OSM   H10T11766   2.707   4.752   9.669 -0.7729  1.3457 -2.9489
  113OSM   C11S11767   2.811   4.665   9.508  0.3310 -0.4804  0.2712
  113OSM   H11S11768   2.725   4.705   9.451  0.6782 -0.0741  0.0326
  113OSM   H11T11769   2.788   4.556   9.518  0.1124 -0.5166 -0.5498
  113OSM   C12S11770   2.937   4.665   9.437 -0.8299 -0.3395  0.4919
  113OSM   H12S11771   3.016   4.641   9.512 -1.5618  3.2667  2.6151
  113OSM   H12T11772   2.965   4.768   9.407 -0.9781 -1.0330 -2.2129
  113OSM   C13S11773   2.936   4.572   9.315 -0.1684 -0.6794  0.1653
  113OSM   H13S11774   2.863   4.606   9.239  0.3262 -0.0914 -0.0579
  113OSM   H13T11775   2.894   4.477   9.354  1.6084 -1.4218  0.3934
  113OSM   C14S11776   3.067   4.545   9.253 -0.1232  0.0026  0.8448
  113OSM   H14S11777   3.062   4.463   9.179  0.0161  0.6448  0.1135
  113OSM   H14T11778   3.125   4.513   9.342 -1.9176 -2.2013  1.3358
  113OSM   C15S11779   3.137   4.669   9.199  0.1210  0.3339  0.3190
  113OSM   H15S11780   3.157   4.735   9.286  0.3721  0.3502  0.2491
  113OSM   H15T11781   3.070   4.716   9.124  1.3757  2.4121  0.4243
  113OSM   C16S11782   3.278   4.642   9.141  0.0829 -0.2892 -0.6684
  113OSM   H16S11783   3.328   4.737   9.113  0.8786 -0.2001  0.9324
  113OSM   H16T11784   3.274   4.584   9.046 -2.4006  0.5223 -1.1166
  113OSM   C17S11785   3.366   4.563   9.247  0.7783 -0.4877 -0.7427
  113OSM   H17S11786   3.348   4.455   9.233  0.0975 -0.2260 -2.0952
  113OSM   H17T11787   3.319   4.575   9.347  0.9274 -1.6947 -0.5170
  113OSM   C18S11788   3.517   4.606   9.242  0.6788  0.1117  0.1351
  113OSM   H18S11789   3.528   4.715   9.257  3.3087  0.2472 -1.9259
  113OSM   H18T11790   3.547   4.578   9.138  0.2057 -1.6089  0.4197
  113OSM   H18U11791   3.566   4.554   9.327 -2.9287  0.0629  2.3952
  113OSM    C1F11792   3.136   4.153  10.400  1.0937 -0.1735  0.0150
  113OSM     OF11793   3.052   4.083  10.461 -0.7196 -0.3508  0.1501
  113OSM    C2F11794   3.217   4.083  10.297 -0.1272  0.4086 -0.4767
  113OSM    H2F11795   3.156   4.020  10.229 -3.0287  2.3927  0.1267
  113OSM    H2G11796   3.282   4.008  10.348  2.4982  2.4235 -0.6213
  113OSM    C3F11797   3.323   4.168  10.217 -0.4961  0.1458 -0.0129
  113OSM    H3F11798   3.397   4.198  10.294 -1.2985 -2.1499  1.7732
  113OSM    H3G11799   3.286   4.259  10.165  0.8847  0.8220  0.1542
  113OSM    C4F11800   3.386   4.078  10.106 -0.4174 -0.5713 -0.6906
  113OSM    H4F11801   3.316   4.061  10.021  0.4688  1.4063 -1.8834
  113OSM    H4G11802   3.419   3.982  10.152 -0.5840 -0.0071  0.6215
  113OSM    C5F11803   3.514   4.155  10.053  0.4145  0.4446 -0.1560
  113OSM    H5F11804   3.571   4.202  10.136 -1.6156 -1.0300  2.2410
  113OSM    H5G11805   3.475   4.233   9.985  0.2030  0.4298 -0.0542
  113OSM    C6F11806   3.610   4.062   9.979 -0.5491  0.2093  0.5003
  113OSM    H6F11807   3.560   4.009   9.895  1.3535  0.7459 -1.0649
  113OSM    H6G11808   3.644   3.982  10.049 -1.1511  0.9424  1.6533
  113OSM    C7F11809   3.723   4.147   9.912  0.0902 -0.0442 -0.0209
  113OSM    H7F11810   3.794   4.073   9.871 -1.4017 -1.1769 -0.6622
  113OSM    H7G11811   3.776   4.212   9.985 -1.5936  0.6276  0.6638
  113OSM    C8F11812   3.681   4.236   9.788 -0.3676 -0.5210 -0.1716
  113OSM    H8F11813   3.779   4.282   9.764  0.5938 -2.8682 -1.1176
  113OSM    H8G11814   3.619   4.323   9.819 -0.6763 -0.6853 -0.3206
  113OSM    C9F11815   3.644   4.167   9.662 -0.1294  0.3367  0.3548
  113OSM    H9F11816   3.688   4.070   9.634  0.0271  0.1058  1.3477
  113OSM   C10F11817   3.553   4.200   9.569  0.2745 -0.4459 -0.1144
  113OSM   H10F11818   3.540   4.135   9.482  1.5090 -0.7992 -0.0506
  113OSM   C11F11819   3.457   4.310   9.574  0.1632  0.4354  0.8636
  113OSM   H11F11820   3.431   4.341   9.470  0.1118 -0.9161  0.4533
  113OSM   H11G11821   3.494   4.397   9.632 -0.6452  0.5125  1.2840
  113OSM   C12F11822   3.327   4.253   9.653 -0.5864  0.6356  0.9269
  113OSM   H12F11823   3.353   4.219   9.755  1.3696 -2.2051 -0.3929
  113OSM   H12G11824   3.285   4.165   9.599 -0.4041  2.0377 -1.7163
  113OSM   C13F11825   3.223   4.360   9.657  0.5030  0.2863  0.8386
  113OSM   H13F11826   3.136   4.322   9.716  1.1055 -0.0558  1.5215
  113OSM   H13G11827   3.161   4.357   9.565  1.1294 -1.0353  0.4283
  113OSM   C14F11828   3.248   4.495   9.727  0.0950 -0.2540  0.1312
  113OSM   H14F11829   3.154   4.553   9.729 -0.1784 -0.6204  3.4101
  113OSM   H14G11830   3.322   4.550   9.665  0.2684  1.1661  1.5630
  113OSM   C15F11831   3.306   4.486   9.866  0.4451 -0.4551  0.0769
  113OSM   H15F11832   3.331   4.381   9.888  0.4612 -0.4976 -0.1406
  113OSM   H15G11833   3.232   4.516   9.943  0.8108  0.2854  0.1515
  113OSM   C16F11834   3.422   4.588   9.877  0.1624  0.4400 -0.7818
  113OSM   H16F11835   3.409   4.677   9.811 -2.0229 -1.8167 -3.6381
  113OSM   H16G11836   3.516   4.535   9.851 -0.1624 -1.8419  2.1576
  113OSM   C17F11837   3.445   4.648  10.019 -0.1676 -0.1875 -0.0355
  113OSM   H17F11838   3.356   4.698  10.063 -1.8945 -1.1063 -2.2824
  113OSM   H17G11839   3.532   4.717  10.015 -0.1751 -0.2098 -0.7148
  113OSM   C18F11840   3.485   4.537  10.116 -0.0457  0.2434 -0.1070
  113OSM   H18F11841   3.390   4.489  10.146 -0.4913  0.8152 -0.5691
  113OSM   H18G11842   3.536   4.568  10.211  1.0525 -1.2710 -0.1602
  113OSM   H18H11843   3.551   4.466  10.063  2.5472  0.4152  2.5957
  114OSM      N11844   3.654   0.465  11.069 -0.4438  0.2650 -0.5788
  114OSM    C1511845   3.769   0.427  11.149 -0.4058  0.7252 -0.5142
  114OSM   H15A11846   3.790   0.322  11.136 -1.4574  0.3834  0.4294
  114OSM   H15B11847   3.752   0.439  11.255  0.2682  0.6017 -0.3845
  114OSM   H15C11848   3.866   0.471  11.131  0.1152 -0.1598  0.0587
  114OSM    C1411849   3.535   0.373  11.115 -0.4593 -0.1642  0.2506
  114OSM   H14A11850   3.547   0.269  11.091  2.0454  0.5264 -1.8971
  114OSM   H14B11851   3.448   0.402  11.059 -0.9937  1.1679  1.6620
  114OSM   H14C11852   3.514   0.382  11.221 -0.0566  1.0526  0.2483
  114OSM    C1311853   3.626   0.611  11.077  0.3841 -0.2552  0.8276
  114OSM   H13A11854   3.699   0.678  11.035  1.1577 -1.2254  0.5846
  114OSM   H13B11855   3.629   0.641  11.181  0.2160  1.2817  0.4141
  114OSM   H13C11856   3.537   0.628  11.018  1.0301 -1.8954 -0.7234
  114OSM    C1211857   3.685   0.438  10.928  0.0862  0.1631  0.4584
  114OSM   H12A11858   3.596   0.471  10.878 -0.2718  0.3918  1.2257
  114OSM   H12B11859   3.690   0.333  10.902  0.9835  0.4116 -0.4187
  114OSM    C1111860   3.812   0.491  10.871 -1.0279  0.2570 -0.9532
  114OSM   H11A11861   3.832   0.596  10.903 -2.2838  0.3956 -0.5719
  114OSM   H11B11862   3.800   0.494  10.760 -5.7579 -1.9617 -0.7248
  114OSM      P11863   4.013   0.330  10.821  0.0346  0.3084 -0.4080
  114OSM    O1311864   4.131   0.408  10.784 -0.7725 -0.3584 -0.1574
  114OSM    O1411865   4.028   0.193  10.891  0.1647 -0.5316  0.1388
  114OSM    O1111866   3.930   0.316  10.681  0.0912  0.0936 -0.2688
  114OSM    O1211867   3.928   0.425  10.913 -0.2269 -0.0668  0.4620
  114OSM    C1S11868   3.816   0.231  10.665 -0.0666 -0.2305  0.2572
  114OSM    H1S11869   3.731   0.275  10.719  0.1096 -2.3453  2.4222
  114OSM    H1T11870   3.834   0.128  10.703 -1.4791  0.1733  2.1243
  114OSM     NF11871   3.652   0.191  10.474  0.1946  0.6097  0.6424
  114OSM    HNF11872   3.629   0.100  10.441  1.0284 -0.1430  2.0602
  114OSM    C2S11873   3.793   0.219  10.508  0.4621  0.4334 -0.0264
  114OSM    H2S11874   3.814   0.313  10.451 -1.8373 -0.6319 -2.8881
  114OSM    C3S11875   3.889   0.121  10.450  0.2956  0.2387  1.1067
  114OSM    H3S11876   3.855   0.019  10.476  1.0111 -0.2254  0.2975
  114OSM     O311877   4.019   0.138  10.498  0.4870 -0.0975  0.3949
  114OSM    HO311878   4.004   0.213  10.556 -1.0333  0.0426 -0.1352
  114OSM    C4S11879   3.897   0.132  10.290 -0.4173  0.1263 -0.1877
  114OSM    H4S11880   3.879   0.231  10.246 -2.2052 -0.3209 -0.5442
  114OSM    C5S11881   3.928   0.039  10.194 -0.1896  0.7839 -0.1031
  114OSM    H5S11882   3.959  -0.060  10.231  1.2435  1.1820 -0.1725
  114OSM    C6S11883   3.932   0.068  10.045 -0.2778  0.2906  0.0962
  114OSM    H6S11884   3.847   0.134  10.017 -1.1926  0.7956  3.5458
  114OSM    H6T11885   3.922  -0.028   9.991 -0.1542  0.5626 -0.4175
  114OSM    C7S11886   4.071   0.133  10.002 -0.4013  0.3165 -0.5624
  114OSM    H7S11887   4.156   0.084  10.055  0.0265  0.5315 -1.0396
  114OSM    H7T11888   4.090   0.235  10.044  0.0688  0.2589 -0.6321
  114OSM    C8S11889   4.104   0.125   9.854  0.2167 -0.4535 -0.3028
  114OSM    H8S11890   4.054   0.033   9.816  1.0784 -0.5633 -1.2207
  114OSM    H8T11891   4.213   0.108   9.841  0.2128 -1.0579  0.3616
  114OSM    C9S11892   4.053   0.242   9.776 -0.1258  0.1981 -0.7172
  114OSM    H9S11893   4.066   0.343   9.820 -1.0602 -0.1742  0.4946
  114OSM    H9T11894   3.944   0.220   9.774 -0.6375  2.4517 -0.2272
  114OSM   C10S11895   4.104   0.240   9.636 -0.0551  0.0636  0.4043
  114OSM   H10S11896   4.214   0.253   9.625 -0.2240 -0.3687 -2.8281
  114OSM   H10T11897   4.061   0.326   9.580  0.6910  0.2086  0.0297
  114OSM   C11S11898   4.069   0.112   9.556 -0.1464  0.0503  0.4605
  114OSM   H11S11899   3.959   0.101   9.550 -0.0014 -1.2123 -0.2937
  114OSM   H11T11900   4.111   0.016   9.594  0.6599  0.8878  1.7748
  114OSM   C12S11901   4.106   0.120   9.403 -0.4231  0.0225 -0.1614
  114OSM   H12S11902   4.061   0.216   9.369  2.0407  1.8133  1.2571
  114OSM   H12T11903   4.060   0.029   9.361 -1.0846  0.0352  0.5136
  114OSM   C13S11904   4.258   0.124   9.371  0.2666 -0.2374  0.0025
  114OSM   H13S11905   4.288   0.027   9.415  0.9458  1.8100  4.6751
  114OSM   H13T11906   4.308   0.208   9.425 -0.9107  1.2135 -1.0686
  114OSM   C14S11907   4.297   0.126   9.228  0.0567 -1.1637  0.1037
  114OSM   H14S11908   4.259   0.215   9.174  1.1796 -1.1742 -0.7437
  114OSM   H14T11909   4.247   0.042   9.175  0.3662 -2.2980  1.5255
  114OSM   C15S11910   4.443   0.117   9.215 -0.5682  0.2044  0.0565
  114OSM   H15S11911   4.481   0.018   9.246 -2.4898 -0.5970  0.0126
  114OSM   H15T11912   4.487   0.199   9.277 -0.3097 -0.9360  1.4255
  114OSM   C16S11913   4.478   0.128   9.067  0.5395 -0.6364 -0.4518
  114OSM   H16S11914   4.412   0.199   9.012 -2.0497 -0.7763  2.2424
  114OSM   H16T11915   4.448   0.033   9.017  1.3484 -0.7983 -0.6451
  114OSM   C17S11916   4.627   0.160   9.046 -0.3470 -0.1731 -0.7518
  114OSM   H17S11917   4.675   0.073   9.096  1.2099  0.7536 -0.5397
  114OSM   H17T11918   4.644   0.257   9.098  2.5087 -1.5563  1.1563
  114OSM   C18S11919   4.668   0.171   8.893 -0.2583 -0.4212  0.2883
  114OSM   H18S11920   4.620   0.243   8.824 -0.0472 -0.6659 -0.1180
  114OSM   H18T11921   4.649   0.071   8.849 -0.3123  0.2480 -1.2649
  114OSM   H18U11922   4.777   0.194   8.888 -0.5810  1.1472  0.1982
  114OSM    C1F11923   3.548   0.276  10.494  0.5442  0.7237  0.3583
  114OSM     OF11924   3.569   0.389  10.542  0.3678  0.7428  0.6236
  114OSM    C2F11925   3.415   0.226  10.481  0.6640 -0.8517  0.0776
  114OSM    H2F11926   3.353   0.272  10.560  0.8325  0.7693 -0.7076
  114OSM    H2G11927   3.414   0.118  10.507  0.0862 -0.4022  2.0731
  114OSM    C3F11928   3.349   0.265  10.342  0.5367 -0.6364 -0.0248
  114OSM    H3F11929   3.359   0.375  10.332  1.5553 -0.8063 -1.1153
  114OSM    H3G11930   3.241   0.248  10.360  0.3725  1.0459  0.8096
  114OSM    C4F11931   3.409   0.198  10.218  0.9897 -0.3654 -0.2328
  114OSM    H4F11932   3.387   0.090  10.228 -0.6340  0.0185  0.7347
  114OSM    H4G11933   3.518   0.220  10.219  0.6697  1.4906  1.6190
  114OSM    C5F11934   3.336   0.233  10.084  0.8155  0.0288  0.4296
  114OSM    H5F11935   3.352   0.337  10.050  2.7781 -0.5675 -0.6063
  114OSM    H5G11936   3.226   0.219  10.099  0.2014 -0.0264 -3.2077
  114OSM    C6F11937   3.372   0.144   9.963  0.0065  0.1083  0.3658
  114OSM    H6F11938   3.358   0.038   9.994  1.3335 -1.3553 -3.4906
  114OSM    H6G11939   3.476   0.172   9.936  0.3135 -3.7686 -3.5130
  114OSM    C7F11940   3.274   0.169   9.852 -0.3688  0.1120 -0.2439
  114OSM    H7F11941   3.303   0.259   9.793  0.7218  0.0257  0.1453
  114OSM    H7G11942   3.181   0.181   9.913 -1.6079 -1.1698 -1.7851
  114OSM    C8F11943   3.252   0.047   9.764  0.4565  0.6633 -0.9405
  114OSM    H8F11944   3.216  -0.041   9.822  1.3384 -1.6548 -3.6897
  114OSM    H8G11945   3.356   0.022   9.732  0.7313 -1.8185  1.4814
  114OSM    C9F11946   3.150   0.079   9.656 -0.4945 -0.5359 -0.1796
  114OSM    H9F11947   3.045   0.049   9.672 -1.0511  1.4461  0.0887
  114OSM   C10F11948   3.175   0.143   9.537 -0.8593 -0.0053 -0.3040
  114OSM   H10F11949   3.090   0.156   9.469 -0.7118 -2.1330 -0.9747
  114OSM   C11F11950   3.314   0.190   9.500  0.5170 -0.7162  0.3541
  114OSM   H11F11951   3.380   0.206   9.587  2.4788  0.9226 -1.3347
  114OSM   H11G11952   3.302   0.293   9.460 -0.2252 -0.8623  0.1788
  114OSM   C12F11953   3.377   0.107   9.388  0.4424 -0.3209 -0.5105
  114OSM   H12F11954   3.368   0.001   9.420  0.1106  0.2462  1.3914
  114OSM   H12G11955   3.485   0.133   9.382  0.5242 -0.4391  0.3183
  114OSM   C13F11956   3.316   0.133   9.251 -0.5561 -0.4296 -0.2174
  114OSM   H13F11957   3.304   0.242   9.233 -1.3377 -0.2302  1.3488
  114OSM   H13G11958   3.212   0.094   9.249 -1.4198  1.7290 -1.7566
  114OSM   C14F11959   3.407   0.064   9.143 -0.1058  0.4574 -0.2232
  114OSM   H14F11960   3.398  -0.046   9.158 -1.0728  0.7601  1.8239
  114OSM   H14G11961   3.512   0.093   9.163 -0.6624  2.4041  0.0662
  114OSM   C15F11962   3.379   0.105   9.005 -0.4646 -0.8390  0.1611
  114OSM   H15F11963   3.390   0.215   9.000 -1.7639 -0.7042 -0.1266
  114OSM   H15G11964   3.275   0.085   8.972 -0.1469 -0.8177 -0.9069
  114OSM   C16F11965   3.477   0.039   8.898 -0.8862 -0.1366 -0.7255
  114OSM   H16F11966   3.510  -0.063   8.929 -4.0070 -0.9813  0.0947
  114OSM   H16G11967   3.569   0.102   8.892 -2.3359  2.1152 -0.2040
  114OSM   C17F11968   3.410   0.012   8.764 -0.0424  0.7101  0.4578
  114OSM   H17F11969   3.354   0.101   8.730 -1.3981 -0.4949 -0.6084
  114OSM   H17G11970   3.341  -0.074   8.773  1.2418 -0.3333  0.6562
  114OSM   C18F11971   3.524  -0.010   8.657 -0.3181 -0.2664 -0.9317
  114OSM   H18F11972   3.606   0.065   8.654  0.4888 -0.9061  2.3299
  114OSM   H18G11973   3.480  -0.015   8.554  1.5982 -3.8365 -1.7461
  114OSM   H18H11974   3.575  -0.105   8.682  0.1387 -0.2927 -1.9312
  115OSM      N11975   2.633   0.153  11.222 -0.3745 -0.4827 -0.3456
  115OSM    C1511976   2.503   0.179  11.153  0.0779  0.0139 -0.1403
  115OSM   H15A11977   2.461   0.092  11.105  1.1124 -0.1919 -0.7031
  115OSM   H15B11978   2.508   0.263  11.085 -1.6091  0.0604 -0.2504
  115OSM   H15C11979   2.424   0.211  11.221  1.0139  1.6239  0.2627
  115OSM    C1411980   2.669   0.277  11.287 -0.7036 -0.0053 -0.3024
  115OSM   H14A11981   2.655   0.368  11.231 -0.8646  1.8620  2.5817
  115OSM   H14B11982   2.774   0.275  11.313 -0.7920 -2.3192  0.1010
  115OSM   H14C11983   2.614   0.288  11.379 -0.2846 -0.3374 -0.0067
  115OSM    C1311984   2.620   0.056  11.332  0.5457 -0.6974 -0.0098
  115OSM   H13A11985   2.722   0.041  11.362  0.2709 -3.5926 -0.2578
  115OSM   H13B11986   2.585  -0.044  11.311 -0.8326 -0.1907 -0.2490
  115OSM   H13C11987   2.566   0.098  11.415  1.2883 -1.5782  0.9497
  115OSM    C1211988   2.743   0.107  11.126 -1.0723  0.4958  0.0221
  115OSM   H12A11989   2.747   0.002  11.100 -0.3519 -0.2530  2.8617
  115OSM   H12B11990   2.834   0.122  11.181 -0.3865 -1.0432 -0.6218
  115OSM    C1111991   2.751   0.187  10.993  0.4819 -0.2099  0.1633
  115OSM   H11A11992   2.648   0.194  10.951  0.4535 -0.7336  0.1358
  115OSM   H11B11993   2.813   0.131  10.920 -0.2393 -0.7350 -0.0588
  115OSM      P11994   2.953   0.342  11.041 -0.0051  0.0111 -0.3821
  115OSM    O1311995   2.971   0.486  11.060 -0.1606 -0.0429  0.2648
  115OSM    O1411996   2.992   0.254  11.157  0.1667  0.4715  0.4680
  115OSM    O1111997   3.028   0.304  10.915  0.1281 -0.4093 -0.0507
  115OSM    O1211998   2.797   0.318  11.014 -0.0700 -0.0828 -0.0734
  115OSM    C1S11999   3.003   0.366  10.790 -0.2065  0.1431 -0.2198
  115OSM    H1S12000   3.046   0.468  10.788  0.3983 -0.1069 -0.1299
  115OSM    H1T12001   2.894   0.358  10.767 -0.2740 -2.2534  0.5953
  115OSM     NF12002   3.027   0.323  10.546  0.1217  0.6355 -0.1153
  115OSM    HNF12003   2.996   0.253  10.482  0.3524  0.2921  0.1411
  115OSM    C2S12004   3.064   0.279  10.673  0.1644 -0.2283 -0.2553
  115OSM    H2S12005   3.172   0.302  10.679 -0.5212  4.2321 -1.4437
  115OSM    C3S12006   3.037   0.128  10.695 -0.1994  0.6945  0.3402
  115OSM    H3S12007   2.933   0.097  10.671  0.0069 -1.1680  1.6204
  115OSM     O312008   3.044   0.072  10.825 -0.3201  0.1142 -0.0541
  115OSM    HO312009   3.048   0.153  10.877  1.8634  1.4540 -2.0784
  115OSM    C4S12010   3.128   0.045  10.604  0.0517  0.0536  0.5669
  115OSM    H4S12011   3.235   0.062  10.625  0.2640 -0.6982  0.1358
  115OSM    C5S12012   3.095  -0.048  10.508  0.3174 -0.1880 -0.3746
  115OSM    H5S12013   2.987  -0.064  10.500 -0.5793  3.0962  2.5776
  115OSM    C6S12014   3.182  -0.133  10.418 -0.3179 -0.7568  0.4601
  115OSM    H6S12015   3.159  -0.239  10.442  1.4728 -1.4058 -0.4868
  115OSM    H6T12016   3.290  -0.110  10.431 -0.2457 -1.0430  0.3776
  115OSM    C7S12017   3.136  -0.097  10.277  0.0993  0.3952  0.1728
  115OSM    H7S12018   3.167   0.009  10.260  1.9482 -0.2665 -0.7738
  115OSM    H7T12019   3.025  -0.100  10.269 -0.2166 -0.4017  3.4517
  115OSM    C8S12020   3.184  -0.194  10.161  0.3868  0.1378  0.0346
  115OSM    H8S12021   3.295  -0.184  10.162  0.3369  0.8070 -0.6300
  115OSM    H8T12022   3.143  -0.158  10.065 -0.7653  2.7603  1.4044
  115OSM    C9S12023   3.134  -0.327  10.188  0.2341 -0.6692 -0.5895
  115OSM    H9S12024   3.026  -0.327  10.162  0.0768  3.3771 -0.5087
  115OSM    H9T12025   3.140  -0.360  10.294 -1.1636 -1.1006 -0.6188
  115OSM   C10S12026   3.206  -0.423  10.096 -0.0473 -0.3975  0.1785
  115OSM   H10S12027   3.160  -0.523  10.111 -3.1599  0.7002 -1.2127
  115OSM   H10T12028   3.316  -0.412  10.108  0.2212 -1.5494 -0.9539
  115OSM   C11S12029   3.175  -0.400   9.946 -0.2267  0.3133  0.5557
  115OSM   H11S12030   3.216  -0.300   9.919 -0.0939 -0.0001 -0.4419
  115OSM   H11T12031   3.065  -0.397   9.936 -0.4859  1.7650  3.0014
  115OSM   C12S12032   3.234  -0.512   9.866 -0.1994 -0.0150 -0.1759
  115OSM   H12S12033   3.196  -0.608   9.906 -0.7292  0.6235  0.9119
  115OSM   H12T12034   3.345  -0.517   9.867 -0.0969  1.5359 -0.3142
  115OSM   C13S12035   3.185  -0.509   9.716  0.1613  0.0714  0.2475
  115OSM   H13S12036   3.203  -0.412   9.666 -1.2762  1.0494  1.5336
  115OSM   H13T12037   3.078  -0.540   9.711 -0.0039  0.4818  1.0046
  115OSM   C14S12038   3.284  -0.607   9.648 -0.3829  0.2148  0.1739
  115OSM   H14S12039   3.245  -0.710   9.657  0.5604 -0.2494 -0.8164
  115OSM   H14T12040   3.385  -0.604   9.694 -1.1527  1.7736  1.8984
  115OSM   C15S12041   3.301  -0.587   9.500  0.0490  0.0556 -0.1418
  115OSM   H15S12042   3.199  -0.570   9.461 -0.6938 -2.7967  0.3895
  115OSM   H15T12043   3.346  -0.681   9.461 -1.6810 -0.1622 -1.7365
  115OSM   C16S12044   3.382  -0.464   9.459  0.2173 -0.1708 -0.7406
  115OSM   H16S12045   3.486  -0.489   9.489  0.0605 -0.1735 -0.2034
  115OSM   H16T12046   3.355  -0.373   9.516  0.2708 -2.0862  2.5920
  115OSM   C17S12047   3.364  -0.445   9.314  0.3380 -0.1275  0.5635
  115OSM   H17S12048   3.284  -0.372   9.291 -0.1291 -0.6978  0.3643
  115OSM   H17T12049   3.317  -0.535   9.270 -0.5248  0.4923  0.1865
  115OSM   C18S12050   3.493  -0.427   9.225  0.1130 -0.3623  0.1394
  115OSM   H18S12051   3.567  -0.346   9.247  2.5774 -2.2755 -0.6333
  115OSM   H18T12052   3.457  -0.416   9.120  1.4903  0.9656 -0.2335
  115OSM   H18U12053   3.550  -0.522   9.217  0.2958 -0.1762 -1.0096
  115OSM    C1F12054   3.040   0.448  10.497 -0.7641  0.5137 -0.5185
  115OSM     OF12055   3.080   0.543  10.567  0.1091 -0.1834  0.4035
  115OSM    C2F12056   3.007   0.461  10.354  0.2844  0.0059  0.1166
  115OSM    H2F12057   2.902   0.434  10.332  0.6182 -0.1167 -1.4383
  115OSM    H2G12058   3.078   0.393  10.301  1.9434  1.5810  0.2003
  115OSM    C3F12059   3.031   0.605  10.302 -0.2460 -0.1770  0.7488
  115OSM    H3F12060   3.134   0.632  10.333 -1.0518  4.6303  0.0282
  115OSM    H3G12061   2.969   0.686  10.346  0.1978  1.4209 -1.3863
  115OSM    C4F12062   3.030   0.612  10.147  0.1812  0.3508 -0.4852
  115OSM    H4F12063   3.044   0.721  10.131 -3.1595  1.0566  0.6680
  115OSM    H4G12064   2.931   0.581  10.107 -0.9195  2.3231  0.5901
  115OSM    C5F12065   3.144   0.531  10.085  0.2640 -0.0830  0.9282
  115OSM    H5F12066   3.132   0.421  10.100  0.4434 -0.3395 -0.6505
  115OSM    H5G12067   3.241   0.548  10.136  0.9799  0.5976 -0.5859
  115OSM    C6F12068   3.153   0.550   9.929  0.7786  0.2669 -0.4195
  115OSM    H6F12069   3.256   0.529   9.894  0.8809  2.0146 -1.2995
  115OSM    H6G12070   3.124   0.657   9.917 -1.0529 -0.1408  0.0336
  115OSM    C7F12071   3.047   0.469   9.852  0.4644  0.3317 -0.8745
  115OSM    H7F12072   2.949   0.504   9.890  1.7236  1.1162  1.9395
  115OSM    H7G12073   3.052   0.367   9.894 -2.4565  0.7967  0.8345
  115OSM    C8F12074   3.072   0.479   9.700  0.1362  0.0061 -0.1784
  115OSM    H8F12075   3.005   0.412   9.644  0.2576 -0.0749 -0.2269
  115OSM    H8G12076   3.174   0.443   9.673  1.2219  0.3598  2.9724
  115OSM    C9F12077   3.055   0.617   9.642 -0.2147 -0.2586  0.0371
  115OSM    H9F12078   3.040   0.701   9.712  2.7146  2.5625 -2.3909
  115OSM   C10F12079   3.080   0.657   9.513  0.1482 -0.0601  0.2684
  115OSM   H10F12080   3.072   0.766   9.495 -0.5575  0.1891  1.8273
  115OSM   C11F12081   3.132   0.570   9.402  0.3430 -0.2629  0.3820
  115OSM   H11F12082   3.150   0.464   9.432 -0.1664  0.0114  1.7244
  115OSM   H11G12083   3.227   0.613   9.363  1.0615 -0.8581  1.3997
  115OSM   C12F12084   3.028   0.559   9.283  0.3894  0.3219 -0.0678
  115OSM   H12F12085   3.009   0.662   9.244  1.5012  0.1762 -1.0374
  115OSM   H12G12086   2.935   0.515   9.326 -0.8043  2.2477 -0.5388
  115OSM   C13F12087   3.068   0.460   9.170  0.0700 -0.3084 -0.1808
  115OSM   H13F12088   2.991   0.445   9.091  0.9912 -0.1704 -1.1230
  115OSM   H13G12089   3.086   0.365   9.225 -1.1095 -1.7728 -2.1989
  115OSM   C14F12090   3.193   0.506   9.096 -0.4227 -0.5666  0.1248
  115OSM   H14F12091   3.226   0.430   9.022  0.6835 -0.1661  0.1954
  115OSM   H14G12092   3.269   0.514   9.176 -2.3780  1.1254  1.9101
  115OSM   C15F12093   3.177   0.642   9.029  0.2211 -0.6547 -0.2138
  115OSM   H15F12094   3.274   0.680   8.990 -0.7302  2.2113 -0.0347
  115OSM   H15G12095   3.149   0.711   9.112  1.1341 -0.1709 -0.2923
  115OSM   C16F12096   3.063   0.652   8.925  0.5172  0.5868  0.0281
  115OSM   H16F12097   2.969   0.610   8.967 -0.4172 -0.0385 -2.5211
  115OSM   H16G12098   3.083   0.583   8.840 -0.8781  1.1938 -0.8270
  115OSM   C17F12099   3.033   0.797   8.891  0.2144  0.2180 -0.1704
  115OSM   H17F12100   3.120   0.830   8.830 -0.6757  3.5947  0.1687
  115OSM   H17G12101   3.040   0.859   8.983  0.6374 -3.3691  2.4118
  115OSM   C18F12102   2.901   0.827   8.816 -0.8887  0.2640 -0.3546
  115OSM   H18F12103   2.907   0.765   8.724 -1.4200 -0.5988  0.1783
  115OSM   H18G12104   2.912   0.931   8.778 -0.0195  0.5945  0.7326
  115OSM   H18H12105   2.804   0.797   8.861 -1.3545  1.2089 -0.7016
  116OSM      N12106   2.628   2.737  11.355  0.0194  0.3646  0.5310
  116OSM    C1512107   2.607   2.628  11.467 -0.4946  0.0430  0.1364
  116OSM   H15A12108   2.557   2.667  11.555  1.5894  2.7440  0.2449
  116OSM   H15B12109   2.707   2.596  11.494  0.7308  1.8070 -2.0087
  116OSM   H15C12110   2.554   2.541  11.429  1.0505 -0.7639 -0.2404
  116OSM    C1412111   2.506   2.810  11.339  0.4235  0.7141  0.9444
  116OSM   H14A12112   2.426   2.747  11.305  0.4982  1.9237 -1.7639
  116OSM   H14B12113   2.514   2.881  11.258 -1.6028 -1.7128 -1.5984
  116OSM   H14C12114   2.471   2.847  11.434 -0.1828  0.7748  0.7023
  116OSM    C1312115   2.741   2.827  11.393  0.1111 -0.6235 -0.6518
  116OSM   H13A12116   2.717   2.873  11.488  0.7501  5.1847 -2.8810
  116OSM   H13B12117   2.762   2.900  11.317  3.3020 -0.2228  0.4787
  116OSM   H13C12118   2.833   2.772  11.403  0.3686 -0.0418  0.3123
  116OSM    C1212119   2.667   2.670  11.226  0.3094 -0.3375 -0.0189
  116OSM   H12A12120   2.590   2.603  11.193  1.3928 -0.7227 -1.9198
  116OSM   H12B12121   2.758   2.614  11.242  0.1243 -0.8301 -0.6937
  116OSM    C1112122   2.693   2.758  11.100  0.1057 -0.6287  0.5664
  116OSM   H11A12123   2.735   2.696  11.019 -2.1489 -1.6625  0.0982
  116OSM   H11B12124   2.775   2.827  11.129 -0.4618  0.2459  0.1441
  116OSM      P12125   2.466   2.749  10.968  0.3787 -0.4057  0.7998
  116OSM    O1312126   2.469   2.604  10.993  0.4238 -0.3646  1.0383
  116OSM    O1412127   2.335   2.819  10.967 -0.1349 -0.0577  0.0983
  116OSM    O1112128   2.522   2.773  10.827  0.0606 -0.0588  0.3977
  116OSM    O1212129   2.576   2.827  11.059 -1.1099  0.4212 -0.3515
  116OSM    C1S12130   2.637   2.861  10.799 -0.1827 -1.2163 -0.3243
  116OSM    H1S12131   2.727   2.802  10.824  1.6218  1.0318 -1.1218
  116OSM    H1T12132   2.635   2.947  10.870 -0.0338 -1.6897  0.2593
  116OSM     NF12133   2.756   3.001  10.643 -0.2739 -0.0258 -0.0663
  116OSM    HNF12134   2.738   3.098  10.628 -1.4987 -0.1184  0.6971
  116OSM    C2S12135   2.634   2.918  10.667  0.1599  0.1380  0.5014
  116OSM    H2S12136   2.639   2.834  10.594  0.0675  2.2010 -2.0162
  116OSM    C3S12137   2.504   3.002  10.630  0.4146  0.5153 -0.7800
  116OSM    H3S12138   2.511   3.094  10.692 -1.7223  0.1702  0.0521
  116OSM     O312139   2.386   2.932  10.677  0.3919 -0.0085  0.2999
  116OSM    HO312140   2.417   2.845  10.703  0.6957 -0.7959 -2.4349
  116OSM    C4S12141   2.494   3.032  10.484 -1.4216 -0.0691 -0.4277
  116OSM    H4S12142   2.496   3.137  10.451  0.1091  0.7852  2.0705
  116OSM    C5S12143   2.484   2.940  10.387 -0.1441  0.9623  0.1752
  116OSM    H5S12144   2.479   2.833  10.412  1.4315  1.3695  2.6148
  116OSM    C6S12145   2.486   2.986  10.246  0.3433  0.5418  0.1499
  116OSM    H6S12146   2.489   3.097  10.251  0.5616  0.5049  1.1697
  116OSM    H6T12147   2.391   2.959  10.195 -1.0312 -1.5190  3.4932
  116OSM    C7S12148   2.610   2.927  10.176 -0.1195 -1.0293  0.1527
  116OSM    H7S12149   2.617   2.817  10.190  1.5202 -0.8878  0.6434
  116OSM    H7T12150   2.709   2.955  10.218 -1.4314 -0.6462  3.2506
  116OSM    C8S12151   2.602   2.966  10.029  0.4049 -0.2472  0.7338
  116OSM    H8S12152   2.591   3.076  10.016  1.4399 -0.3875 -1.8973
  116OSM    H8T12153   2.514   2.915   9.986  1.0087 -2.2985  1.8174
  116OSM    C9S12154   2.728   2.910   9.972  0.2050 -0.8488  0.2483
  116OSM    H9S12155   2.750   2.805  10.001 -0.5098 -0.6112  1.7766
  116OSM    H9T12156   2.815   2.961  10.017 -1.3735  1.6857  0.6601
  116OSM   C10S12157   2.753   2.918   9.828  0.0764  0.4338 -0.2814
  116OSM   H10S12158   2.736   3.022   9.794 -0.6796  0.7955  1.1318
  116OSM   H10T12159   2.679   2.847   9.785  1.7905 -1.6879  0.0873
  116OSM   C11S12160   2.893   2.875   9.784 -0.6667 -0.1297 -0.6343
  116OSM   H11S12161   2.901   2.773   9.829 -2.8486 -0.3589 -0.6598
  116OSM   H11T12162   2.971   2.928   9.842  0.0742 -3.9715  2.3130
  116OSM   C12S12163   2.924   2.877   9.637 -0.0167  0.2001 -1.0765
  116OSM   H12S12164   2.975   2.974   9.621  0.9731  0.0185  0.6387
  116OSM   H12T12165   2.825   2.868   9.588 -1.2945  1.6706  1.0527
  116OSM   C13S12166   3.013   2.757   9.593  0.1229  0.3329 -0.4288
  116OSM   H13S12167   2.954   2.668   9.623  0.3174 -0.2622 -1.7335
  116OSM   H13T12168   3.098   2.751   9.664 -1.2502 -1.6036  1.1656
  116OSM   C14S12169   3.052   2.757   9.446  0.5644  0.1895  0.9101
  116OSM   H14S12170   2.971   2.813   9.394  0.4506 -1.4547 -0.7540
  116OSM   H14T12171   3.070   2.658   9.399  0.4217  0.5172  0.1550
  116OSM   C15S12172   3.187   2.829   9.414 -0.0646  0.4133 -0.3596
  116OSM   H15S12173   3.264   2.757   9.449 -0.9697 -0.4079  0.0063
  116OSM   H15T12174   3.187   2.923   9.473 -0.3992  0.4913 -0.4813
  116OSM   C16S12175   3.208   2.857   9.261  0.7112 -0.6876 -0.3449
  116OSM   H16S12176   3.137   2.942   9.252  1.4300  0.1978  1.5673
  116OSM   H16T12177   3.178   2.777   9.191 -1.8502  0.9278 -1.2006
  116OSM   C17S12178   3.350   2.899   9.234 -0.4703 -0.1516 -0.0323
  116OSM   H17S12179   3.414   2.812   9.258 -2.1774 -0.8832  2.2515
  116OSM   H17T12180   3.388   2.980   9.300  1.2031  1.3718 -2.6820
  116OSM   C18S12181   3.366   2.938   9.092 -0.5534  0.0665 -0.4362
  116OSM   H18S12182   3.474   2.953   9.069 -0.2325 -1.0610  0.2592
  116OSM   H18T12183   3.326   3.041   9.083 -0.6345 -0.0740 -2.0107
  116OSM   H18U12184   3.317   2.882   9.010 -0.9317 -2.4808  1.4149
  116OSM    C1F12185   2.881   2.953  10.651 -0.0021 -0.4002 -0.5068
  116OSM     OF12186   2.906   2.836  10.668  0.7379 -0.0545  0.1525
  116OSM    C2F12187   2.992   3.054  10.652  0.3822 -0.0146 -0.5491
  116OSM    H2F12188   3.046   3.043  10.748  1.1159  0.3209 -0.9224
  116OSM    H2G12189   2.939   3.152  10.652  0.6275  0.1331  0.4989
  116OSM    C3F12190   3.088   3.059  10.524  0.2684  0.6916 -0.3890
  116OSM    H3F12191   3.129   2.957  10.512 -0.5414 -0.1660  3.0849
  116OSM    H3G12192   3.167   3.133  10.551  1.2617 -0.1005 -1.0641
  116OSM    C4F12193   3.024   3.094  10.389 -0.4156 -0.3342  0.0291
  116OSM    H4F12194   2.989   3.200  10.383 -0.1538 -0.0669  2.3696
  116OSM    H4G12195   2.940   3.025  10.364  1.5915 -2.1220 -2.2928
  116OSM    C5F12196   3.122   3.082  10.273 -0.1517  0.4916  0.1036
  116OSM    H5F12197   3.154   2.977  10.258  2.0566  1.3320 -1.6028
  116OSM    H5G12198   3.211   3.146  10.292  0.6994 -0.7563  0.4312
  116OSM    C6F12199   3.070   3.136  10.139 -0.0508 -0.1240 -0.5881
  116OSM    H6F12200   3.028   3.238  10.155  0.3120 -0.0994  0.2356
  116OSM    H6G12201   2.997   3.061  10.102 -0.2024 -0.3683  0.1919
  116OSM    C7F12202   3.188   3.140  10.041 -0.6327 -1.0297 -0.1715
  116OSM    H7F12203   3.226   3.044  10.000 -0.9614 -0.6821 -1.3283
  116OSM    H7G12204   3.273   3.172  10.106  0.2107 -3.2968 -0.0720
  116OSM    C8F12205   3.180   3.250   9.930 -0.0834  0.8538 -0.3717
  116OSM    H8F12206   3.285   3.274   9.905  0.2231  1.7785  1.5552
  116OSM    H8G12207   3.141   3.346   9.973  1.2184  1.4955 -0.5830
  116OSM    C9F12208   3.091   3.219   9.819 -0.1843  0.5439  0.3092
  116OSM    H9F12209   3.011   3.152   9.854  1.3130  0.2011  3.4618
  116OSM   C10F12210   3.103   3.236   9.682 -0.2105 -0.0306  0.3168
  116OSM   H10F12211   3.018   3.205   9.620  0.5394 -0.5398 -0.4703
  116OSM   C11F12212   3.218   3.309   9.616 -0.2214 -0.0552  0.4049
  116OSM   H11F12213   3.311   3.248   9.621 -0.8357 -1.0029  0.3059
  116OSM   H11G12214   3.235   3.408   9.665  0.5236  0.4299 -0.7787
  116OSM   C12F12215   3.196   3.345   9.467 -0.0313 -0.4008  1.4403
  116OSM   H12F12216   3.285   3.401   9.431 -0.4080 -1.0151 -0.6072
  116OSM   H12G12217   3.106   3.407   9.449  0.5541  0.7917  2.4759
  116OSM   C13F12218   3.191   3.223   9.364  0.3635 -0.1681  0.1473
  116OSM   H13F12219   3.111   3.153   9.397  1.3378 -1.2953  0.2073
  116OSM   H13G12220   3.283   3.165   9.385  0.5054  0.4039  1.1758
  116OSM   C14F12221   3.161   3.243   9.212 -0.2667  0.2538  0.3272
  116OSM   H14F12222   3.063   3.293   9.199 -0.0784  0.4055 -0.5655
  116OSM   H14G12223   3.142   3.143   9.168 -0.1832  0.1427  0.5425
  116OSM   C15F12224   3.270   3.314   9.127 -0.1113 -0.4782 -0.2198
  116OSM   H15F12225   3.366   3.258   9.138 -0.0617 -0.4205 -0.3656
  116OSM   H15G12226   3.273   3.416   9.171  0.1156 -0.1757 -0.9254
  116OSM   C16F12227   3.234   3.335   8.979  0.0798  0.1082 -0.0910
  116OSM   H16F12228   3.139   3.392   8.981  1.0012  1.6852  0.3804
  116OSM   H16G12229   3.215   3.230   8.950  1.6696 -0.2063 -0.0838
  116OSM   C17F12230   3.339   3.391   8.883 -0.7963 -0.7434  0.5595
  116OSM   H17F12231   3.355   3.500   8.899 -0.0597 -0.8150  0.3633
  116OSM   H17G12232   3.302   3.376   8.780  1.3222 -1.9627 -0.0830
  116OSM   C18F12233   3.474   3.311   8.895  0.1807 -0.8157 -0.3878
  116OSM   H18F12234   3.520   3.334   8.993 -0.6044 -0.1218 -0.1709
  116OSM   H18G12235   3.536   3.343   8.808  0.4946  0.3140  0.2334
  116OSM   H18H12236   3.451   3.203   8.885 -1.6602 -0.7942  2.4526
  117OSM      N12237   1.676   4.692  10.874 -0.2813 -0.3672  0.3111
  117OSM    C1512238   1.716   4.837  10.896  0.7136  0.2081 -0.3827
  117OSM   H15A12239   1.820   4.845  10.923  1.1093  0.2312 -1.8360
  117OSM   H15B12240   1.663   4.876  10.982 -0.5829  1.4535 -1.7029
  117OSM   H15C12241   1.693   4.898  10.810 -0.4959 -1.1798 -1.0884
  117OSM    C1412242   1.751   4.641  10.753 -0.0187 -0.2600 -0.2866
  117OSM   H14A12243   1.735   4.711  10.672  1.0197  1.2251  0.7304
  117OSM   H14B12244   1.734   4.537  10.731 -0.5133 -0.3166  0.3541
  117OSM   H14C12245   1.858   4.640  10.766  0.3190 -1.1490 -2.5707
  117OSM    C1312246   1.712   4.618  10.990  0.7844  0.1295  0.5686
  117OSM   H13A12247   1.656   4.646  11.078 -2.7426  1.6929 -1.9389
  117OSM   H13B12248   1.818   4.625  11.010  1.1485 -1.0627 -0.7689
  117OSM   H13C12249   1.694   4.514  10.965  2.2203 -0.0022 -0.0089
  117OSM    C1212250   1.528   4.680  10.855  1.0239 -0.0699  0.0586
  117OSM   H12A12251   1.468   4.709  10.940 -0.4705 -2.1441 -0.2033
  117OSM   H12B12252   1.505   4.575  10.846 -1.5448  0.5367 -1.3267
  117OSM    C1112253   1.480   4.772  10.736 -0.0113  0.0319 -0.0181
  117OSM   H11A12254   1.377   4.742  10.709 -0.6101  0.5402  1.5809
  117OSM   H11B12255   1.550   4.758  10.651 -0.9037 -0.3595 -0.7066
  117OSM      P12256   1.368   4.963  10.884  0.2089 -0.1994  0.5385
  117OSM    O1312257   1.351   4.852  10.979  0.2956  0.2416  0.2793
  117OSM    O1412258   1.429   5.084  10.940  0.1769  0.1455  0.5301
  117OSM    O1112259   1.232   4.999  10.807 -0.0167 -0.3677  0.3388
  117OSM    O1212260   1.474   4.914  10.777  0.4419  0.3190 -0.0524
  117OSM    C1S12261   1.215   5.127  10.734 -0.1975  0.5984  0.2453
  117OSM    H1S12262   1.288   5.209  10.751  0.4168  0.0891  0.0959
  117OSM    H1T12263   1.119   5.178  10.757  1.4451  3.7892  0.5258
  117OSM     NF12264   1.210   5.233  10.514  0.6888  0.4486  0.1960
  117OSM    HNF12265   1.126   5.251  10.464  0.3923 -0.1297  0.4828
  117OSM    C2S12266   1.224   5.102  10.582  0.0533 -0.4744 -0.1055
  117OSM    H2S12267   1.322   5.054  10.562  1.1643  1.3868  0.5825
  117OSM    C3S12268   1.117   4.992  10.534 -0.0621 -1.1473  0.8018
  117OSM    H3S12269   1.017   5.040  10.542  0.2319 -0.5668  1.0689
  117OSM     O312270   1.101   4.880  10.614 -0.4464  0.4788 -0.9069
  117OSM    HO312271   1.160   4.898  10.688 -0.3156 -0.0927 -0.8685
  117OSM    C4S12272   1.138   4.951  10.391 -0.2470  0.3060  0.1267
  117OSM    H4S12273   1.242   4.928  10.365 -0.5501  0.2967 -1.1395
  117OSM    C5S12274   1.048   4.961  10.288  0.5723  0.3497  0.3628
  117OSM    H5S12275   0.945   4.996  10.306  1.0827  1.1556  1.9625
  117OSM    C6S12276   1.076   4.923  10.144  0.2899 -0.1712 -0.5080
  117OSM    H6S12277   0.997   4.857  10.103  1.9865 -0.7908 -3.0454
  117OSM    H6T12278   1.174   4.871  10.131  2.3329  3.6470 -2.2026
  117OSM    C7S12279   1.094   5.035  10.046  0.2308 -0.0423 -0.3900
  117OSM    H7S12280   1.196   5.075  10.066  0.5693 -0.8573 -0.4591
  117OSM    H7T12281   1.024   5.121  10.053  2.4466  1.9500 -1.1736
  117OSM    C8S12282   1.088   4.995   9.900 -0.3045  0.0247 -0.0471
  117OSM    H8S12283   0.980   4.977   9.880 -0.2225 -0.9251  0.3460
  117OSM    H8T12284   1.149   4.903   9.892 -0.0415 -0.0955  2.5161
  117OSM    C9S12285   1.150   5.095   9.798  0.4520 -0.7715  0.4446
  117OSM    H9S12286   1.260   5.112   9.809  0.3775  0.6586 -0.7713
  117OSM    H9T12287   1.103   5.195   9.813 -0.0353 -0.9376  0.0428
  117OSM   C10S12288   1.125   5.036   9.663 -0.1242 -0.0836  0.3153
  117OSM   H10S12289   1.021   5.001   9.645 -1.1637  0.6686  3.8847
  117OSM   H10T12290   1.186   4.944   9.655  1.4701  1.0675 -1.2535
  117OSM   C11S12291   1.167   5.122   9.544 -0.2100 -0.2919 -0.0359
  117OSM   H11S12292   1.273   5.150   9.563  0.5122 -3.4251  1.3216
  117OSM   H11T12293   1.107   5.216   9.542 -0.8186 -0.6706  0.1683
  117OSM   C12S12294   1.139   5.060   9.405  0.5377  0.5886  0.3358
  117OSM   H12S12295   1.037   5.014   9.406  0.2262  1.2263 -0.6868
  117OSM   H12T12296   1.210   4.979   9.379  0.0785  0.6477 -1.2114
  117OSM   C13S12297   1.139   5.164   9.296  0.1589  0.5025 -0.7186
  117OSM   H13S12298   1.230   5.224   9.317  0.3286  0.5470 -1.5560
  117OSM   H13T12299   1.044   5.222   9.301 -1.4177 -1.8205 -1.8571
  117OSM   C14S12300   1.158   5.116   9.156  0.1152  0.5827  0.5565
  117OSM   H14S12301   1.072   5.057   9.120  0.1902 -0.2592  1.6776
  117OSM   H14T12302   1.235   5.035   9.163 -0.0138  0.3957 -0.1801
  117OSM   C15S12303   1.191   5.225   9.052  0.1418 -0.3293  0.1292
  117OSM   H15S12304   1.269   5.291   9.095 -0.2798  0.9663 -0.9956
  117OSM   H15T12305   1.097   5.280   9.026  0.9236  0.0735 -2.1042
  117OSM   C16S12306   1.247   5.167   8.913  0.6768  0.1834  0.6415
  117OSM   H16S12307   1.314   5.085   8.946  1.2982 -0.2524 -1.5420
  117OSM   H16T12308   1.309   5.248   8.868  1.0114 -0.0682  0.6436
  117OSM   C17S12309   1.137   5.122   8.808 -0.0307  0.1038  0.5115
  117OSM   H17S12310   1.172   5.118   8.703 -1.7666  0.7829 -0.1350
  117OSM   H17T12311   1.057   5.199   8.801 -1.2203 -1.2659 -2.5554
  117OSM   C18S12312   1.061   4.992   8.844  0.6347 -0.3403 -0.2173
  117OSM   H18S12313   0.995   5.021   8.929  0.8107  1.0580 -0.5239
  117OSM   H18T12314   1.127   4.907   8.869  3.5285  1.1948 -2.0680
  117OSM   H18U12315   1.000   4.948   8.763 -1.3881 -0.9193  1.5237
  117OSM    C1F12316   1.305   5.324  10.513 -0.5329 -0.4158  0.1912
  117OSM     OF12317   1.420   5.290  10.527 -0.1867 -0.1046 -0.2945
  117OSM    C2F12318   1.256   5.465  10.479 -0.3036  0.2023  0.7055
  117OSM    H2F12319   1.284   5.538  10.559  1.8740  1.4078 -1.0158
  117OSM    H2G12320   1.146   5.458  10.479 -0.2889 -0.0290  0.3124
  117OSM    C3F12321   1.314   5.503  10.337 -0.0567 -0.8692 -0.2084
  117OSM    H3F12322   1.423   5.481  10.344  0.1272  0.0165 -0.2068
  117OSM    H3G12323   1.293   5.612  10.345 -1.8682 -1.2616  1.0460
  117OSM    C4F12324   1.246   5.450  10.213  0.5047  0.1687  0.3247
  117OSM    H4F12325   1.184   5.362  10.242  0.9563  0.0444  0.9413
  117OSM    H4G12326   1.322   5.395  10.153 -0.5159 -0.5133 -0.3776
  117OSM    C5F12327   1.177   5.568  10.142 -1.2357  0.2748 -0.4181
  117OSM    H5F12328   1.253   5.649  10.135  1.6534 -2.2657 -0.3908
  117OSM    H5G12329   1.097   5.607  10.209 -1.6707  2.4067 -2.0355
  117OSM    C6F12330   1.116   5.546  10.005 -0.8831 -0.0986 -0.1299
  117OSM    H6F12331   1.048   5.631   9.983 -0.5217  0.0471 -0.7033
  117OSM    H6G12332   1.062   5.449  10.013  3.2151 -2.6538 -0.6118
  117OSM    C7F12333   1.215   5.534   9.887  0.3824 -0.5648 -0.3349
  117OSM    H7F12334   1.300   5.466   9.909  1.8021  0.7905 -1.4249
  117OSM    H7G12335   1.264   5.634   9.878  2.7117 -1.4716  1.2208
  117OSM    C8F12336   1.141   5.487   9.760  0.4977 -0.1198 -0.1644
  117OSM    H8F12337   1.070   5.403   9.771  0.0142  0.2147 -0.6747
  117OSM    H8G12338   1.217   5.450   9.687  0.8708  1.0469 -0.3969
  117OSM    C9F12339   1.055   5.591   9.696  0.7724  0.0217 -0.9025
  117OSM    H9F12340   0.988   5.653   9.757 -0.0767 -2.0679  0.4235
  117OSM   C10F12341   1.061   5.615   9.564  0.8263  0.3225 -0.1232
  117OSM   H10F12342   0.987   5.686   9.525 -0.9647 -1.0377  0.6199
  117OSM   C11F12343   1.151   5.549   9.464  0.0857  1.1041 -0.6790
  117OSM   H11F12344   1.187   5.445   9.481 -2.2732 -0.3414 -3.5926
  117OSM   H11G12345   1.251   5.595   9.452  0.6191 -0.2214 -1.5074
  117OSM   C12F12346   1.092   5.531   9.327  0.4064  0.0137 -0.1630
  117OSM   H12F12347   1.005   5.464   9.344 -1.2979  1.6242 -1.9759
  117OSM   H12G12348   1.157   5.475   9.256 -0.1476 -1.6092  0.5600
  117OSM   C13F12349   1.049   5.654   9.247 -0.6728 -0.8955  0.0101
  117OSM   H13F12350   1.140   5.718   9.244 -0.7158 -0.8571 -0.6662
  117OSM   H13G12351   0.976   5.713   9.307  0.6325  0.4438  0.3579
  117OSM   C14F12352   1.001   5.628   9.106  0.1458  0.8752  0.0793
  117OSM   H14F12353   0.962   5.723   9.064 -1.0398 -0.8190 -3.0127
  117OSM   H14G12354   0.914   5.561   9.123  0.9045 -0.4144 -0.9618
  117OSM   C15F12355   1.097   5.563   9.006  0.7444 -0.3894  0.2774
  117OSM   H15F12356   1.034   5.543   8.917  3.8032  0.5951 -2.2764
  117OSM   H15G12357   1.141   5.479   9.063 -1.2762 -1.7235 -0.0213
  117OSM   C16F12358   1.215   5.643   8.944 -0.8606  0.2614 -0.1831
  117OSM   H16F12359   1.283   5.675   9.025 -0.1964 -0.8073 -0.2917
  117OSM   H16G12360   1.177   5.727   8.883  0.0481  0.4674 -0.4685
  117OSM   C17F12361   1.315   5.563   8.863 -0.5772  0.3781  0.3049
  117OSM   H17F12362   1.353   5.488   8.935 -1.2109  0.6792  0.9701
  117OSM   H17G12363   1.398   5.635   8.847  1.0842 -0.4090  4.1791
  117OSM   C18F12364   1.267   5.507   8.728 -0.3739 -0.4067 -0.4418
  117OSM   H18F12365   1.354   5.462   8.677  0.8830  0.0274  1.2205
  117OSM   H18G12366   1.234   5.589   8.660  1.7721  1.5148  0.6737
  117OSM   H18H12367   1.186   5.432   8.738  0.2036 -1.1185 -0.9732
  118OSM      N12368   2.250   5.892  11.097 -0.6983 -0.5782 -0.3312
  118OSM    C1512369   2.366   5.971  11.157  0.4858 -0.1664 -0.3984
  118OSM   H15A12370   2.394   5.921  11.248  0.5522 -0.0275 -0.3415
  118OSM   H15B12371   2.318   6.062  11.191  1.1635 -0.4873  1.5304
  118OSM   H15C12372   2.443   5.986  11.083  1.7749 -0.3343  0.8798
  118OSM    C1412373   2.160   5.843  11.204  0.0729  0.0841 -0.4527
  118OSM   H14A12374   2.212   5.776  11.271 -0.0693  2.1563  1.8628
  118OSM   H14B12375   2.069   5.796  11.169 -0.9000  1.2988  0.3460
  118OSM   H14C12376   2.121   5.926  11.260  0.7705 -1.0906  1.9058
  118OSM    C1312377   2.174   5.972  11.004  0.0010 -0.5195  0.5676
  118OSM   H13A12378   2.146   6.067  11.048  1.1987 -0.5056  1.3769
  118OSM   H13B12379   2.079   5.931  10.976  0.9253 -1.0119 -2.1728
  118OSM   H13C12380   2.232   5.996  10.916  0.1129  0.7446  0.9614
  118OSM    C1212381   2.309   5.775  11.018 -0.7368  0.6190  0.5782
  118OSM   H12A12382   2.226   5.712  10.986 -0.3871  0.2736  0.3364
  118OSM   H12B12383   2.368   5.720  11.089 -0.4572  1.3256  0.9029
  118OSM    C1112384   2.408   5.802  10.897  0.6816 -0.1293 -0.4553
  118OSM   H11A12385   2.365   5.876  10.826 -2.8167 -0.4026  1.1837
  118OSM   H11B12386   2.407   5.705  10.843 -0.7530 -1.3463  1.6086
  118OSM      P12387   2.621   5.770  11.030  0.2942  0.2245 -0.0326
  118OSM    O1312388   2.668   5.867  11.131 -0.3038  0.1531 -0.6570
  118OSM    O1412389   2.547   5.649  11.083  0.5547  0.1695  0.4758
  118OSM    O1112390   2.734   5.723  10.933  0.2665 -0.0989  0.5179
  118OSM    O1212391   2.539   5.849  10.928 -0.0284  0.0407  0.1691
  118OSM    C1S12392   2.695   5.636  10.827 -0.9005 -0.1604  0.1561
  118OSM    H1S12393   2.603   5.578  10.847 -1.0514 -0.4194 -1.1913
  118OSM    H1T12394   2.775   5.562  10.805 -0.0215  0.6377  0.5616
  118OSM     NF12395   2.653   5.582  10.594  0.0956  0.1114  0.9207
  118OSM    HNF12396   2.738   5.538  10.566 -0.2159  0.2778 -0.3915
  118OSM    C2S12397   2.666   5.697  10.685 -0.7629 -0.2311  0.5947
  118OSM    H2S12398   2.572   5.756  10.697 -0.1351  0.8015  0.5195
  118OSM    C3S12399   2.779   5.797  10.641 -0.4413  0.0648  0.2192
  118OSM    H3S12400   2.875   5.742  10.630 -1.3066 -1.6083  0.7776
  118OSM     O312401   2.804   5.894  10.746 -0.2044 -0.2536  0.8767
  118OSM    HO312402   2.771   5.860  10.829 -0.7766  2.2696  1.7802
  118OSM    C4S12403   2.746   5.867  10.516 -0.7078  0.0530  0.4316
  118OSM    H4S12404   2.682   5.956  10.517 -0.3638  0.3152 -0.2773
  118OSM    C5S12405   2.815   5.843  10.400 -0.4418 -0.2294  0.3023
  118OSM    H5S12406   2.894   5.768  10.387  0.7912  1.1240 -0.2891
  118OSM    C6S12407   2.792   5.920  10.273 -0.0194 -0.3484  0.2858
  118OSM    H6S12408   2.712   5.996  10.278 -0.1219 -0.4993  1.2005
  118OSM    H6T12409   2.764   5.848  10.193  0.3221  1.1826 -1.2686
  118OSM    C7S12410   2.925   5.987  10.220 -0.1515  0.1044 -0.1372
  118OSM    H7S12411   3.004   5.910  10.203  0.2102  0.4771 -0.1651
  118OSM    H7T12412   2.964   6.064  10.291 -1.2868  1.2577 -0.7374
  118OSM    C8S12413   2.900   6.054  10.089  0.5008 -0.2318 -0.7702
  118OSM    H8S12414   2.967   6.140  10.071 -2.6616  2.1156 -2.3676
  118OSM    H8T12415   2.797   6.086  10.062  0.2059 -1.6366 -1.4358
  118OSM    C9S12416   2.931   5.957   9.967 -0.3296  0.4762 -0.3816
  118OSM    H9S12417   2.878   5.861   9.985 -0.7096  0.6853 -0.3660
  118OSM    H9T12418   3.039   5.939   9.954 -0.0425  0.9781  1.0967
  118OSM   C10S12419   2.885   6.020   9.838  0.1219 -0.5080  0.2250
  118OSM   H10S12420   2.928   6.122   9.827  0.2216 -0.1555  3.2116
  118OSM   H10T12421   2.774   6.017   9.838  0.1160 -3.2727 -1.2995
  118OSM   C11S12422   2.939   5.941   9.714 -0.4938 -0.1732  0.6636
  118OSM   H11S12423   2.897   5.839   9.725 -3.1851  0.3211 -3.2475
  118OSM   H11T12424   3.049   5.948   9.728 -0.4564 -2.0179  1.6088
  118OSM   C12S12425   2.891   6.012   9.588 -0.2173 -0.2196  0.0781
  118OSM   H12S12426   2.926   6.116   9.601  2.3715 -1.0815  0.5996
  118OSM   H12T12427   2.780   6.007   9.594 -0.1260 -0.6465  1.8926
  118OSM   C13S12428   2.954   5.965   9.460  0.0056 -0.1143  0.3124
  118OSM   H13S12429   2.971   5.856   9.457 -0.1961 -0.1422  0.1249
  118OSM   H13T12430   3.057   6.006   9.457 -0.0546  0.2494 -4.4250
  118OSM   C14S12431   2.868   5.994   9.341 -0.1190  0.9376  0.0699
  118OSM   H14S12432   2.852   6.104   9.347 -0.4352  0.8326  1.3544
  118OSM   H14T12433   2.773   5.936   9.339  0.8403 -0.6908  0.4156
  118OSM   C15S12434   2.934   5.950   9.206  0.0293 -0.1105  0.4349
  118OSM   H15S12435   2.873   5.990   9.122  0.4264  1.1577  0.7367
  118OSM   H15T12436   2.938   5.839   9.208 -0.6859 -0.1661 -0.5504
  118OSM   C16S12437   3.076   5.998   9.179  0.2065  0.1536 -0.1128
  118OSM   H16S12438   3.141   5.965   9.263 -0.7964 -2.3953 -0.2599
  118OSM   H16T12439   3.083   6.106   9.154 -1.5750 -0.0047 -1.4950
  118OSM   C17S12440   3.136   5.930   9.050 -0.3783 -0.3180  0.4862
  118OSM   H17S12441   3.076   5.954   8.959 -1.3861 -2.1538  0.6247
  118OSM   H17T12442   3.130   5.819   9.060  3.7402 -0.8334 -0.8491
  118OSM   C18S12443   3.279   5.987   9.016  0.6975  0.5383 -0.2597
  118OSM   H18S12444   3.332   5.996   9.113 -1.4091 -2.8577  1.3882
  118OSM   H18T12445   3.276   6.085   8.963 -1.9602  0.5679 -0.1750
  118OSM   H18U12446   3.345   5.915   8.963 -1.8934 -2.2757  0.0524
  118OSM    C1F12447   2.541   5.513  10.577  0.6354 -0.7299  0.4924
  118OSM     OF12448   2.436   5.550  10.635  0.1873 -0.0061 -0.5245
  118OSM    C2F12449   2.540   5.388  10.494  0.1801  1.1054  0.2844
  118OSM    H2F12450   2.519   5.311  10.571 -0.2431  0.8695 -0.0634
  118OSM    H2G12451   2.641   5.369  10.451 -0.3709  1.0459 -1.0446
  118OSM    C3F12452   2.430   5.407  10.387  0.5217 -0.3053  0.2959
  118OSM    H3F12453   2.341   5.442  10.444  1.1894  2.3121 -0.1162
  118OSM    H3G12454   2.414   5.306  10.344 -1.2083  0.1185 -0.1398
  118OSM    C4F12455   2.473   5.501  10.273  0.2492 -0.6964 -0.0177
  118OSM    H4F12456   2.572   5.471  10.232  0.4002  0.9484 -0.9563
  118OSM    H4G12457   2.478   5.606  10.310 -1.8531  0.1446 -1.8651
  118OSM    C5F12458   2.358   5.505  10.172 -0.0821  0.0501 -0.1067
  118OSM    H5F12459   2.265   5.520  10.230  1.5091 -1.8109  3.2036
  118OSM    H5G12460   2.346   5.411  10.113  1.0939 -0.3570  0.2800
  118OSM    C6F12461   2.378   5.618  10.061 -0.0505  0.3049  1.1740
  118OSM    H6F12462   2.357   5.717  10.107  0.8568  1.4161 -0.7002
  118OSM    H6G12463   2.302   5.612   9.979  1.3891  0.0337 -0.1958
  118OSM    C7F12464   2.514   5.622   9.994  0.6736  0.1673 -1.1121
  118OSM    H7F12465   2.519   5.539   9.921 -2.6187  1.2112 -2.7079
  118OSM    H7G12466   2.594   5.606  10.070  1.4321 -0.5319 -2.0337
  118OSM    C8F12467   2.552   5.747   9.921 -0.3870  0.3454  0.3578
  118OSM    H8F12468   2.583   5.828   9.989  0.4259  0.5516 -0.2422
  118OSM    H8G12469   2.471   5.784   9.855 -2.0376 -2.1001  0.8659
  118OSM    C9F12470   2.665   5.717   9.820 -0.3860  0.0424 -0.3185
  118OSM    H9F12471   2.759   5.706   9.877  0.4221  0.3761 -1.5442
  118OSM   C10F12472   2.652   5.690   9.688  0.8019  0.2951  0.6672
  118OSM   H10F12473   2.742   5.675   9.627  0.9329 -0.0141  0.9347
  118OSM   C11F12474   2.521   5.694   9.609  0.5797 -0.2463  0.1299
  118OSM   H11F12475   2.499   5.787   9.552  0.5569  0.9885  2.0625
  118OSM   H11G12476   2.440   5.684   9.684  0.3676 -1.0698 -0.1966
  118OSM   C12F12477   2.531   5.581   9.502 -0.3796  0.0890 -0.4123
  118OSM   H12F12478   2.546   5.479   9.545 -1.2075 -0.3860 -1.2274
  118OSM   H12G12479   2.606   5.608   9.425  0.4627 -0.3880  0.2265
  118OSM   C13F12480   2.397   5.572   9.422  0.6056  0.0288  0.5161
  118OSM   H13F12481   2.359   5.676   9.412  0.0548 -0.2560 -0.4579
  118OSM   H13G12482   2.315   5.534   9.487 -0.0129  1.2228  0.4591
  118OSM   C14F12483   2.419   5.496   9.285 -0.1817 -0.0620 -0.2249
  118OSM   H14F12484   2.431   5.392   9.320  3.0072  0.9010  2.0017
  118OSM   H14G12485   2.520   5.532   9.256 -0.1366  0.6409  0.7665
  118OSM   C15F12486   2.322   5.522   9.176  0.4680 -0.1750  1.0274
  118OSM   H15F12487   2.309   5.631   9.159  0.5236 -0.1566  1.1032
  118OSM   H15G12488   2.223   5.491   9.215  0.8864 -0.7735  1.6491
  118OSM   C16F12489   2.353   5.449   9.044 -0.1734 -0.1857 -0.1221
  118OSM   H16F12490   2.458   5.472   9.018  0.2451  2.4556  3.1327
  118OSM   H16G12491   2.287   5.487   8.963  2.1071  2.5271 -0.8530
  118OSM   C17F12492   2.328   5.295   9.054  0.0132  0.3627  0.4932
  118OSM   H17F12493   2.225   5.284   9.094 -0.4942  0.6794 -0.6637
  118OSM   H17G12494   2.390   5.250   9.134  1.9979 -0.4399 -1.3857
  118OSM   C18F12495   2.339   5.217   8.915  0.6930  0.1888 -0.1464
  118OSM   H18F12496   2.441   5.212   8.872 -0.7190  1.1612 -4.0437
  118OSM   H18G12497   2.288   5.267   8.830  0.9373 -0.7811 -0.8890
  118OSM   H18H12498   2.298   5.115   8.934 -2.0361  0.8464 -1.9721
  119OSM      N12499   2.237   5.268  11.112  0.4432 -0.0170 -0.0603
  119OSM    C1512500   2.322   5.170  11.195  0.0349 -0.2542 -0.4249
  119OSM   H15A12501   2.390   5.206  11.271 -1.0269  0.8896  0.0036
  119OSM   H15B12502   2.401   5.123  11.137  2.9803  1.4145  1.9446
  119OSM   H15C12503   2.267   5.095  11.250 -2.1221  1.4949 -0.0657
  119OSM    C1412504   2.329   5.340  11.025  0.2629  0.3163  0.3757
  119OSM   H14A12505   2.278   5.392  10.945  0.8703 -2.2909 -1.9009
  119OSM   H14B12506   2.389   5.262  10.979 -2.4934 -1.3582 -0.6044
  119OSM   H14C12507   2.384   5.411  11.084  1.1658  0.2868 -0.3927
  119OSM    C1312508   2.152   5.185  11.027  0.4258  0.3394  0.1772
  119OSM   H13A12509   2.049   5.202  11.053  0.1578 -0.8125 -0.0679
  119OSM   H13B12510   2.177   5.080  11.042  0.5266  0.5660  1.7173
  119OSM   H13C12511   2.144   5.203  10.921 -3.1505  2.1495  0.6187
  119OSM    C1212512   2.167   5.355  11.210 -0.2316  0.1683 -0.0005
  119OSM   H12A12513   2.245   5.412  11.259  1.1522 -2.3134  0.8263
  119OSM   H12B12514   2.135   5.290  11.290  0.7251 -1.0453 -0.5818
  119OSM    C1112515   2.050   5.448  11.171  0.7103  0.1657  0.4472
  119OSM   H11A12516   2.083   5.515  11.090  0.2457 -1.7966 -1.4518
  119OSM   H11B12517   2.020   5.509  11.259 -2.7566 -0.0533 -0.4203
  119OSM      P12518   1.805   5.460  11.075 -0.0159  0.5887  0.1385
  119OSM    O1312519   1.702   5.359  11.063  0.1197 -0.1794 -0.7063
  119OSM    O1412520   1.775   5.562  11.171  0.2076 -0.3717 -0.1120
  119OSM    O1112521   1.853   5.524  10.939 -0.0026  0.1718 -0.5940
  119OSM    O1212522   1.932   5.378  11.125 -0.2308 -0.3861 -0.2140
  119OSM    C1S12523   1.940   5.454  10.847  0.0618 -0.0443 -0.1735
  119OSM    H1S12524   1.884   5.367  10.806  0.3335 -0.3510  0.1025
  119OSM    H1T12525   2.037   5.415  10.883  0.5524 -0.1226 -1.5213
  119OSM     NF12526   2.024   5.459  10.611 -0.0958  0.4950  0.8131
  119OSM    HNF12527   2.123   5.461  10.598 -0.0389 -0.0232  1.1166
  119OSM    C2S12528   1.974   5.539  10.720 -0.4237 -0.7897 -0.2280
  119OSM    H2S12529   1.882   5.585  10.677 -0.8466 -2.8251 -1.6606
  119OSM    C3S12530   2.074   5.640  10.759  0.3471 -0.0881 -0.3913
  119OSM    H3S12531   2.178   5.604  10.776  0.4878 -0.7000 -2.3440
  119OSM     O312532   2.052   5.695  10.885  0.2084  0.0944 -0.6262
  119OSM    HO312533   1.973   5.658  10.925  0.4503  0.1385 -0.1014
  119OSM    C4S12534   2.081   5.750  10.659 -0.1317  1.0758 -0.7372
  119OSM    H4S12535   2.008   5.826  10.693  1.1911  1.0085  2.5829
  119OSM    C5S12536   2.175   5.776  10.566  0.3816 -0.2239  0.2235
  119OSM    H5S12537   2.272   5.727  10.551  1.6494  2.4164 -0.8388
  119OSM    C6S12538   2.161   5.908  10.485 -0.3852  0.3930  0.0294
  119OSM    H6S12539   2.211   5.992  10.538 -0.5190  1.4363 -1.4401
  119OSM    H6T12540   2.057   5.941  10.465 -0.4470 -0.6606 -1.6924
  119OSM    C7S12541   2.230   5.886  10.343 -0.6859  0.2562  0.3791
  119OSM    H7S12542   2.164   5.818  10.284  0.1188 -0.5760  0.4015
  119OSM    H7T12543   2.337   5.857  10.353 -0.6322  0.8161  1.6584
  119OSM    C8S12544   2.247   6.017  10.266 -0.0246 -0.4159 -0.1010
  119OSM    H8S12545   2.308   6.084  10.330  2.5609  1.1095 -3.8060
  119OSM    H8T12546   2.146   6.062  10.251 -0.4678 -1.2145  0.4030
  119OSM    C9S12547   2.317   6.003  10.128 -0.2439 -0.3832  0.6943
  119OSM    H9S12548   2.254   5.956  10.049  1.1943  0.5423 -1.0707
  119OSM    H9T12549   2.404   5.935  10.139  0.2512  0.2709  0.9174
  119OSM   C10S12550   2.346   6.137  10.057  0.0504  0.2460 -0.3330
  119OSM   H10S12551   2.389   6.200  10.137  0.8227  0.0197 -0.5593
  119OSM   H10T12552   2.256   6.198  10.036  0.0360  0.0635 -0.8192
  119OSM   C11S12553   2.464   6.122   9.953  0.6597  0.6385 -0.2935
  119OSM   H11S12554   2.531   6.036   9.975 -1.2420 -1.2037 -1.2964
  119OSM   H11T12555   2.530   6.210   9.957  2.2318 -0.4709 -0.7422
  119OSM   C12S12556   2.399   6.106   9.813  0.5221  0.0694  0.2536
  119OSM   H12S12557   2.317   6.179   9.799 -0.7393 -1.1865  0.8450
  119OSM   H12T12558   2.341   6.012   9.820  0.0046  0.4100  0.5431
  119OSM   C13S12559   2.502   6.113   9.700  1.0018  0.0082 -0.2021
  119OSM   H13S12560   2.574   6.035   9.733 -0.0496 -0.6238  0.6605
  119OSM   H13T12561   2.559   6.208   9.701  0.5204  0.3025 -0.3758
  119OSM   C14S12562   2.438   6.108   9.563 -0.6376  0.2437 -0.1983
  119OSM   H14S12563   2.353   6.181   9.558 -0.1988  0.7061 -1.0996
  119OSM   H14T12564   2.407   6.003   9.547  2.1260 -0.5932 -0.4127
  119OSM   C15S12565   2.529   6.152   9.442  0.0030  0.1378 -0.1929
  119OSM   H15S12566   2.601   6.068   9.432 -0.8424 -0.3478 -3.3147
  119OSM   H15T12567   2.570   6.252   9.467 -2.2760  1.4988 -1.5405
  119OSM   C16S12568   2.453   6.164   9.311  0.7464  0.4139  0.3061
  119OSM   H16S12569   2.373   6.240   9.318  0.7477  0.4016  0.4584
  119OSM   H16T12570   2.409   6.064   9.293  1.3867  0.3440 -0.9833
  119OSM   C17S12571   2.544   6.200   9.196 -0.0602 -0.6918  0.1425
  119OSM   H17S12572   2.623   6.122   9.187 -0.1349 -0.5789 -2.0483
  119OSM   H17T12573   2.602   6.288   9.232 -0.1854 -0.3777 -0.4182
  119OSM   C18S12574   2.469   6.230   9.065 -0.1454  0.2380 -0.5274
  119OSM   H18S12575   2.538   6.259   8.984  1.8713  0.3419  1.1541
  119OSM   H18T12576   2.395   6.310   9.087 -1.6416 -1.0915 -0.4765
  119OSM   H18U12577   2.410   6.142   9.031 -0.3740 -0.2704  1.0849
  119OSM    C1F12578   1.962   5.365  10.537 -0.3046  0.3472  0.4407
  119OSM     OF12579   1.842   5.348  10.539 -0.1638  0.2890 -0.3963
  119OSM    C2F12580   2.051   5.289  10.447 -0.4038 -0.0583  0.1794
  119OSM    H2F12581   2.147   5.260  10.494  0.5240  1.2638 -0.8126
  119OSM    H2G12582   2.065   5.350  10.355  2.2228  0.3577  0.7972
  119OSM    C3F12583   1.984   5.164  10.399  0.4336  0.5321  0.9972
  119OSM    H3F12584   1.885   5.186  10.354  0.2997 -0.0435  1.0087
  119OSM    H3G12585   1.971   5.098  10.487  0.2351  1.0272  1.3442
  119OSM    C4F12586   2.056   5.093  10.289 -0.1073 -0.8380 -0.2257
  119OSM    H4F12587   1.998   5.004  10.258 -2.4819  0.5437  0.0027
  119OSM    H4G12588   2.140   5.046  10.344 -0.2169 -1.0719 -0.2588
  119OSM    C5F12589   2.082   5.169  10.157 -0.7651 -0.1625 -0.6011
  119OSM    H5F12590   2.152   5.254  10.173 -0.5381 -0.2295 -1.2117
  119OSM    H5G12591   1.983   5.215  10.138 -0.7865  1.2495  2.3371
  119OSM    C6F12592   2.137   5.075  10.058 -0.1617 -0.6379 -0.0037
  119OSM    H6F12593   2.059   5.023   9.998  1.3056 -1.4996 -1.2741
  119OSM    H6G12594   2.201   5.000  10.110  0.4041  0.4263  0.8773
  119OSM    C7F12595   2.240   5.138   9.972 -0.2019  0.5080  0.9513
  119OSM    H7F12596   2.283   5.066   9.899  1.0132  0.9923  1.1692
  119OSM    H7G12597   2.325   5.186  10.025  0.5906  0.5132 -0.2759
  119OSM    C8F12598   2.154   5.233   9.883  0.6415  0.2605 -0.0282
  119OSM    H8F12599   2.086   5.302   9.937 -0.1417  0.2221 -0.9231
  119OSM    H8G12600   2.094   5.165   9.819  1.2038  0.3534 -0.6791
  119OSM    C9F12601   2.240   5.332   9.812  0.2109  0.3724  1.0087
  119OSM    H9F12602   2.268   5.407   9.886 -0.2208  0.3990  1.1494
  119OSM   C10F12603   2.278   5.330   9.681 -1.2684  0.1993  0.2581
  119OSM   H10F12604   2.361   5.394   9.647 -0.5528 -0.7162  0.2263
  119OSM   C11F12605   2.242   5.219   9.582  0.0146 -0.1768  0.4527
  119OSM   H11F12606   2.204   5.121   9.619 -0.1151  0.4232  2.0173
  119OSM   H11G12607   2.339   5.196   9.533 -0.8558  0.2924 -1.5686
  119OSM   C12F12608   2.132   5.258   9.478  0.0239  0.7142 -0.5029
  119OSM   H12F12609   2.171   5.331   9.404  0.3985  1.2689  0.2256
  119OSM   H12G12610   2.049   5.300   9.539 -0.6806  0.3406 -1.1977
  119OSM   C13F12611   2.075   5.139   9.399 -0.4325 -0.4774  0.0972
  119OSM   H13F12612   2.038   5.060   9.468  0.9019 -1.4582 -0.2776
  119OSM   H13G12613   2.153   5.096   9.332 -0.0142  0.8620 -0.3182
  119OSM   C14F12614   1.948   5.180   9.314  0.1053 -0.1897 -0.6448
  119OSM   H14F12615   1.891   5.262   9.364  1.2063  0.3720 -0.2916
  119OSM   H14G12616   1.873   5.098   9.312  0.6163 -0.6993 -3.9086
  119OSM   C15F12617   1.983   5.239   9.175  0.5340  0.6822  0.0025
  119OSM   H15F12618   2.044   5.159   9.130 -1.3844 -0.9197  0.0981
  119OSM   H15G12619   2.052   5.325   9.191  0.0634  1.3152 -1.2869
  119OSM   C16F12620   1.862   5.284   9.093 -0.3138 -0.1159 -0.5029
  119OSM   H16F12621   1.788   5.331   9.161  0.7014  1.9026 -0.6982
  119OSM   H16G12622   1.814   5.200   9.040 -0.4440 -0.3925  0.0456
  119OSM   C17F12623   1.887   5.396   8.988 -0.4381  0.2465  0.3415
  119OSM   H17F12624   1.950   5.342   8.913  0.5891 -0.4069  1.6182
  119OSM   H17G12625   1.941   5.482   9.034  0.2777  0.4892 -0.9240
  119OSM   C18F12626   1.757   5.455   8.938 -0.5184 -0.4858  0.5579
  119OSM   H18F12627   1.695   5.493   9.022 -0.7768  0.0875  0.1121
  119OSM   H18G12628   1.689   5.392   8.877  1.3609 -1.1019 -0.9744
  119OSM   H18H12629   1.791   5.545   8.883 -0.4293 -0.3180  0.8872
  120OSM      N12630   2.649   1.870  11.097 -0.1966 -0.9013 -0.4396
  120OSM    C1512631   2.694   1.983  11.180  0.1572  0.4094  0.3343
  120OSM   H15A12632   2.780   1.951  11.236 -0.3820 -2.5121 -0.3615
  120OSM   H15B12633   2.618   2.010  11.252  0.6096 -0.9623  1.3548
  120OSM   H15C12634   2.743   2.062  11.126  0.4467  1.1177  1.5979
  120OSM    C1412635   2.761   1.811  11.019 -0.1170 -0.8744 -0.5774
  120OSM   H14A12636   2.723   1.732  10.956 -0.1445 -1.0109 -0.3888
  120OSM   H14B12637   2.841   1.778  11.083 -0.8307 -1.2283  0.1353
  120OSM   H14C12638   2.811   1.886  10.958 -1.5382  0.6557  0.0859
  120OSM    C1312639   2.602   1.761  11.193  0.4450 -0.1318  0.2581
  120OSM   H13A12640   2.659   1.758  11.284 -2.0048 -2.4627  1.8678
  120OSM   H13B12641   2.608   1.667  11.140  1.5208  0.4218 -0.6327
  120OSM   H13C12642   2.500   1.783  11.221  0.7094 -1.6352  2.6531
  120OSM    C1212643   2.541   1.905  11.002  0.7305 -0.2728 -0.1919
  120OSM   H12A12644   2.558   2.001  10.956  3.0225 -0.6173 -0.1746
  120OSM   H12B12645   2.447   1.910  11.055  1.7546  0.3250  1.6624
  120OSM    C1112646   2.506   1.805  10.884  0.0450 -0.4508  0.0425
  120OSM   H11A12647   2.478   1.710  10.934 -0.5910  1.6339  4.1524
  120OSM   H11B12648   2.590   1.800  10.811 -0.8133  1.2413 -1.1191
  120OSM      P12649   2.404   1.981  10.720 -0.0030  0.5475 -0.0825
  120OSM    O1312650   2.277   1.993  10.636 -0.1105  0.1150  0.0757
  120OSM    O1412651   2.443   2.103  10.790  0.4108 -0.1286  0.1112
  120OSM    O1112652   2.526   1.945  10.623  0.7327 -0.3399  0.0092
  120OSM    O1212653   2.391   1.859  10.817 -0.0926  0.9368  0.0438
  120OSM    C1S12654   2.509   1.872  10.503 -0.4264 -0.5475 -0.5390
  120OSM    H1S12655   2.404   1.863  10.467 -0.9298  1.8429  0.1529
  120OSM    H1T12656   2.559   1.775  10.523  1.3493  0.5507  0.5367
  120OSM     NF12657   2.569   1.860  10.265  0.1135 -0.0107 -0.0258
  120OSM    HNF12658   2.631   1.783  10.251  0.1556 -0.7466  3.2679
  120OSM    C2S12659   2.598   1.935  10.390 -0.4585 -0.3087  0.4978
  120OSM    H2S12660   2.568   2.040  10.370  1.1931  0.0149 -0.3876
  120OSM    C3S12661   2.753   1.932  10.429 -0.0072  0.6307 -0.0435
  120OSM    H3S12662   2.785   1.826  10.423  0.6589  0.8988 -2.3585
  120OSM     O312663   2.787   1.974  10.560 -0.1196 -0.2996 -0.2128
  120OSM    HO312664   2.704   1.985  10.607 -1.0878 -0.2828 -1.8358
  120OSM    C4S12665   2.818   2.025  10.329 -0.1819  0.0701  0.2854
  120OSM    H4S12666   2.756   2.116  10.320 -0.5639 -0.1922  0.2308
  120OSM    C5S12667   2.922   2.006  10.246  0.2655 -0.1528  0.2309
  120OSM    H5S12668   2.974   1.910  10.260  1.4820  0.3452 -0.6334
  120OSM    C6S12669   2.979   2.106  10.151  0.0616  0.0598 -0.1597
  120OSM    H6S12670   3.062   2.049  10.103  1.0937 -1.0830  2.7840
  120OSM    H6T12671   3.024   2.190  10.208 -3.5084  2.0162  0.1008
  120OSM    C7S12672   2.883   2.166  10.038 -0.8969  0.0760  0.4976
  120OSM    H7S12673   2.935   2.250   9.987 -2.0267  0.9950  0.8206
  120OSM    H7T12674   2.793   2.212  10.084 -1.1913 -1.0776  1.1327
  120OSM    C8S12675   2.838   2.060   9.931 -0.4393  0.0214  0.4586
  120OSM    H8S12676   2.785   1.971   9.973  0.7841 -0.9818 -0.0322
  120OSM    H8T12677   2.929   2.019   9.882  0.7868  0.3427  2.3664
  120OSM    C9S12678   2.746   2.115   9.828 -0.4172 -0.0501 -0.2637
  120OSM    H9S12679   2.669   2.174   9.881 -0.2956  0.1164 -0.2730
  120OSM    H9T12680   2.702   2.022   9.786 -0.4260 -0.3413  0.3728
  120OSM   C10S12681   2.818   2.199   9.712 -1.2686  0.5238 -1.0064
  120OSM   H10S12682   2.868   2.278   9.772 -2.2359 -0.5074  1.2853
  120OSM   H10T12683   2.752   2.250   9.638  0.3202  1.3600 -1.9029
  120OSM   C11S12684   2.921   2.124   9.627  1.0919  0.1540  1.0491
  120OSM   H11S12685   2.880   2.023   9.604  0.9700  0.4199  0.0723
  120OSM   H11T12686   3.009   2.097   9.689  1.4381 -3.8271 -0.8439
  120OSM   C12S12687   2.974   2.190   9.502  0.5890 -0.1723 -0.6092
  120OSM   H12S12688   3.035   2.281   9.523 -1.0624  0.2849  2.9022
  120OSM   H12T12689   2.896   2.232   9.435 -0.0946 -0.2923  0.0916
  120OSM   C13S12690   3.061   2.110   9.408 -0.1329  0.1112 -0.2786
  120OSM   H13S12691   2.984   2.038   9.372 -1.5502  1.0074  0.8563
  120OSM   H13T12692   3.142   2.059   9.464  1.3588  1.6926 -0.8971
  120OSM   C14S12693   3.122   2.185   9.291 -0.0923  0.9400 -0.2639
  120OSM   H14S12694   3.221   2.233   9.307  0.3379 -0.1264  0.3664
  120OSM   H14T12695   3.065   2.278   9.268  0.1414  1.0718 -0.3108
  120OSM   C15S12696   3.131   2.108   9.156  0.2699 -0.2338 -0.0361
  120OSM   H15S12697   3.028   2.111   9.114  0.1352 -1.4429  0.1892
  120OSM   H15T12698   3.158   2.002   9.175 -1.3563 -1.1947 -2.6482
  120OSM   C16S12699   3.222   2.175   9.042  0.1599  0.4506  0.8862
  120OSM   H16S12700   3.330   2.150   9.053  0.1668 -1.1789 -1.8765
  120OSM   H16T12701   3.220   2.285   9.027  0.1562  0.0092 -4.1712
  120OSM   C17S12702   3.179   2.124   8.900 -0.1772  0.1130 -0.5023
  120OSM   H17S12703   3.071   2.146   8.890 -0.1888  0.0033 -0.6369
  120OSM   H17T12704   3.193   2.014   8.905  0.1380  0.0000 -2.7752
  120OSM   C18S12705   3.258   2.185   8.784 -0.2164 -0.4006  0.3393
  120OSM   H18S12706   3.361   2.145   8.792 -0.1225 -0.6789 -1.7476
  120OSM   H18T12707   3.263   2.295   8.786 -0.2357 -0.4049  0.6498
  120OSM   H18U12708   3.218   2.151   8.686  2.1649  1.7623 -1.4938
  120OSM    C1F12709   2.472   1.886  10.182 -0.0972 -0.4263 -0.5660
  120OSM     OF12710   2.391   1.977  10.192 -0.1328  0.0425  0.3221
  120OSM    C2F12711   2.471   1.805  10.050  0.7544  0.5913  0.3752
  120OSM    H2F12712   2.487   1.697  10.071  0.7858  0.9118  2.1556
  120OSM    H2G12713   2.547   1.850   9.982 -0.6873  1.9271 -0.4258
  120OSM    C3F12714   2.334   1.821   9.976  0.5518 -0.0939 -0.0771
  120OSM    H3F12715   2.325   1.923   9.934 -0.3671 -0.7208 -1.4933
  120OSM    H3G12716   2.252   1.796  10.046  0.3836 -3.0954 -1.1809
  120OSM    C4F12717   2.318   1.719   9.860 -0.8713 -0.3902  0.0877
  120OSM    H4F12718   2.232   1.757   9.800  0.9130  1.6905 -1.3087
  120OSM    H4G12719   2.291   1.625   9.912 -0.2782 -1.4944 -1.5147
  120OSM    C5F12720   2.436   1.714   9.762 -0.7551  0.0319  0.1317
  120OSM    H5F12721   2.405   1.628   9.699 -2.1501  0.1018  0.6720
  120OSM    H5G12722   2.528   1.691   9.820  0.6470  3.0024 -0.7525
  120OSM    C6F12723   2.457   1.850   9.695 -0.1996 -0.2479  0.2734
  120OSM    H6F12724   2.483   1.923   9.775 -0.0805  0.1024 -0.0838
  120OSM    H6G12725   2.359   1.886   9.655 -0.0207 -1.0586 -0.9469
  120OSM    C7F12726   2.562   1.851   9.580  0.4616 -0.0991 -0.7549
  120OSM    H7F12727   2.547   1.778   9.497 -0.8442  1.9861 -2.4708
  120OSM    H7G12728   2.656   1.817   9.627  0.4857 -1.8812 -1.9870
  120OSM    C8F12729   2.582   1.999   9.526  0.1060 -0.2388 -0.8793
  120OSM    H8F12730   2.679   1.997   9.473  1.3054  2.2503  1.0013
  120OSM    H8G12731   2.581   2.074   9.608  1.3382 -3.0086  1.8659
  120OSM    C9F12732   2.484   2.032   9.424 -0.0621  0.0675  0.5593
  120OSM    H9F12733   2.386   2.055   9.468  0.0021  0.3109  0.5775
  120OSM   C10F12734   2.490   2.027   9.290  0.0231  0.0477 -0.5080
  120OSM   H10F12735   2.393   2.037   9.238  0.7972  2.2222 -1.6294
  120OSM   C11F12736   2.603   1.994   9.210 -0.1801 -0.5286 -0.0126
  120OSM   H11F12737   2.659   1.912   9.260  1.0631 -0.0378 -0.5677
  120OSM   H11G12738   2.666   2.085   9.200 -1.6489  0.4630 -0.5070
  120OSM   C12F12739   2.547   1.933   9.082 -0.2516 -0.1510 -0.4018
  120OSM   H12F12740   2.484   2.004   9.023 -0.9316 -1.2172 -0.9898
  120OSM   H12G12741   2.477   1.851   9.110 -0.1928 -0.0947 -0.0913
  120OSM   C13F12742   2.663   1.880   8.991 -0.3678 -0.1400  0.6188
  120OSM   H13F12743   2.617   1.816   8.913  0.1861  0.8560 -0.5544
  120OSM   H13G12744   2.740   1.824   9.049  2.5970  2.8535 -0.0979
  120OSM   C14F12745   2.753   1.994   8.926  0.3641 -0.3045 -0.6772
  120OSM   H14F12746   2.847   1.945   8.895 -0.5488 -1.7606 -1.2433
  120OSM   H14G12747   2.778   2.069   9.003 -0.7006 -0.2551 -0.3653
  120OSM   C15F12748   2.686   2.066   8.807 -0.7399  0.8324  0.1362
  120OSM   H15F12749   2.600   2.122   8.848 -0.8232 -0.2618  1.5287
  120OSM   H15G12750   2.650   1.989   8.735 -0.4816  1.1537 -0.3378
  120OSM   C16F12751   2.788   2.161   8.739 -0.5363 -0.6461 -0.7141
  120OSM   H16F12752   2.892   2.123   8.734 -0.1580  0.2775 -0.0563
  120OSM   H16G12753   2.776   2.241   8.815 -4.2548  0.3748 -2.1288
  120OSM   C17F12754   2.744   2.217   8.606  0.1843  0.3863 -0.4562
  120OSM   H17F12755   2.651   2.278   8.607 -0.5282 -0.5257 -2.7688
  120OSM   H17G12756   2.714   2.128   8.547  0.0182  0.4466 -0.4628
  120OSM   C18F12757   2.858   2.288   8.537 -0.1326 -0.0984 -0.0624
  120OSM   H18F12758   2.834   2.331   8.437 -1.8293 -1.2050 -0.1736
  120OSM   H18G12759   2.947   2.227   8.511 -0.1697  0.8509 -2.7883
  120OSM   H18H12760   2.893   2.370   8.603  1.9808  0.5247 -1.8157
  121OSM      N12761   0.859   4.859  10.889 -0.2393 -0.3193 -0.3083
  121OSM    C1512762   0.831   4.946  10.770 -0.2489  0.9679 -0.0561
  121OSM   H15A12763   0.772   4.892  10.697 -0.4433  0.5348  0.4137
  121OSM   H15B12764   0.920   4.959  10.710 -1.1887 -2.1205 -2.4037
  121OSM   H15C12765   0.787   5.040  10.801 -0.3143  1.7304 -2.2545
  121OSM    C1412766   0.952   4.929  10.987  0.3511 -0.0702 -0.1962
  121OSM   H14A12767   0.916   5.029  11.008 -1.4891 -0.1731 -2.4267
  121OSM   H14B12768   1.051   4.935  10.943  0.5603 -0.5639  0.2041
  121OSM   H14C12769   0.955   4.869  11.076 -3.0623  0.0708  0.1487
  121OSM    C1312770   0.723   4.838  10.959 -0.6783 -0.2830  0.2429
  121OSM   H13A12771   0.641   4.804  10.898 -1.1729 -0.6314  1.0775
  121OSM   H13B12772   0.677   4.929  10.994 -2.3840 -0.9174 -0.2678
  121OSM   H13C12773   0.729   4.790  11.056 -0.6009  0.7346  0.7491
  121OSM    C1212774   0.930   4.724  10.857  0.5554 -0.1287 -0.0709
  121OSM   H12A12775   0.955   4.669  10.946 -4.0686 -1.2464  0.8190
  121OSM   H12B12776   1.013   4.756  10.795 -0.6982 -0.6652 -2.1284
  121OSM    C1112777   0.846   4.630  10.758  0.2370 -0.4316 -0.1856
  121OSM   H11A12778   0.918   4.575  10.694  0.5638 -0.3176  0.0805
  121OSM   H11B12779   0.786   4.691  10.687 -2.2545 -3.3114 -0.7458
  121OSM      P12780   0.620   4.495  10.792 -0.2091 -0.0804 -0.0344
  121OSM    O1312781   0.580   4.404  10.906 -0.0595 -0.9632  0.0775
  121OSM    O1412782   0.529   4.610  10.769  0.7241  0.6822  0.5287
  121OSM    O1112783   0.646   4.413  10.657 -0.2448  0.1147  0.5067
  121OSM    O1212784   0.765   4.552  10.836 -0.1684 -0.1296  0.3037
  121OSM    C1S12785   0.759   4.340  10.628 -0.6398  0.1486  0.6735
  121OSM    H1S12786   0.740   4.239  10.670 -2.1159  1.0421  2.2784
  121OSM    H1T12787   0.851   4.382  10.672  0.7085 -1.0113 -0.9190
  121OSM     NF12788   0.932   4.261  10.471 -0.1007 -0.2563  0.4044
  121OSM    HNF12789   0.993   4.305  10.406 -0.6237  0.3772  0.3354
  121OSM    C2S12790   0.793   4.316  10.474  0.9333 -0.9027 -0.1172
  121OSM    H2S12791   0.724   4.238  10.434  1.0808 -1.1112  0.0341
  121OSM    C3S12792   0.777   4.448  10.390 -0.3227 -0.7592  0.3615
  121OSM    H3S12793   0.866   4.515  10.399 -0.5718 -0.5165  1.0889
  121OSM     O312794   0.669   4.532  10.439  0.1065 -0.5586  0.0392
  121OSM    HO312795   0.639   4.478  10.513  2.9593 -3.4055 -0.6950
  121OSM    C4S12796   0.757   4.411  10.240  0.0458  1.1171  0.1270
  121OSM    H4S12797   0.839   4.435  10.171  1.3473 -2.2413  0.3091
  121OSM    C5S12798   0.640   4.371  10.188 -0.3907  0.9751 -0.2774
  121OSM    H5S12799   0.550   4.353  10.248 -0.0851  2.5035  0.6974
  121OSM    C6S12800   0.623   4.360  10.040 -0.0824 -0.2385 -0.1984
  121OSM    H6S12801   0.709   4.379   9.973  1.8440 -1.4113  1.8277
  121OSM    H6T12802   0.552   4.439  10.007 -0.1101 -0.5811 -0.9866
  121OSM    C7S12803   0.551   4.227   9.996 -0.1120 -0.0400 -0.5776
  121OSM    H7S12804   0.443   4.220  10.020 -0.3630 -0.1520 -1.6745
  121OSM    H7T12805   0.600   4.140  10.046  0.2415 -0.3376 -1.4223
  121OSM    C8S12806   0.566   4.195   9.848  0.1351  0.5965  0.7419
  121OSM    H8S12807   0.493   4.116   9.821 -0.6833  0.4837  3.0457
  121OSM    H8T12808   0.674   4.171   9.840  0.5604  2.5002  0.1035
  121OSM    C9S12809   0.537   4.310   9.754  0.0928  0.0809  0.6509
  121OSM    H9S12810   0.585   4.403   9.792 -1.4044  0.8235  0.8039
  121OSM    H9T12811   0.428   4.331   9.754 -0.4041 -2.2210  1.0888
  121OSM   C10S12812   0.560   4.281   9.601 -0.7327  0.5237  0.0451
  121OSM   H10S12813   0.491   4.195   9.583 -2.2539  1.8455 -0.6366
  121OSM   H10T12814   0.666   4.251   9.583 -0.8730 -0.2883  0.5038
  121OSM   C11S12815   0.534   4.402   9.516  0.3054  0.9519  0.4518
  121OSM   H11S12816   0.602   4.487   9.535 -1.6903  2.3512  1.7567
  121OSM   H11T12817   0.437   4.445   9.548 -0.2873  1.1538 -1.4682
  121OSM   C12S12818   0.554   4.366   9.371 -0.4393  0.0271 -0.1158
  121OSM   H12S12819   0.469   4.299   9.348 -0.4334  0.5845 -1.8914
  121OSM   H12T12820   0.641   4.298   9.374  0.9766  1.7920  0.6114
  121OSM   C13S12821   0.592   4.474   9.276 -0.0989 -0.3490  0.4452
  121OSM   H13S12822   0.684   4.519   9.318 -0.3509 -0.2580  0.9088
  121OSM   H13T12823   0.520   4.558   9.266 -1.9100 -2.0128 -1.5098
  121OSM   C14S12824   0.610   4.415   9.135 -0.5523  0.3108  0.6853
  121OSM   H14S12825   0.523   4.369   9.084 -0.6306  1.7245 -0.5187
  121OSM   H14T12826   0.674   4.327   9.154 -1.9112 -0.8070  0.2040
  121OSM   C15S12827   0.695   4.507   9.046 -0.5949  0.2413  0.4014
  121OSM   H15S12828   0.695   4.459   8.946 -2.7045  0.1160  0.4144
  121OSM   H15T12829   0.799   4.504   9.084 -0.3890  1.5164 -0.0158
  121OSM   C16S12830   0.638   4.646   9.037  0.9797  0.4529 -0.5123
  121OSM   H16S12831   0.701   4.716   8.978  0.9331 -1.2153 -2.6851
  121OSM   H16T12832   0.637   4.694   9.137 -0.6843 -1.8342  0.6712
  121OSM   C17S12833   0.504   4.633   8.966 -0.0999 -0.1676  0.2467
  121OSM   H17S12834   0.433   4.576   9.030 -0.9311 -1.4009 -1.7138
  121OSM   H17T12835   0.519   4.566   8.879 -3.5451  0.0136 -0.6188
  121OSM   C18S12836   0.424   4.755   8.921 -0.5009 -0.9035 -0.2560
  121OSM   H18S12837   0.324   4.732   8.879 -0.5724  1.5268 -1.5720
  121OSM   H18T12838   0.482   4.805   8.841 -2.2284 -0.2731 -1.1561
  121OSM   H18U12839   0.415   4.820   9.011 -0.4688 -0.7769 -0.3437
  121OSM    C1F12840   0.981   4.157  10.529  0.0441 -0.6750 -0.1926
  121OSM     OF12841   0.918   4.072  10.594 -0.2513 -0.2408 -0.1264
  121OSM    C2F12842   1.132   4.162  10.543  0.4903 -0.8216  1.0248
  121OSM    H2F12843   1.146   4.166  10.653  1.4554 -1.2343  0.9241
  121OSM    H2G12844   1.174   4.255  10.501  3.0732 -1.1900  2.6132
  121OSM    C3F12845   1.206   4.050  10.465 -0.5963  0.1754  0.4900
  121OSM    H3F12846   1.175   3.948  10.495 -0.0537 -0.3948 -0.7883
  121OSM    H3G12847   1.313   4.056  10.494 -0.8086  0.7554  1.1953
  121OSM    C4F12848   1.191   4.060  10.306 -0.5504  0.1778  0.2987
  121OSM    H4F12849   1.200   4.166  10.274  0.0381 -0.8183 -3.1651
  121OSM    H4G12850   1.085   4.030  10.293  0.0420 -2.2067  0.5183
  121OSM    C5F12851   1.296   3.980  10.234 -0.4664 -0.1281 -0.2767
  121OSM    H5F12852   1.303   3.878  10.277 -0.6553  0.3134  0.8292
  121OSM    H5G12853   1.395   4.024  10.259 -1.0303  0.4460  1.0587
  121OSM    C6F12854   1.274   3.976  10.080 -0.0109 -0.0063 -0.1451
  121OSM    H6F12855   1.244   4.075  10.039 -1.5471 -1.0013 -1.5361
  121OSM    H6G12856   1.183   3.916  10.065 -1.0424  1.1388  1.2588
  121OSM    C7F12857   1.401   3.933  10.006 -0.5700  0.0385 -0.8745
  121OSM    H7F12858   1.424   3.825  10.018 -0.1154  0.3280  1.4876
  121OSM    H7G12859   1.487   3.996  10.038  1.6706 -2.2169 -2.1213
  121OSM    C8F12860   1.367   3.972   9.858  0.8074  0.2262 -0.3721
  121OSM    H8F12861   1.365   4.083   9.853 -0.1387  0.2586  0.3798
  121OSM    H8G12862   1.266   3.928   9.843  0.7969 -0.6299  1.7876
  121OSM    C9F12863   1.462   3.907   9.764 -0.1678  0.1507  0.0138
  121OSM    H9F12864   1.550   3.859   9.809  1.1695  2.6631  0.3008
  121OSM   C10F12865   1.444   3.911   9.631 -0.0003  0.6797  0.6018
  121OSM   H10F12866   1.526   3.863   9.575  1.0954  1.4975  1.4926
  121OSM   C11F12867   1.322   3.980   9.558  0.7693 -0.8188  0.0588
  121OSM   H11F12868   1.255   4.027   9.633 -0.2505  0.0233 -1.3343
  121OSM   H11G12869   1.261   3.909   9.499  0.4939 -0.5149 -0.0283
  121OSM   C12F12870   1.379   4.096   9.466  0.2465  0.3863 -1.0043
  121OSM   H12F12871   1.444   4.162   9.526 -1.0657  1.5449 -0.7954
  121OSM   H12G12872   1.296   4.159   9.426 -0.0607  0.1320 -0.7756
  121OSM   C13F12873   1.458   4.047   9.344 -0.6094  0.3099  0.4221
  121OSM   H13F12874   1.401   3.969   9.290  0.8532  0.3697 -1.3164
  121OSM   H13G12875   1.555   4.011   9.382  0.2309  1.4242 -0.5678
  121OSM   C14F12876   1.476   4.167   9.250  0.7744  0.2212  0.1905
  121OSM   H14F12877   1.523   4.242   9.317  1.6247 -1.0759  1.0852
  121OSM   H14G12878   1.374   4.200   9.222  0.3312  0.4457  1.9448
  121OSM   C15F12879   1.551   4.149   9.117 -0.7779  0.2360  0.4989
  121OSM   H15F12880   1.499   4.064   9.067 -1.1093 -0.3510  1.8090
  121OSM   H15G12881   1.657   4.132   9.142  0.0558  3.4537 -0.4688
  121OSM   C16F12882   1.546   4.276   9.023 -0.0238  0.3256 -0.0645
  121OSM   H16F12883   1.584   4.362   9.083 -1.3782  0.7808  0.1796
  121OSM   H16G12884   1.437   4.283   9.000 -0.0958  0.9181  0.4087
  121OSM   C17F12885   1.629   4.271   8.900  0.2325  0.3433  0.4975
  121OSM   H17F12886   1.616   4.175   8.848  0.3570  0.2320  0.6695
  121OSM   H17G12887   1.734   4.279   8.938  0.2369 -5.0778  2.4864
  121OSM   C18F12888   1.592   4.392   8.802 -0.0291  0.0724  0.7423
  121OSM   H18F12889   1.622   4.484   8.858  3.0548 -0.7915  0.6883
  121OSM   H18G12890   1.483   4.387   8.781  0.0309 -1.7066  0.7646
  121OSM   H18H12891   1.643   4.384   8.704  0.6563 -0.3412  1.1240
  122OSM      N12892   2.439   3.459  11.029  0.2623  0.5774 -1.1708
  122OSM    C1512893   2.527   3.373  11.104  0.1469 -0.4067 -0.1260
  122OSM   H15A12894   2.546   3.277  11.058  1.2242 -1.0750  1.6011
  122OSM   H15B12895   2.487   3.353  11.202  0.9109 -2.4029 -0.1838
  122OSM   H15C12896   2.622   3.422  11.120 -0.9285  1.2592  1.5401
  122OSM    C1412897   2.304   3.440  11.077 -0.7940 -0.0543 -0.2197
  122OSM   H14A12898   2.236   3.507  11.026  2.7682  1.4916 -3.4062
  122OSM   H14B12899   2.283   3.468  11.180 -0.5376  0.7920 -0.3835
  122OSM   H14C12900   2.267   3.340  11.066 -1.1446  0.1559 -1.0114
  122OSM    C1312901   2.467   3.598  11.064  0.1628  0.0990 -0.0071
  122OSM   H13A12902   2.561   3.631  11.025 -0.5221  4.7932  1.6848
  122OSM   H13B12903   2.464   3.624  11.169  2.5426 -0.3802  0.2183
  122OSM   H13C12904   2.395   3.666  11.021  0.7785  0.8163  0.0940
  122OSM    C1212905   2.455   3.433  10.884 -0.0351 -0.2160 -0.7474
  122OSM   H12A12906   2.365   3.480  10.847 -0.7819 -1.5698 -0.7142
  122OSM   H12B12907   2.457   3.327  10.864 -0.5770  0.1509 -3.0090
  122OSM    C1112908   2.578   3.508  10.823  0.1206 -0.1132  0.0802
  122OSM   H11A12909   2.563   3.618  10.817  0.9713  0.0405  0.6079
  122OSM   H11B12910   2.569   3.479  10.716  0.6117 -0.8094  0.2235
  122OSM      P12911   2.788   3.343  10.851 -0.1050 -0.0971 -0.1216
  122OSM    O1312912   2.914   3.328  10.931  0.6402 -0.3552  0.0557
  122OSM    O1412913   2.685   3.235  10.851 -0.0941  0.0134  0.1584
  122OSM    O1112914   2.830   3.359  10.694  0.4051  0.0662 -0.2524
  122OSM    O1212915   2.705   3.472  10.882  0.3744  0.0165 -0.2855
  122OSM    C1S12916   2.869   3.486  10.642 -0.0004  0.0875  0.8398
  122OSM    H1S12917   2.961   3.524  10.691  0.4657 -1.9727  1.6518
  122OSM    H1T12918   2.790   3.561  10.665  0.3727 -0.2202  3.4109
  122OSM     NF12919   2.948   3.587  10.420 -0.0905 -0.0798 -0.1090
  122OSM    HNF12920   2.887   3.655  10.378  0.9515  0.9372 -0.0124
  122OSM    C2S12921   2.880   3.475  10.486 -0.3189 -0.4203  0.4119
  122OSM    H2S12922   2.935   3.380  10.469  1.8769  0.9472 -0.5404
  122OSM    C3S12923   2.736   3.453  10.436 -0.0952 -0.8138  0.7849
  122OSM    H3S12924   2.675   3.541  10.465 -1.2160 -1.0961 -0.6072
  122OSM     O312925   2.669   3.340  10.487 -0.1083  1.1248 -0.3808
  122OSM    HO312926   2.732   3.317  10.556 -0.5425  1.9551  0.3031
  122OSM    C4S12927   2.724   3.443  10.282 -0.4951  0.0552 -1.0082
  122OSM    H4S12928   2.738   3.541  10.233  2.5337 -0.3324 -1.0913
  122OSM    C5S12929   2.733   3.332  10.200 -0.6201 -0.6883 -0.3372
  122OSM    H5S12930   2.766   3.232  10.232  1.2221  0.1970  0.6819
  122OSM    C6S12931   2.738   3.337  10.048  0.2752  0.1028 -0.1874
  122OSM    H6S12932   2.647   3.301   9.996 -1.1367  1.2706  1.3715
  122OSM    H6T12933   2.825   3.280  10.009 -0.1734 -0.0119 -1.0620
  122OSM    C7S12934   2.744   3.479   9.975 -0.6304  0.5368 -0.1352
  122OSM    H7S12935   2.830   3.526  10.026 -0.1329 -1.6829  1.2356
  122OSM    H7T12936   2.655   3.539  10.003 -0.1419  1.9006 -1.4124
  122OSM    C8S12937   2.782   3.464   9.827  0.1686  0.5885  0.1864
  122OSM    H8S12938   2.891   3.446   9.817 -0.0121  0.1105 -1.2641
  122OSM    H8T12939   2.760   3.567   9.790  1.2747  0.1193 -1.9574
  122OSM    C9S12940   2.707   3.349   9.749  0.3687 -0.6668 -0.2584
  122OSM    H9S12941   2.596   3.353   9.755  0.3254  2.4078 -1.3569
  122OSM    H9T12942   2.756   3.257   9.785  3.2755 -0.0203 -2.1889
  122OSM   C10S12943   2.751   3.347   9.600  0.5484  0.1227 -0.3114
  122OSM   H10S12944   2.861   3.359   9.608  0.2405  3.4665  0.2836
  122OSM   H10T12945   2.727   3.448   9.560  0.4848  0.0795 -0.3836
  122OSM   C11S12946   2.698   3.237   9.513  0.3482  0.3907 -0.5522
  122OSM   H11S12947   2.589   3.244   9.494  0.2894 -0.3260 -0.5055
  122OSM   H11T12948   2.713   3.139   9.563  1.4675  0.7196 -0.2136
  122OSM   C12S12949   2.759   3.226   9.373  0.0234 -0.8790  0.5983
  122OSM   H12S12950   2.867   3.252   9.366  0.2161 -2.0013 -1.0112
  122OSM   H12T12951   2.717   3.305   9.307 -3.6425 -2.5934  0.6384
  122OSM   C13S12952   2.734   3.090   9.309 -0.1327 -0.1260  0.4533
  122OSM   H13S12953   2.623   3.083   9.300 -0.1789 -0.3474  1.1171
  122OSM   H13T12954   2.773   3.009   9.374 -0.9636 -1.3684 -0.5356
  122OSM   C14S12955   2.788   3.088   9.170  0.0397  0.2327 -0.0362
  122OSM   H14S12956   2.876   3.150   9.143 -1.4579  1.4651 -2.4299
  122OSM   H14T12957   2.709   3.136   9.109 -1.7614 -0.9801  1.2357
  122OSM   C15S12958   2.794   2.948   9.102  0.4407  0.7562 -0.2493
  122OSM   H15S12959   2.708   2.878   9.114  2.5015 -1.9478 -0.3082
  122OSM   H15T12960   2.874   2.889   9.153 -0.1565  0.6733  0.6246
  122OSM   C16S12961   2.828   2.951   8.946 -0.3192 -0.1267  0.0706
  122OSM   H16S12962   2.753   3.016   8.897  0.7682  0.9801 -0.1744
  122OSM   H16T12963   2.817   2.847   8.911 -0.4517  0.5529 -2.0368
  122OSM   C17S12964   2.965   3.014   8.922  0.9549  0.6482 -0.4390
  122OSM   H17S12965   3.027   2.975   9.006 -0.3544 -1.1789 -0.2534
  122OSM   H17T12966   2.949   3.124   8.912 -2.4704  0.0510 -3.0074
  122OSM   C18S12967   3.040   2.970   8.795  0.6248  0.0854 -0.2189
  122OSM   H18S12968   2.980   2.988   8.703  0.4247  0.6263  0.0132
  122OSM   H18T12969   3.073   2.864   8.797  2.5609  0.6409 -0.8063
  122OSM   H18U12970   3.125   3.036   8.766 -0.0348  0.5325 -1.1813
  122OSM    C1F12971   3.080   3.604  10.421  0.1119  0.1387 -0.1644
  122OSM     OF12972   3.144   3.528  10.493 -0.4117  0.2602 -0.5526
  122OSM    C2F12973   3.145   3.707  10.329 -0.2863 -0.1839 -0.4409
  122OSM    H2F12974   3.115   3.807  10.367  1.4095 -0.0621  0.6862
  122OSM    H2G12975   3.100   3.700  10.227 -3.2743 -0.6754  0.8026
  122OSM    C3F12976   3.306   3.701  10.326  0.5032 -0.3362  0.0145
  122OSM    H3F12977   3.351   3.699  10.427 -0.3310 -3.3407  0.3939
  122OSM    H3G12978   3.338   3.789  10.265  1.7458 -0.8260 -0.0734
  122OSM    C4F12979   3.357   3.579  10.248 -0.0264 -0.0920  0.3145
  122OSM    H4F12980   3.350   3.493  10.317 -0.5295  1.0684  1.7481
  122OSM    H4G12981   3.465   3.596  10.228 -0.6402  1.0035 -2.6629
  122OSM    C5F12982   3.299   3.555  10.112  0.1051  0.6456  0.1157
  122OSM    H5F12983   3.189   3.542  10.126 -0.3183  1.9808 -1.6266
  122OSM    H5G12984   3.338   3.456  10.080 -0.0684  0.8137 -0.6443
  122OSM    C6F12985   3.324   3.667  10.009 -0.1670  0.5394  0.8276
  122OSM    H6F12986   3.435   3.675  10.005 -0.0893 -0.6789 -3.1188
  122OSM    H6G12987   3.275   3.764  10.028 -0.1579  0.6838  0.1248
  122OSM    C7F12988   3.283   3.614   9.867 -0.7411 -0.6248 -0.4532
  122OSM    H7F12989   3.174   3.592   9.860 -0.6021 -1.9259  0.8819
  122OSM    H7G12990   3.334   3.515   9.867 -1.2234 -0.8920  0.6261
  122OSM    C8F12991   3.318   3.709   9.752 -0.5824  0.5051 -0.0789
  122OSM    H8F12992   3.298   3.642   9.665 -1.1507 -0.7231  0.9688
  122OSM    H8G12993   3.423   3.745   9.749  0.3748 -2.0721  0.0654
  122OSM    C9F12994   3.224   3.818   9.745 -0.0664 -0.0443 -0.0850
  122OSM    H9F12995   3.265   3.910   9.789 -0.4544  0.7533 -1.3338
  122OSM   C10F12996   3.108   3.829   9.677  0.1986 -0.3438 -0.9688
  122OSM   H10F12997   3.042   3.917   9.682 -0.6041 -0.9120 -1.3714
  122OSM   C11F12998   3.052   3.719   9.589 -0.6013  0.0516  0.2225
  122OSM   H11F12999   2.944   3.698   9.604 -0.3577 -0.3379  1.5930
  122OSM   H11G13000   3.091   3.619   9.616 -0.4345  0.1855  0.4881
  122OSM   C12F13001   3.082   3.739   9.440  0.5376  0.1259  0.2537
  122OSM   H12F13002   3.029   3.661   9.381  0.9648  2.0250 -2.8843
  122OSM   H12G13003   3.191   3.721   9.427  0.9982  1.2085  2.1845
  122OSM   C13F13004   3.056   3.875   9.371  0.3358  0.2947  0.0058
  122OSM   H13F13005   3.090   3.855   9.268 -1.6043 -2.1281 -0.2539
  122OSM   H13G13006   3.115   3.952   9.426 -0.2907  0.7209  0.0919
  122OSM   C14F13007   2.907   3.913   9.370  0.1376  0.4575  0.2759
  122OSM   H14F13008   2.864   3.909   9.473 -0.8067 -1.2089 -0.1527
  122OSM   H14G13009   2.859   3.821   9.331 -1.6796  2.0225 -1.3423
  122OSM   C15F13010   2.870   4.027   9.277 -0.1661  0.3166 -0.2449
  122OSM   H15F13011   2.761   4.029   9.257 -0.2599 -0.7480  0.0980
  122OSM   H15G13012   2.925   4.008   9.182  0.5929  0.0472  0.2336
  122OSM   C16F13013   2.905   4.171   9.333 -0.3215  0.4239 -0.3286
  122OSM   H16F13014   2.892   4.246   9.252  3.2608 -0.4609 -1.9585
  122OSM   H16G13015   3.016   4.163   9.339 -0.5236 -1.9909  2.6164
  122OSM   C17F13016   2.854   4.206   9.468  1.1522 -0.0586 -0.4406
  122OSM   H17F13017   2.903   4.289   9.523 -0.8097 -0.5987  2.3382
  122OSM   H17G13018   2.876   4.114   9.527 -1.1625  0.1662  0.8905
  122OSM   C18F13019   2.701   4.223   9.469  0.6997  0.1227  0.6856
  122OSM   H18F13020   2.661   4.219   9.573 -0.3157  1.5404  0.3734
  122OSM   H18G13021   2.650   4.150   9.403 -0.9478  0.0965  1.9163
  122OSM   H18H13022   2.667   4.324   9.439  1.2191 -0.0564 -0.5266
  123OSM      N13023   5.442   1.479   5.752  0.3631 -0.2418  0.2879
  123OSM    C1513024   5.334   1.545   5.828  0.0184  0.3428 -0.4279
  123OSM   H15A13025   5.245   1.487   5.842 -0.2152  1.1684  1.7847
  123OSM   H15B13026   5.302   1.633   5.773 -0.5218  0.9795  0.8697
  123OSM   H15C13027   5.353   1.580   5.928 -0.4204 -0.8571  0.0836
  123OSM    C1413028   5.367   1.423   5.628  0.1391 -1.0908 -0.2438
  123OSM   H14A13029   5.301   1.352   5.676  0.9247 -0.5215  1.7707
  123OSM   H14B13030   5.435   1.383   5.554  0.9583 -0.0838 -0.0534
  123OSM   H14C13031   5.311   1.509   5.594  0.5296 -0.7207  0.0383
  123OSM    C1313032   5.537   1.589   5.721  0.2895 -0.5991  0.1188
  123OSM   H13A13033   5.478   1.672   5.688  1.2159  0.1665  0.3483
  123OSM   H13B13034   5.599   1.556   5.639 -0.6805 -0.7202 -0.5700
  123OSM   H13C13035   5.590   1.619   5.811 -0.2524  2.3578 -0.4595
  123OSM    C1213036   5.496   1.367   5.831  0.0917  0.1231 -0.1786
  123OSM   H12A13037   5.575   1.326   5.770  0.4525  1.0467 -0.3409
  123OSM   H12B13038   5.414   1.296   5.832 -1.3500  1.7152 -0.3994
  123OSM    C1113039   5.538   1.390   5.977 -0.5853 -0.0145  0.4191
  123OSM   H11A13040   5.579   1.293   6.013  0.1368 -0.4460 -1.4766
  123OSM   H11B13041   5.445   1.406   6.036 -0.8177  1.5029 -0.2998
  123OSM      P13042   5.776   1.497   6.009 -0.4346  0.3835  0.3347
  123OSM    O1313043   5.813   1.363   6.068 -0.5014 -0.2431 -0.2242
  123OSM    O1413044   5.839   1.544   5.884 -0.4381 -0.3854 -0.3905
  123OSM    O1113045   5.798   1.601   6.121  0.3807 -0.1590  0.3616
  123OSM    O1213046   5.624   1.510   5.996 -0.4495  0.0706 -0.4601
  123OSM    C1S13047   5.733   1.588   6.247 -0.6679 -0.4387  0.3453
  123OSM    H1S13048   5.655   1.509   6.245 -1.8345  0.6933 -0.3451
  123OSM    H1T13049   5.687   1.684   6.280  1.4314  0.0909  1.9220
  123OSM     NF13050   5.761   1.570   6.492 -0.8416  0.3079 -0.9152
  123OSM    HNF13051   5.793   1.627   6.567  0.3601 -1.3322 -0.1255
  123OSM    C2S13052   5.832   1.566   6.370  0.3690 -0.0913 -0.5893
  123OSM    H2S13053   5.875   1.465   6.358 -1.7603 -0.9598 -1.5611
  123OSM    C3S13054   5.947   1.675   6.371 -0.8874 -0.3323 -0.5386
  123OSM    H3S13055   5.897   1.767   6.408  1.7006  1.9947 -2.4171
  123OSM     O313056   5.997   1.716   6.239 -0.5838  1.1072 -0.1399
  123OSM    HO313057   5.947   1.670   6.172  0.0199 -2.9060  1.8655
  123OSM    C4S13058   6.055   1.634   6.479  0.6955 -0.4177 -0.4891
  123OSM    H4S13059   6.033   1.687   6.572 -1.6864 -1.4968 -0.3667
  123OSM    C5S13060   6.165   1.559   6.467  0.3595 -0.3538  0.3170
  123OSM    H5S13061   6.194   1.527   6.366  0.9748  0.4101  0.2475
  123OSM    C6S13062   6.272   1.527   6.577 -0.5081 -0.4971  0.2650
  123OSM    H6S13063   6.376   1.556   6.549 -0.1550 -1.7637  0.1952
  123OSM    H6T13064   6.278   1.420   6.606  0.0410 -0.7596 -0.7483
  123OSM    C7S13065   6.240   1.586   6.716  1.0383  0.9805  0.6996
  123OSM    H7S13066   6.210   1.693   6.707 -2.9541 -0.0665 -0.5625
  123OSM    H7T13067   6.334   1.604   6.773  1.1825 -0.4471  0.9465
  123OSM    C8S13068   6.128   1.506   6.784 -0.0880  1.1379 -0.3327
  123OSM    H8S13069   6.159   1.400   6.790 -1.1369  0.7286 -1.7025
  123OSM    H8T13070   6.027   1.504   6.739  0.2724 -1.9555 -1.2142
  123OSM    C9S13071   6.098   1.550   6.925 -0.4611 -0.4912 -0.3577
  123OSM    H9S13072   6.025   1.482   6.973 -0.5588 -0.0819  0.0736
  123OSM    H9T13073   6.059   1.654   6.929  2.0016  0.4644  0.1129
  123OSM   C10S13074   6.221   1.548   7.022  0.9248  0.4755 -1.2056
  123OSM   H10S13075   6.314   1.608   7.013  0.2768  1.5709 -0.8434
  123OSM   H10T13076   6.261   1.445   7.014  0.2745 -0.1944  2.4090
  123OSM   C11S13077   6.173   1.559   7.168  0.0666 -0.1032  0.6362
  123OSM   H11S13078   6.108   1.471   7.188  0.8340 -0.7002  0.5383
  123OSM   H11T13079   6.118   1.655   7.178 -0.9604 -0.7397  1.2284
  123OSM   C12S13080   6.289   1.560   7.271  0.1337 -0.3238  0.3005
  123OSM   H12S13081   6.343   1.657   7.271 -0.5858  0.1010  1.2832
  123OSM   H12T13082   6.363   1.481   7.247  1.1039  0.0249  1.9642
  123OSM   C13S13083   6.234   1.531   7.409  0.6836 -0.0581 -0.1296
  123OSM   H13S13084   6.169   1.443   7.394  1.8353 -0.4916 -3.3525
  123OSM   H13T13085   6.171   1.617   7.440  0.3092  0.6617 -2.6248
  123OSM   C14S13086   6.342   1.511   7.520  0.4354  0.0763  0.1478
  123OSM   H14S13087   6.395   1.608   7.521  0.5607  0.1277 -2.8326
  123OSM   H14T13088   6.396   1.421   7.484  0.0890 -1.0523  2.2673
  123OSM   C15S13089   6.288   1.480   7.665  0.3201  0.4420  0.1408
  123OSM   H15S13090   6.380   1.452   7.721 -0.6118 -1.5905  0.7597
  123OSM   H15T13091   6.228   1.387   7.670  0.6447  0.0616 -1.9137
  123OSM   C16S13092   6.217   1.591   7.738 -0.5768 -0.2376  0.6794
  123OSM   H16S13093   6.133   1.630   7.678  0.1252 -1.8112 -1.4577
  123OSM   H16T13094   6.291   1.671   7.757 -1.5534  0.9915 -0.5549
  123OSM   C17S13095   6.149   1.537   7.864 -0.8842  0.5564 -0.1872
  123OSM   H17S13096   6.226   1.482   7.922  0.9444  1.3368 -1.7781
  123OSM   H17T13097   6.074   1.463   7.830  1.2564 -1.2873 -1.1817
  123OSM   C18S13098   6.084   1.648   7.956 -0.1148 -1.0282  0.3778
  123OSM   H18S13099   6.160   1.711   8.007 -0.2631 -0.9396  0.4875
  123OSM   H18T13100   6.020   1.601   8.033 -1.1676 -0.9181 -0.4062
  123OSM   H18U13101   6.029   1.722   7.893  1.2585 -1.3183 -1.2477
  123OSM    C1F13102   5.669   1.482   6.526 -0.4910 -0.6670  0.1386
  123OSM     OF13103   5.620   1.400   6.450 -0.2028 -0.4081  0.2057
  123OSM    C2F13104   5.618   1.514   6.669  0.3099 -0.3492  1.2910
  123OSM    H2F13105   5.513   1.479   6.670 -0.1221  0.6801 -1.1665
  123OSM    H2G13106   5.601   1.623   6.680  0.6109 -0.0474 -0.7873
  123OSM    C3F13107   5.692   1.467   6.792 -0.5812  0.1513 -0.4879
  123OSM    H3F13108   5.801   1.458   6.776 -0.2802  0.5286  1.1952
  123OSM    H3G13109   5.669   1.360   6.814 -1.4579  0.5129  0.4096
  123OSM    C4F13110   5.678   1.556   6.918 -0.2900  0.1222  0.5033
  123OSM    H4F13111   5.570   1.578   6.929 -0.7521 -1.3077 -0.8585
  123OSM    H4G13112   5.722   1.658   6.911  0.6566 -0.3492 -0.8199
  123OSM    C5F13113   5.728   1.499   7.049 -0.3200 -0.0815 -0.3379
  123OSM    H5F13114   5.839   1.497   7.045 -0.2725  0.8625  0.2146
  123OSM    H5G13115   5.701   1.391   7.056  0.9248 -0.5302 -1.8201
  123OSM    C6F13116   5.682   1.576   7.174  0.0700 -0.2358  1.1303
  123OSM    H6F13117   5.573   1.555   7.180  0.2713 -0.9967  2.5064
  123OSM    H6G13118   5.711   1.683   7.161 -3.1253  0.8860  2.2810
  123OSM    C7F13119   5.758   1.537   7.302  0.9450  0.2397  0.0925
  123OSM    H7F13120   5.865   1.539   7.271  1.1750  2.2759  0.8744
  123OSM    H7G13121   5.737   1.431   7.328  0.0870 -0.1973 -2.1369
  123OSM    C8F13122   5.711   1.623   7.425 -0.4939  0.8720 -0.3905
  123OSM    H8F13123   5.606   1.621   7.462 -0.5036  2.8414 -0.2414
  123OSM    H8G13124   5.729   1.727   7.391 -0.5793  0.5087 -1.5861
  123OSM    C9F13125   5.809   1.597   7.534 -0.4120 -0.3902 -0.5191
  123OSM    H9F13126   5.911   1.609   7.497 -0.5057 -0.4874 -0.8117
  123OSM   C10F13127   5.781   1.564   7.665 -0.2881 -0.2639  0.4697
  123OSM   H10F13128   5.869   1.538   7.726  1.5706  1.1618 -1.4633
  123OSM   C11F13129   5.645   1.550   7.727 -0.6223  0.4907  0.0463
  123OSM   H11F13130   5.642   1.444   7.760  2.3300 -0.4315 -2.2212
  123OSM   H11G13131   5.563   1.575   7.656 -0.3305  4.0430  0.8084
  123OSM   C12F13132   5.628   1.649   7.845 -0.3344  0.7323  1.1507
  123OSM   H12F13133   5.530   1.632   7.897 -0.3651 -0.2582  0.7971
  123OSM   H12G13134   5.641   1.749   7.800 -1.3226 -0.4262 -1.9988
  123OSM   C13F13135   5.722   1.626   7.964  0.1619 -1.2598 -0.3020
  123OSM   H13F13136   5.817   1.668   7.925 -0.1511 -2.4774 -2.5057
  123OSM   H13G13137   5.737   1.520   7.992 -1.2486 -1.6244 -0.8342
  123OSM   C14F13138   5.686   1.703   8.098 -0.3620 -0.0122  0.4235
  123OSM   H14F13139   5.656   1.809   8.080  0.0349  0.1873  0.9251
  123OSM   H14G13140   5.786   1.706   8.145 -0.9393 -0.2066  1.7064
  123OSM   C15F13141   5.589   1.625   8.180 -0.6218  0.0933 -0.3223
  123OSM   H15F13142   5.646   1.539   8.219  1.4175  2.7110  2.9855
  123OSM   H15G13143   5.513   1.577   8.114  2.3396 -1.0332 -3.1678
  123OSM   C16F13144   5.547   1.697   8.310 -0.3255 -0.2261  0.7574
  123OSM   H16F13145   5.492   1.788   8.278  0.7128  0.7501  1.6051
  123OSM   H16G13146   5.644   1.744   8.340 -0.4209  2.6725 -2.7811
  123OSM   C17F13147   5.491   1.599   8.413  0.0432  0.1974 -0.4809
  123OSM   H17F13148   5.576   1.535   8.446 -1.5316 -1.1578  1.1488
  123OSM   H17G13149   5.420   1.537   8.354 -0.5304  0.1311  0.2731
  123OSM   C18F13150   5.419   1.653   8.538 -0.4759  0.1344  0.4889
  123OSM   H18F13151   5.356   1.569   8.575 -1.7540  0.7632 -0.2021
  123OSM   H18G13152   5.352   1.734   8.504 -1.7038 -1.6390 -1.6251
  123OSM   H18H13153   5.497   1.684   8.611 -0.3190 -0.5104  0.6020
  124OSM      N13154   0.027   6.654   6.189  0.6699  0.3873  0.2561
  124OSM    C1513155   0.167   6.697   6.158  0.2544  0.4325 -0.1568
  124OSM   H15A13156   0.241   6.626   6.191 -0.4587  0.5024  1.7262
  124OSM   H15B13157   0.201   6.791   6.199  0.0213  0.5723 -0.2761
  124OSM   H15C13158   0.178   6.701   6.051 -2.3868  0.5029 -0.4927
  124OSM    C1413159   0.001   6.694   6.329 -0.1616 -0.1597 -0.0641
  124OSM   H14A13160   0.060   6.635   6.397  1.0038  0.9665 -0.0629
  124OSM   H14B13161  -0.103   6.685   6.357 -0.0360 -0.3307  0.3542
  124OSM   H14C13162   0.029   6.797   6.344  1.2242 -0.6492  0.9623
  124OSM    C1313163  -0.063   6.734   6.102 -0.9007  0.5158 -0.2335
  124OSM   H13A13164  -0.165   6.727   6.138 -0.7299 -2.7310 -0.1504
  124OSM   H13B13165  -0.060   6.704   5.998 -1.1038  2.6983 -0.9271
  124OSM   H13C13166  -0.040   6.839   6.089 -0.0728  0.2811 -0.7573
  124OSM    C1213167   0.002   6.508   6.170 -0.1148  0.3708  0.4171
  124OSM   H12A13168   0.039   6.464   6.078  3.1465 -3.4421  3.2241
  124OSM   H12B13169  -0.105   6.501   6.165 -0.3310  2.4385  1.0689
  124OSM    C1113170   0.072   6.411   6.271  0.3823  0.0578  0.2802
  124OSM   H11A13171   0.034   6.310   6.242  1.7535 -0.8775  1.6133
  124OSM   H11B13172   0.024   6.432   6.368  0.5332  1.5796  0.0424
  124OSM      P13173   0.304   6.300   6.295  0.0786  0.0491 -0.2841
  124OSM    O1313174   0.265   6.174   6.222 -0.1710  0.1259  0.2352
  124OSM    O1413175   0.443   6.351   6.274  0.9906  0.8827 -0.4712
  124OSM    O1113176   0.274   6.280   6.444  0.2217  0.5744 -0.0596
  124OSM    O1213177   0.207   6.420   6.262  0.3595  0.5399  0.3185
  124OSM    C1S13178   0.375   6.234   6.533 -0.0955  0.0668 -0.0638
  124OSM    H1S13179   0.476   6.277   6.516  0.0095 -0.6737 -1.4577
  124OSM    H1T13180   0.392   6.126   6.511  0.8302 -0.0474  1.1487
  124OSM     NF13181   0.427   6.166   6.763  0.0405  0.2758  0.2923
  124OSM    HNF13182   0.384   6.078   6.782 -0.1811 -0.2252 -2.1576
  124OSM    C2S13183   0.337   6.254   6.681 -0.3347  0.4509 -0.2540
  124OSM    H2S13184   0.353   6.359   6.712  0.2129  0.6301 -1.1223
  124OSM    C3S13185   0.177   6.236   6.710  0.6571 -0.4479 -0.3629
  124OSM    H3S13186   0.140   6.144   6.661  2.3909 -0.8356 -1.0050
  124OSM     O313187   0.103   6.351   6.655 -0.4720  0.3784  0.5519
  124OSM    HO313188   0.159   6.381   6.584  0.2062 -0.4587  0.7107
  124OSM    C4S13189   0.140   6.228   6.859 -0.1935  0.2801 -0.4171
  124OSM    H4S13190   0.128   6.324   6.910  2.0314 -0.3089  1.3842
  124OSM    C5S13191   0.119   6.106   6.922 -0.0526 -0.3907  1.0708
  124OSM    H5S13192   0.148   6.021   6.859 -1.2605 -0.1766  0.1831
  124OSM    C6S13193   0.087   6.082   7.067  0.0135 -0.0848  0.5034
  124OSM    H6S13194   0.009   6.003   7.058 -1.5927  1.5085 -0.1793
  124OSM    H6T13195   0.034   6.161   7.125 -0.3671  0.5779 -0.7002
  124OSM    C7S13196   0.207   6.028   7.151  0.4665  0.7057 -0.0620
  124OSM    H7S13197   0.292   6.098   7.139  1.8805 -1.1002 -1.0191
  124OSM    H7T13198   0.242   5.929   7.115 -0.5107 -0.2455  1.4679
  124OSM    C8S13199   0.176   5.999   7.298 -0.2675  0.0407 -0.1627
  124OSM    H8S13200   0.244   5.929   7.352 -0.9052 -1.1963 -0.9266
  124OSM    H8T13201   0.076   5.958   7.323 -1.0841  0.0369 -3.1475
  124OSM    C9S13202   0.178   6.138   7.368 -1.0967  0.2526 -0.1048
  124OSM    H9S13203   0.113   6.213   7.319  0.5522  0.4652 -2.1176
  124OSM    H9T13204   0.283   6.174   7.355 -1.5735  1.4822 -0.6471
  124OSM   C10S13205   0.136   6.138   7.521 -0.2408  0.1617  0.0937
  124OSM   H10S13206   0.042   6.079   7.531 -0.3210  0.2778  0.0118
  124OSM   H10T13207   0.121   6.238   7.566 -1.1612 -0.1099  0.4113
  124OSM   C11S13208   0.234   6.065   7.609  0.5659 -0.2930  1.0588
  124OSM   H11S13209   0.332   6.117   7.597 -0.0202  0.4218 -1.1085
  124OSM   H11T13210   0.253   5.958   7.582  2.5161 -0.1380  1.6326
  124OSM   C12S13211   0.180   6.078   7.755 -0.4624  0.3534  0.2037
  124OSM   H12S13212   0.090   6.015   7.772 -0.9413  0.8047 -0.6199
  124OSM   H12T13213   0.159   6.176   7.803  0.1845  0.9934 -0.7596
  124OSM   C13S13214   0.285   5.997   7.846  0.2672 -0.2793 -0.0557
  124OSM   H13S13215   0.381   6.050   7.864  0.4987  0.0693 -2.1129
  124OSM   H13T13216   0.310   5.898   7.802  1.2464 -0.3279  0.5632
  124OSM   C14S13217   0.235   5.962   7.982  0.0885 -0.5066  0.2346
  124OSM   H14S13218   0.135   5.913   7.982 -0.9241  1.4248 -0.8627
  124OSM   H14T13219   0.226   6.066   8.018  0.5019 -0.8558  1.3847
  124OSM   C15S13220   0.339   5.890   8.060 -0.4087  0.2222  0.6614
  124OSM   H15S13221   0.431   5.953   8.057 -1.4317  1.9067 -3.8358
  124OSM   H15T13222   0.361   5.797   8.004 -0.4855  0.6754 -0.1393
  124OSM   C16S13223   0.299   5.846   8.202 -0.1669 -0.4945  0.5670
  124OSM   H16S13224   0.211   5.777   8.193  1.2399 -2.1607 -1.4307
  124OSM   H16T13225   0.269   5.932   8.266 -0.9744 -0.6176  0.3634
  124OSM   C17S13226   0.408   5.775   8.279  0.0096  0.0938  0.0593
  124OSM   H17S13227   0.490   5.850   8.285  2.0000 -1.8018 -1.7088
  124OSM   H17T13228   0.445   5.688   8.221 -0.5924  0.8617 -1.5533
  124OSM   C18S13229   0.357   5.729   8.416 -0.5637  0.3746 -0.3695
  124OSM   H18S13230   0.322   5.822   8.466  1.0184 -0.1646  1.9269
  124OSM   H18T13231   0.438   5.683   8.477  0.6335  0.7971 -1.5753
  124OSM   H18U13232   0.275   5.655   8.418 -0.5035  0.2560 -1.5934
  124OSM    C1F13233   0.562   6.182   6.765 -0.0519  0.1132  1.0351
  124OSM     OF13234   0.617   6.285   6.732  0.1595  0.1887  0.8391
  124OSM    C2F13235   0.646   6.055   6.791 -0.0745 -0.1449 -0.1198
  124OSM    H2F13236   0.660   6.003   6.694 -0.9061  1.9521 -1.4207
  124OSM    H2G13237   0.593   5.987   6.861 -1.0185  0.0866 -0.5969
  124OSM    C3F13238   0.793   6.082   6.843 -0.3091 -0.4998  0.2314
  124OSM    H3F13239   0.847   6.136   6.763 -0.9759 -2.4219 -1.6299
  124OSM    H3G13240   0.840   5.981   6.846  0.1296 -0.4160 -1.9209
  124OSM    C4F13241   0.791   6.152   6.982 -0.6369 -0.2971  0.4283
  124OSM    H4F13242   0.779   6.262   6.975  0.0639 -0.3144 -2.2431
  124OSM    H4G13243   0.899   6.138   7.007 -0.4260 -0.3048 -0.4481
  124OSM    C5F13244   0.692   6.089   7.080 -0.4466  0.3151  0.1168
  124OSM    H5F13245   0.704   5.979   7.078  1.1569  0.4757 -1.0505
  124OSM    H5G13246   0.588   6.113   7.048 -0.3861 -0.2350 -0.5181
  124OSM    C6F13247   0.708   6.128   7.235 -0.1148  0.3870 -0.4304
  124OSM    H6F13248   0.635   6.066   7.292  1.8517  0.1945  2.0794
  124OSM    H6G13249   0.676   6.234   7.239  0.0103  0.4293 -0.5359
  124OSM    C7F13250   0.846   6.106   7.302  0.3533 -0.2944  0.1414
  124OSM    H7F13251   0.913   6.188   7.269  1.4585 -0.8951  0.7989
  124OSM    H7G13252   0.880   6.007   7.265  1.1168  0.9543 -2.7325
  124OSM    C8F13253   0.832   6.114   7.453 -0.1983  0.2024 -0.0458
  124OSM    H8F13254   0.781   6.205   7.492  0.4229  0.0232  1.2589
  124OSM    H8G13255   0.937   6.121   7.489  0.8927  0.5438 -3.0455
  124OSM    C9F13256   0.771   5.982   7.508  0.4427 -0.0097 -0.3048
  124OSM    H9F13257   0.833   5.895   7.482  1.0959  0.6456 -0.9826
  124OSM   C10F13258   0.668   5.982   7.591  0.3479 -0.0782 -0.1662
  124OSM   H10F13259   0.636   5.883   7.627  0.2788  0.1060  0.2920
  124OSM   C11F13260   0.595   6.108   7.656 -0.3075 -0.6543  0.3110
  124OSM   H11F13261   0.501   6.062   7.694 -1.0132  0.9616  0.5769
  124OSM   H11G13262   0.579   6.189   7.582 -0.7295 -1.7031 -0.7939
  124OSM   C12F13263   0.649   6.182   7.782 -0.2227 -0.0008  0.2438
  124OSM   H12F13264   0.583   6.269   7.804  0.8496  1.1577 -0.9492
  124OSM   H12G13265   0.747   6.225   7.755  0.2934 -0.9421  0.5900
  124OSM   C13F13266   0.682   6.081   7.899 -0.4549  0.1805 -0.2394
  124OSM   H13F13267   0.754   6.005   7.860  1.7126  1.4974  0.9988
  124OSM   H13G13268   0.580   6.043   7.919 -1.0141  0.9840 -1.4750
  124OSM   C14F13269   0.747   6.152   8.021  1.0201 -0.0998  0.0037
  124OSM   H14F13270   0.842   6.197   7.984  0.4024  2.4418  1.3180
  124OSM   H14G13271   0.766   6.065   8.088  1.1653  0.4580  0.6949
  124OSM   C15F13272   0.670   6.256   8.101  0.6193 -0.3548 -0.3153
  124OSM   H15F13273   0.633   6.328   8.025 -0.1002  0.2282  0.5756
  124OSM   H15G13274   0.733   6.308   8.176 -3.1463 -0.7662  3.4847
  124OSM   C16F13275   0.545   6.193   8.166  0.0097  0.3214  0.4063
  124OSM   H16F13276   0.567   6.147   8.265 -0.8733 -1.1806 -0.0699
  124OSM   H16G13277   0.510   6.118   8.092  1.3678  1.9312 -2.0054
  124OSM   C17F13278   0.433   6.296   8.193 -0.2400 -0.6327 -0.6728
  124OSM   H17F13279   0.354   6.240   8.249 -0.5624  0.0453 -0.4431
  124OSM   H17G13280   0.378   6.333   8.104  0.5445  0.6601 -0.6295
  124OSM   C18F13281   0.469   6.410   8.291 -0.4379  0.2639  0.0673
  124OSM   H18F13282   0.489   6.358   8.387 -1.1928  0.0337  0.1021
  124OSM   H18G13283   0.383   6.474   8.319  0.7465  1.6547  0.6970
  124OSM   H18H13284   0.555   6.467   8.250 -0.5230 -1.0116 -2.0042
  125OSM      N13285   1.567   1.804   6.036 -0.5723  0.5152 -0.0208
  125OSM    C1513286   1.633   1.769   5.897  0.3872 -0.2120  0.3092
  125OSM   H15A13287   1.722   1.716   5.928  1.8901  1.6852 -0.5489
  125OSM   H15B13288   1.657   1.863   5.848  3.2640 -1.9936 -2.0743
  125OSM   H15C13289   1.571   1.704   5.838 -2.6839  2.7194  0.0021
  125OSM    C1413290   1.431   1.857   5.993 -0.3405  0.0048 -0.1278
  125OSM   H14A13291   1.437   1.933   5.917  0.1736  1.0980  0.9711
  125OSM   H14B13292   1.373   1.899   6.074 -1.5523 -1.1587 -0.3433
  125OSM   H14C13293   1.366   1.784   5.945 -1.1394  0.2301  0.5818
  125OSM    C1313294   1.551   1.689   6.124 -0.7961  0.9028  0.6098
  125OSM   H13A13295   1.498   1.610   6.074 -1.4298  1.6697  0.0330
  125OSM   H13B13296   1.505   1.718   6.217  0.6690 -1.6916  2.2474
  125OSM   H13C13297   1.651   1.651   6.140 -0.3312  1.0594 -1.6211
  125OSM    C1213298   1.632   1.920   6.110  0.0084  0.3840  0.3205
  125OSM   H12A13299   1.622   2.010   6.050  0.0564  0.1894  0.0182
  125OSM   H12B13300   1.739   1.904   6.117 -0.3315 -1.2942  2.6022
  125OSM    C1113301   1.596   1.939   6.261 -0.6688 -0.1278 -0.4248
  125OSM   H11A13302   1.652   2.022   6.310 -3.3234  1.8610 -0.5316
  125OSM   H11B13303   1.629   1.841   6.303  1.3609 -0.2020 -2.0082
  125OSM      P13304   1.389   2.099   6.267  0.0495 -0.0988  0.2200
  125OSM    O1313305   1.469   2.176   6.174 -0.0923  0.0844 -0.7000
  125OSM    O1413306   1.250   2.088   6.225  0.0300 -0.1293 -0.4173
  125OSM    O1113307   1.399   2.158   6.414 -0.0471 -0.8644  0.0585
  125OSM    O1213308   1.447   1.952   6.280 -0.1984 -0.3643 -0.0423
  125OSM    C1S13309   1.349   2.077   6.529 -0.2839 -0.7498 -0.1844
  125OSM    H1S13310   1.435   2.038   6.586 -0.4821 -1.1698 -0.1713
  125OSM    H1T13311   1.280   1.992   6.509  0.3327 -1.6879  1.4598
  125OSM     NF13312   1.255   2.085   6.748 -0.3702  0.3292  0.4151
  125OSM    HNF13313   1.165   2.042   6.745 -0.8572  1.3032  0.6335
  125OSM    C2S13314   1.279   2.171   6.634 -0.7986  0.2041  0.1052
  125OSM    H2S13315   1.352   2.251   6.657 -0.2495  0.2054 -1.5095
  125OSM    C3S13316   1.148   2.232   6.564 -0.3615  0.0540  0.3333
  125OSM    H3S13317   1.087   2.150   6.519  1.6971 -0.2593 -2.1182
  125OSM     O313318   1.163   2.309   6.445 -0.0090 -0.4728 -0.1214
  125OSM    HO313319   1.254   2.291   6.418 -0.0955 -1.5540  0.2492
  125OSM    C4S13320   1.085   2.327   6.666  0.6956 -0.8849  0.3752
  125OSM    H4S13321   1.156   2.404   6.701 -0.7654  1.7191 -1.9510
  125OSM    C5S13322   0.962   2.331   6.718  0.3119  0.2740 -0.3334
  125OSM    H5S13323   0.891   2.255   6.683 -1.4617  1.3275  0.8653
  125OSM    C6S13324   0.917   2.422   6.827  0.2434 -0.0583  0.0248
  125OSM    H6S13325   0.821   2.468   6.796  1.3886  1.6646 -1.1646
  125OSM    H6T13326   0.990   2.503   6.845  0.3032  0.1114 -0.9301
  125OSM    C7S13327   0.891   2.341   6.954 -0.6680 -0.1778  0.0518
  125OSM    H7S13328   0.980   2.290   6.998 -1.0410  0.6398  1.8433
  125OSM    H7T13329   0.817   2.261   6.931 -0.3038 -0.2463 -0.9502
  125OSM    C8S13330   0.845   2.436   7.071  0.2644 -0.3424  0.4190
  125OSM    H8S13331   0.784   2.515   7.022  3.2042  1.1459 -1.1735
  125OSM    H8T13332   0.940   2.481   7.109  0.2539 -1.7888  2.3085
  125OSM    C9S13333   0.776   2.366   7.192 -0.8867 -0.1600  0.7349
  125OSM    H9S13334   0.825   2.266   7.202  0.5555  0.5838  1.3478
  125OSM    H9T13335   0.670   2.347   7.165 -0.5598 -1.1111  0.0532
  125OSM   C10S13336   0.788   2.443   7.328 -0.4992  0.9450 -0.2824
  125OSM   H10S13337   0.725   2.534   7.324 -0.1952  1.1115 -1.6945
  125OSM   H10T13338   0.888   2.492   7.333 -0.5233  0.8822  1.5720
  125OSM   C11S13339   0.775   2.362   7.456  0.1980 -0.4988 -0.1315
  125OSM   H11S13340   0.873   2.316   7.482  0.1975 -0.9773 -0.9395
  125OSM   H11T13341   0.708   2.276   7.435  0.9993 -0.8169 -1.5000
  125OSM   C12S13342   0.726   2.450   7.572  0.2568  0.1496  0.1316
  125OSM   H12S13343   0.617   2.468   7.557 -0.1202 -1.3293  0.8971
  125OSM   H12T13344   0.771   2.552   7.564 -2.3413  1.2362 -2.2416
  125OSM   C13S13345   0.747   2.400   7.709  0.3114 -0.6266  0.0927
  125OSM   H13S13346   0.707   2.476   7.781  0.9647 -0.5285  0.3596
  125OSM   H13T13347   0.856   2.381   7.723  0.5477  0.3815 -0.2706
  125OSM   C14S13348   0.666   2.271   7.734 -0.7308  0.8244  0.2394
  125OSM   H14S13349   0.700   2.188   7.668  0.1495 -0.9997  2.8216
  125OSM   H14T13350   0.560   2.298   7.717 -1.0167 -1.0206 -1.2628
  125OSM   C15S13351   0.692   2.229   7.881 -0.4089  0.4693 -0.1250
  125OSM   H15S13352   0.676   2.320   7.943 -1.3757  0.5123 -0.4130
  125OSM   H15T13353   0.800   2.213   7.898  0.5709  3.4498 -2.5593
  125OSM   C16S13354   0.612   2.109   7.931 -0.2358 -0.1088 -0.1775
  125OSM   H16S13355   0.631   2.074   8.034 -1.8862  1.4722  0.7281
  125OSM   H16T13356   0.644   2.025   7.865 -3.1879 -0.8247 -0.8404
  125OSM   C17S13357   0.456   2.114   7.918 -0.0147 -0.5232  0.7618
  125OSM   H17S13358   0.435   2.220   7.947  1.3446 -0.8938  3.5136
  125OSM   H17T13359   0.426   2.042   7.997 -1.1261 -0.8319  0.0690
  125OSM   C18S13360   0.408   2.060   7.781 -0.5439  0.2790 -0.1498
  125OSM   H18S13361   0.324   2.123   7.745  1.1505  2.1849 -0.9705
  125OSM   H18T13362   0.368   1.959   7.802  1.4296 -0.2246  1.5077
  125OSM   H18U13363   0.489   2.048   7.705 -1.3601 -0.0273 -0.9842
  125OSM    C1F13364   1.339   2.054   6.840  0.0502  0.3161 -1.0937
  125OSM     OF13365   1.453   2.091   6.837 -0.4767 -0.5419  0.2443
  125OSM    C2F13366   1.296   1.957   6.945  0.0078  0.5478 -0.0473
  125OSM    H2F13367   1.344   1.858   6.928  0.2020  0.6336 -0.0066
  125OSM    H2G13368   1.190   1.924   6.937 -0.2735  1.1076  1.2529
  125OSM    C3F13369   1.327   2.000   7.085  0.3644 -0.4427 -0.2927
  125OSM    H3F13370   1.279   2.097   7.111 -0.2942 -0.8705  0.1009
  125OSM    H3G13371   1.438   2.002   7.084  0.4064 -0.8832 -3.0194
  125OSM    C4F13372   1.279   1.901   7.187 -0.3036  0.0479  0.7560
  125OSM    H4F13373   1.321   1.804   7.155  0.2653  0.4587  0.2158
  125OSM    H4G13374   1.169   1.895   7.172 -0.0150  0.6070 -2.2371
  125OSM    C5F13375   1.323   1.926   7.332  0.0056  0.4245  0.1739
  125OSM    H5F13376   1.281   2.027   7.354 -0.5318  0.3236 -0.3538
  125OSM    H5G13377   1.433   1.941   7.337 -0.1192  1.5020  0.0098
  125OSM    C6F13378   1.274   1.807   7.412 -0.1182  0.4350  0.8640
  125OSM    H6F13379   1.344   1.725   7.386  0.3272  0.5991  1.5228
  125OSM    H6G13380   1.175   1.765   7.385  0.0458 -0.0455  1.0082
  125OSM    C7F13381   1.298   1.817   7.564  0.2275  0.6153  0.3477
  125OSM    H7F13382   1.252   1.904   7.616  1.0874  0.4223  1.4732
  125OSM    H7G13383   1.408   1.807   7.578  0.4720 -0.6119 -1.9846
  125OSM    C8F13384   1.227   1.698   7.637 -0.0146 -0.4062  0.2130
  125OSM    H8F13385   1.286   1.606   7.616  0.3088 -0.1287 -0.1156
  125OSM    H8G13386   1.123   1.686   7.600 -0.4395 -0.1428  1.2871
  125OSM    C9F13387   1.224   1.703   7.780 -0.8341  0.0136 -0.2160
  125OSM    H9F13388   1.129   1.745   7.817 -1.6102 -0.3259 -1.7474
  125OSM   C10F13389   1.310   1.652   7.875  0.4752  0.4444  1.0868
  125OSM   H10F13390   1.284   1.651   7.982 -0.7065  3.2067  0.9391
  125OSM   C11F13391   1.432   1.575   7.837 -0.6559  0.5074 -0.0037
  125OSM   H11F13392   1.516   1.596   7.906 -0.4828 -0.6119  0.1470
  125OSM   H11G13393   1.466   1.605   7.735  1.8632 -0.2490  0.5415
  125OSM   C12F13394   1.410   1.421   7.854  0.4857  0.4093 -0.1513
  125OSM   H12F13395   1.502   1.371   7.816  1.4909  0.5580  1.9463
  125OSM   H12G13396   1.326   1.383   7.791 -2.1836  1.1213  2.7034
  125OSM   C13F13397   1.378   1.379   7.998  0.4183  0.0481 -0.0400
  125OSM   H13F13398   1.275   1.409   8.024  0.4283 -0.2092  0.2922
  125OSM   H13G13399   1.449   1.428   8.068  0.9669  1.8815 -1.7660
  125OSM   C14F13400   1.388   1.226   8.008 -0.2870 -0.3615 -0.2545
  125OSM   H14F13401   1.494   1.206   7.980 -0.2730  0.8496 -1.1155
  125OSM   H14G13402   1.313   1.183   7.938  1.1612 -1.8079 -0.9898
  125OSM   C15F13403   1.383   1.172   8.146  0.2205  0.3944 -0.3783
  125OSM   H15F13404   1.380   1.063   8.127  1.2217  0.4616 -0.9841
  125OSM   H15G13405   1.297   1.217   8.200  0.9021 -0.1749  1.2463
  125OSM   C16F13406   1.506   1.202   8.232 -0.9840 -0.3875  0.1362
  125OSM   H16F13407   1.516   1.311   8.248 -2.4378 -0.1901 -0.1122
  125OSM   H16G13408   1.600   1.168   8.183  0.6083  1.5087  1.7219
  125OSM   C17F13409   1.505   1.129   8.367 -0.0920  0.4193  0.1294
  125OSM   H17F13410   1.514   1.021   8.343  0.6972  0.3789  0.5801
  125OSM   H17G13411   1.407   1.151   8.414 -0.6948  1.0217 -1.3463
  125OSM   C18F13412   1.619   1.161   8.458  0.3245  0.1640 -0.0668
  125OSM   H18F13413   1.612   1.102   8.552 -2.7554 -0.2212 -0.4328
  125OSM   H18G13414   1.617   1.272   8.467 -0.6677  0.2725 -1.2501
  125OSM   H18H13415   1.721   1.143   8.420  1.4734 -0.2418  2.9346
  126OSM      N13416   5.799   6.072   6.416  0.9273  0.1446 -0.2927
  126OSM    C1513417   5.753   6.195   6.486  0.3784  0.4493 -0.6051
  126OSM   H15A13418   5.697   6.165   6.573 -1.1025 -2.2866 -2.3583
  126OSM   H15B13419   5.685   6.246   6.420 -0.5432 -0.7226 -0.5853
  126OSM   H15C13420   5.834   6.264   6.508  1.7428 -1.1797 -0.3195
  126OSM    C1413421   5.674   6.004   6.360  0.0706  0.1787  0.6143
  126OSM   H14A13422   5.615   6.075   6.305  0.6926 -0.9078 -1.5385
  126OSM   H14B13423   5.619   5.965   6.444 -3.1352  1.4792 -0.7201
  126OSM   H14C13424   5.697   5.924   6.292  0.4791  2.1554 -1.7045
  126OSM    C1313425   5.887   6.114   6.303 -0.3954  0.3871  0.4441
  126OSM   H13A13426   5.869   6.218   6.279 -2.8365 -0.3878 -1.5019
  126OSM   H13B13427   5.863   6.056   6.215 -2.6595  3.0395 -0.8657
  126OSM   H13C13428   5.991   6.095   6.326 -0.3406 -0.2167 -0.2839
  126OSM    C1213429   5.874   5.981   6.512  0.3976 -0.3545  0.5765
  126OSM   H12A13430   5.808   5.936   6.584  0.0072 -2.9503 -1.2513
  126OSM   H12B13431   5.946   6.039   6.568 -1.8855  1.6508  1.5869
  126OSM    C1113432   5.946   5.854   6.463 -0.8417 -0.1959 -0.0690
  126OSM   H11A13433   6.014   5.815   6.542 -1.0151  1.1242  0.7608
  126OSM   H11B13434   6.010   5.869   6.374  0.1303  0.9903  0.7991
  126OSM      P13435   5.838   5.617   6.478  0.3372  0.3059 -0.0998
  126OSM    O1313436   5.720   5.557   6.412  0.6349 -0.2640  0.4713
  126OSM    O1413437   5.963   5.544   6.455 -0.0205 -0.1822 -0.1417
  126OSM    O1113438   5.821   5.629   6.630  0.1241 -0.7585 -0.7820
  126OSM    O1213439   5.845   5.765   6.429 -0.3475  0.0588 -0.6941
  126OSM    C1S13440   5.688   5.606   6.690  0.2108  0.0775  0.1307
  126OSM    H1S13441   5.651   5.502   6.693 -0.5594  0.3692  3.0954
  126OSM    H1T13442   5.608   5.649   6.625 -0.1890  0.6028  0.9625
  126OSM     NF13443   5.550   5.631   6.893 -0.0857  0.2992 -0.1094
  126OSM    HNF13444   5.488   5.708   6.883  1.8089  2.1628  1.6377
  126OSM    C2S13445   5.682   5.665   6.841 -0.2956 -0.1086  0.8236
  126OSM    H2S13446   5.755   5.607   6.900  0.4272 -0.9485 -0.8477
  126OSM    C3S13447   5.715   5.819   6.841 -0.1150  0.4169 -0.3086
  126OSM    H3S13448   5.642   5.865   6.771 -0.9625  0.6461  0.7030
  126OSM     O313449   5.849   5.853   6.801 -0.1717  0.3530  0.4618
  126OSM    HO313450   5.891   5.768   6.782  2.6824  1.4819  1.1527
  126OSM    C4S13451   5.678   5.885   6.968 -0.1054 -0.3138 -0.0724
  126OSM    H4S13452   5.571   5.911   6.977  0.0157 -0.5288  4.0860
  126OSM    C5S13453   5.757   5.934   7.067 -0.5520  1.2202  0.5354
  126OSM    H5S13454   5.866   5.925   7.052 -0.5082  3.3988 -0.8399
  126OSM    C6S13455   5.716   6.001   7.194  0.0560  0.7125 -0.3054
  126OSM    H6S13456   5.607   6.021   7.191 -0.7209 -2.7318  0.2022
  126OSM    H6T13457   5.772   6.096   7.209 -0.1471  0.6544  0.9643
  126OSM    C7S13458   5.723   5.904   7.309 -0.7205  0.0507  0.4988
  126OSM    H7S13459   5.827   5.865   7.306 -1.2707 -1.9303 -5.5415
  126OSM    H7T13460   5.653   5.819   7.295  1.2989 -1.4289 -1.0873
  126OSM    C8S13461   5.696   5.979   7.445 -0.1530  0.0352  0.8025
  126OSM    H8S13462   5.593   5.993   7.485  0.2974  1.8848  1.3965
  126OSM    H8T13463   5.731   6.077   7.405 -0.2094 -1.1304 -2.4501
  126OSM    C9S13464   5.764   5.912   7.566 -0.8748 -0.9081  0.3277
  126OSM    H9S13465   5.869   5.919   7.531 -0.9257  2.8918  0.5414
  126OSM    H9T13466   5.734   5.805   7.563  2.1109 -1.8211  0.3856
  126OSM   C10S13467   5.758   5.999   7.697  0.4019 -0.6677 -0.6047
  126OSM   H10S13468   5.778   6.104   7.665 -1.7632 -0.4110 -1.2632
  126OSM   H10T13469   5.843   5.967   7.761  0.5465 -0.7677 -0.8452
  126OSM   C11S13470   5.621   5.997   7.770  0.0671 -0.2676 -0.0031
  126OSM   H11S13471   5.582   5.897   7.798 -4.1005  1.4770  1.1888
  126OSM   H11T13472   5.550   6.037   7.695 -0.6148 -0.4694  0.5224
  126OSM   C12S13473   5.635   6.081   7.894 -0.0371 -0.3133 -0.2449
  126OSM   H12S13474   5.531   6.111   7.919  0.0390 -0.1783 -0.0853
  126OSM   H12T13475   5.681   6.180   7.869  1.3340 -0.3369  1.9077
  126OSM   C13S13476   5.714   6.019   8.007 -0.0112  0.2565  0.2311
  126OSM   H13S13477   5.822   6.014   7.982  0.4277  1.3764  1.7518
  126OSM   H13T13478   5.680   5.918   8.040  2.8554 -0.2674  1.9022
  126OSM   C14S13479   5.707   6.109   8.130 -0.7532 -0.3721  0.3770
  126OSM   H14S13480   5.748   6.205   8.091  0.2106 -0.6493  0.6697
  126OSM   H14T13481   5.781   6.067   8.201 -0.0309 -0.3052 -0.3166
  126OSM   C15S13482   5.567   6.127   8.189 -0.3398  0.3149 -0.3843
  126OSM   H15S13483   5.505   6.035   8.187 -0.3201  0.2860  0.1504
  126OSM   H15T13484   5.506   6.190   8.121 -1.0319  0.8549  0.6995
  126OSM   C16S13485   5.557   6.183   8.331  0.0478  0.4882 -0.2379
  126OSM   H16S13486   5.577   6.292   8.326 -0.6484  0.7072  1.1105
  126OSM   H16T13487   5.634   6.137   8.396 -0.9346  0.4892  0.9751
  126OSM   C17S13488   5.433   6.155   8.414 -0.7837 -0.0312  0.2272
  126OSM   H17S13489   5.453   6.192   8.517  1.1587  0.3762 -0.2509
  126OSM   H17T13490   5.421   6.044   8.416  2.1636 -0.5367 -2.5390
  126OSM   C18S13491   5.307   6.231   8.372 -0.7145  0.2462  0.2496
  126OSM   H18S13492   5.323   6.338   8.396 -1.5506  0.3635  0.3266
  126OSM   H18T13493   5.217   6.193   8.426 -0.0356 -0.0760  1.1754
  126OSM   H18U13494   5.284   6.213   8.265  0.0115  1.8921 -0.2219
  126OSM    C1F13495   5.509   5.512   6.920 -0.1182 -0.1507  0.9074
  126OSM     OF13496   5.574   5.415   6.887 -0.5859  0.3481  0.4471
  126OSM    C2F13497   5.389   5.489   6.999  0.7414  0.2622 -0.0944
  126OSM    H2F13498   5.302   5.451   6.942 -0.0810  1.2186  0.4913
  126OSM    H2G13499   5.378   5.590   7.045  3.3128 -0.6590  2.8964
  126OSM    C3F13500   5.408   5.375   7.108  0.3351  0.0384 -0.8539
  126OSM    H3F13501   5.459   5.283   7.071 -1.9681 -1.6137 -0.0838
  126OSM    H3G13502   5.306   5.347   7.142  1.5823 -1.0168  2.3660
  126OSM    C4F13503   5.497   5.413   7.225  1.0549  0.3908 -0.0001
  126OSM    H4F13504   5.594   5.459   7.195  1.7365 -1.2845 -0.5162
  126OSM    H4G13505   5.514   5.323   7.288  0.4569  0.2485 -0.0437
  126OSM    C5F13506   5.434   5.512   7.324 -0.0175 -0.7571  0.0595
  126OSM    H5F13507   5.416   5.603   7.264  1.4066 -0.8800 -0.5899
  126OSM    H5G13508   5.512   5.541   7.398  0.5525 -1.4236 -0.2696
  126OSM    C6F13509   5.302   5.470   7.398  0.6874 -0.2012 -1.2051
  126OSM    H6F13510   5.315   5.380   7.462  0.8633 -0.3492 -1.4443
  126OSM    H6G13511   5.238   5.453   7.309  0.5128  0.2080 -1.1600
  126OSM    C7F13512   5.229   5.577   7.480 -0.5311  0.1757 -0.6787
  126OSM    H7F13513   5.124   5.542   7.466  0.0069 -1.8671  0.0662
  126OSM    H7G13514   5.242   5.676   7.432 -0.2528  0.1533 -0.6491
  126OSM    C8F13515   5.262   5.585   7.628 -0.3386 -0.0827 -0.1326
  126OSM    H8F13516   5.251   5.485   7.675  1.7016 -1.0847 -1.6118
  126OSM    H8G13517   5.185   5.649   7.676 -0.6237 -1.5296  1.4066
  126OSM    C9F13518   5.393   5.650   7.660 -0.4085  1.4022  0.4482
  126OSM    H9F13519   5.426   5.722   7.584 -1.3515  0.4703 -0.8963
  126OSM   C10F13520   5.473   5.617   7.766  0.1902  0.3073 -0.2208
  126OSM   H10F13521   5.565   5.673   7.788 -1.1820  1.4640  3.4215
  126OSM   C11F13522   5.442   5.513   7.870 -0.0590  0.3261  0.1268
  126OSM   H11F13523   5.517   5.431   7.869 -1.0915 -0.7493  2.3929
  126OSM   H11G13524   5.346   5.462   7.849  0.4002 -0.0868 -1.0616
  126OSM   C12F13525   5.428   5.574   8.011  0.3493 -0.0860  0.6573
  126OSM   H12F13526   5.352   5.519   8.068 -2.8729  3.7352  0.4942
  126OSM   H12G13527   5.377   5.671   7.992  1.5108  0.6039  0.9577
  126OSM   C13F13528   5.558   5.579   8.093 -0.2212 -0.3334 -0.5723
  126OSM   H13F13529   5.642   5.616   8.029 -0.0536 -0.0201 -0.1717
  126OSM   H13G13530   5.599   5.485   8.135  0.4772  0.5509  0.8118
  126OSM   C14F13531   5.548   5.676   8.217 -0.0904 -0.0411  0.7276
  126OSM   H14F13532   5.464   5.658   8.287 -1.1860 -0.1429 -0.5702
  126OSM   H14G13533   5.524   5.768   8.159 -0.6046 -0.0359  0.9461
  126OSM   C15F13534   5.682   5.694   8.292 -0.1310  0.4083 -0.0284
  126OSM   H15F13535   5.749   5.752   8.226  0.1989 -0.6890 -0.6792
  126OSM   H15G13536   5.724   5.592   8.303 -0.4580  0.3721  1.1225
  126OSM   C16F13537   5.660   5.749   8.438  0.5254  0.2435  0.5227
  126OSM   H16F13538   5.566   5.807   8.448 -0.3830 -0.8346 -1.2464
  126OSM   H16G13539   5.752   5.811   8.430  0.0082  0.7596 -3.0278
  126OSM   C17F13540   5.659   5.633   8.548  0.2100 -0.5167  0.0343
  126OSM   H17F13541   5.724   5.551   8.513  1.2262  0.8409 -1.3861
  126OSM   H17G13542   5.553   5.602   8.559 -0.2263  0.1200 -1.9821
  126OSM   C18F13543   5.714   5.680   8.682 -0.0985  0.0124  0.2010
  126OSM   H18F13544   5.680   5.778   8.723 -1.0290 -0.2072 -0.0273
  126OSM   H18G13545   5.824   5.692   8.672  0.5578 -4.2510  0.5389
  126OSM   H18H13546   5.710   5.608   8.766  1.6208 -0.2937  0.0493
  127OSM      N13547   2.231   4.880   6.248 -0.3185 -0.1105  0.5559
  127OSM    C1513548   2.342   4.901   6.346 -0.3073 -0.1239  0.0416
  127OSM   H15A13549   2.303   4.926   6.444  2.2797  0.8279  0.9411
  127OSM   H15B13550   2.402   4.985   6.314  0.1090 -1.4039 -2.7985
  127OSM   H15C13551   2.401   4.811   6.356 -1.9223 -1.1024  1.1415
  127OSM    C1413552   2.121   4.978   6.278  0.1531  0.0824  0.2642
  127OSM   H14A13553   2.077   4.973   6.377  0.7251  1.1735  0.5896
  127OSM   H14B13554   2.037   4.957   6.213 -0.8733  0.4608  1.4324
  127OSM   H14C13555   2.161   5.077   6.269 -1.1305  0.5801 -0.1952
  127OSM    C1313556   2.282   4.901   6.110  0.0314  0.1690  0.2970
  127OSM   H13A13557   2.362   4.835   6.082  0.3821  1.1069 -1.0232
  127OSM   H13B13558   2.326   4.999   6.092 -0.4043  0.2038 -0.6260
  127OSM   H13C13559   2.209   4.889   6.032 -0.0562  0.8711  0.2581
  127OSM    C1213560   2.166   4.736   6.267  0.8032 -0.3580 -0.0202
  127OSM   H12A13561   2.145   4.716   6.371  0.0831 -2.1200 -0.4628
  127OSM   H12B13562   2.229   4.653   6.237 -1.4932 -2.5781  0.8610
  127OSM    C1113563   2.026   4.702   6.200  0.4167  0.0798 -0.3369
  127OSM   H11A13564   2.001   4.595   6.212 -1.1750  0.1966 -2.0874
  127OSM   H11B13565   2.029   4.713   6.089  0.8805  0.8531 -0.2559
  127OSM      P13566   1.760   4.737   6.247  0.2611 -0.0132 -0.2857
  127OSM    O1313567   1.674   4.837   6.321  0.1307  0.0976 -0.7474
  127OSM    O1413568   1.710   4.691   6.115  0.1242  0.1689 -0.0943
  127OSM    O1113569   1.775   4.600   6.334  0.6830  0.3236 -0.0182
  127OSM    O1213570   1.907   4.776   6.244  0.1194 -0.1053 -0.0295
  127OSM    C1S13571   1.825   4.603   6.470 -0.2813 -0.0684 -0.9459
  127OSM    H1S13572   1.878   4.698   6.494  0.8800 -0.7409 -0.7602
  127OSM    H1T13573   1.890   4.514   6.485 -1.4928 -0.7319  0.6695
  127OSM     NF13574   1.763   4.642   6.718 -0.0670  0.4568  0.2635
  127OSM    HNF13575   1.790   4.561   6.769 -1.1263 -0.9844 -1.3441
  127OSM    C2S13576   1.711   4.615   6.583  0.3635 -0.0721 -0.6709
  127OSM    H2S13577   1.654   4.703   6.548 -2.2281 -1.6890 -0.7373
  127OSM    C3S13578   1.619   4.490   6.574  0.4342 -0.3843  0.6326
  127OSM    H3S13579   1.681   4.401   6.600 -0.5973 -1.6165 -0.8830
  127OSM     O313580   1.562   4.471   6.441  0.0053 -0.4090  0.1751
  127OSM    HO313581   1.619   4.529   6.389 -0.3072 -0.1680  0.0993
  127OSM    C4S13582   1.510   4.518   6.674  0.1196  0.1702  0.9689
  127OSM    H4S13583   1.447   4.606   6.660 -0.6425 -0.3641  0.9706
  127OSM    C5S13584   1.485   4.429   6.772 -0.1642 -0.3991 -0.0474
  127OSM    H5S13585   1.546   4.337   6.776 -0.3031 -0.5666 -1.3049
  127OSM    C6S13586   1.389   4.441   6.886  0.0931 -0.6229 -0.0396
  127OSM    H6S13587   1.312   4.363   6.871 -0.0015 -0.8518  1.4868
  127OSM    H6T13588   1.344   4.542   6.883  0.5594 -0.4414 -1.5251
  127OSM    C7S13589   1.451   4.414   7.028  0.0241 -0.3613  0.0878
  127OSM    H7S13590   1.536   4.485   7.034  0.8085 -1.1881 -0.9085
  127OSM    H7T13591   1.506   4.317   7.028  1.8586  0.6191 -1.3280
  127OSM    C8S13592   1.347   4.436   7.135  0.8238  0.0986  0.0855
  127OSM    H8S13593   1.251   4.384   7.112  1.4603 -0.5971 -1.0923
  127OSM    H8T13594   1.314   4.542   7.135 -1.5195 -0.5670 -0.0574
  127OSM    C9S13595   1.392   4.393   7.276  0.3764  0.1848  0.4504
  127OSM    H9S13596   1.502   4.409   7.286  0.6494 -1.0473 -0.2520
  127OSM    H9T13597   1.378   4.283   7.282 -0.7815  0.3384  0.7083
  127OSM   C10S13598   1.329   4.470   7.393  1.0875 -0.0707 -0.1812
  127OSM   H10S13599   1.219   4.475   7.378  0.3671 -0.0666  3.8989
  127OSM   H10T13600   1.363   4.575   7.380  2.5850 -0.3148  1.4241
  127OSM   C11S13601   1.372   4.422   7.526 -0.2920 -0.8712 -0.5211
  127OSM   H11S13602   1.325   4.496   7.594  0.7324  0.4537 -1.2109
  127OSM   H11T13603   1.481   4.439   7.541 -1.0303  3.3429  1.5924
  127OSM   C12S13604   1.330   4.276   7.568  0.8215 -0.0797 -0.1784
  127OSM   H12S13605   1.344   4.207   7.482 -0.0635 -1.0843  0.4556
  127OSM   H12T13606   1.220   4.280   7.581  0.6368 -0.7164 -1.4309
  127OSM   C13S13607   1.391   4.214   7.691 -0.6231  0.4404 -0.1914
  127OSM   H13S13608   1.498   4.184   7.679 -0.5981 -0.3400  1.6145
  127OSM   H13T13609   1.350   4.112   7.706 -0.3697  0.3533 -0.0818
  127OSM   C14S13610   1.382   4.301   7.819 -0.5527  0.4687 -0.6651
  127OSM   H14S13611   1.278   4.324   7.850 -0.5733 -0.5887  0.1010
  127OSM   H14T13612   1.438   4.395   7.799  0.2790  0.9905  3.3358
  127OSM   C15S13613   1.446   4.237   7.944 -0.1264 -0.4557 -0.2273
  127OSM   H15S13614   1.430   4.302   8.033 -0.9068  1.2484 -1.5401
  127OSM   H15T13615   1.555   4.243   7.925 -0.2169  2.0928 -0.3693
  127OSM   C16S13616   1.411   4.092   7.982 -0.2724  0.6601 -0.0849
  127OSM   H16S13617   1.452   4.022   7.906 -0.5124 -1.3773  1.5980
  127OSM   H16T13618   1.301   4.077   7.994 -0.0971 -0.9866 -0.2394
  127OSM   C17S13619   1.466   4.042   8.113  0.2509 -0.5895 -0.3388
  127OSM   H17S13620   1.432   4.110   8.194  0.2506  0.9499 -1.5912
  127OSM   H17T13621   1.576   4.056   8.112  0.2695 -0.7726 -0.9161
  127OSM   C18S13622   1.430   3.900   8.153  0.4625  0.1805  0.4045
  127OSM   H18S13623   1.435   3.888   8.263 -1.5724 -1.5019  0.3785
  127OSM   H18T13624   1.483   3.824   8.091 -0.8409  0.8786 -1.6537
  127OSM   H18U13625   1.326   3.875   8.123 -0.0916 -0.1348  2.4606
  127OSM    C1F13626   1.824   4.754   6.743  0.3919 -0.2949 -0.4039
  127OSM     OF13627   1.815   4.851   6.666 -0.0981 -0.1753  0.0101
  127OSM    C2F13628   1.901   4.771   6.872  0.4152 -0.0818  0.7496
  127OSM    H2F13629   2.000   4.820   6.858 -0.3642  1.7435  1.3597
  127OSM    H2G13630   1.908   4.670   6.918 -0.7111  0.3046  1.8331
  127OSM    C3F13631   1.827   4.861   6.975  0.1629 -0.5359 -0.3970
  127OSM    H3F13632   1.727   4.827   7.010 -0.2679  2.5104  1.7710
  127OSM    H3G13633   1.807   4.962   6.934  0.6011 -0.0392  0.5702
  127OSM    C4F13634   1.915   4.886   7.096  0.2002  0.0257  0.4251
  127OSM    H4F13635   1.890   4.974   7.159  1.2002  0.3128  0.4354
  127OSM    H4G13636   2.014   4.921   7.061  1.8990 -0.5862  4.1229
  127OSM    C5F13637   1.935   4.763   7.186  0.5260 -0.0589  0.4298
  127OSM    H5F13638   1.971   4.675   7.129 -0.3674 -0.6743  0.8027
  127OSM    H5G13639   1.838   4.725   7.225  0.4262  1.0301  1.2944
  127OSM    C6F13640   2.028   4.790   7.306  0.8293 -0.1139 -0.0243
  127OSM    H6F13641   1.990   4.863   7.380  0.9568 -3.1093  3.2599
  127OSM    H6G13642   2.132   4.815   7.280  0.6510  0.1133 -0.5292
  127OSM    C7F13643   2.035   4.662   7.396 -0.1713  0.0507  0.5816
  127OSM    H7F13644   2.075   4.575   7.340  0.9053  0.5942  0.4828
  127OSM    H7G13645   1.928   4.631   7.404 -0.1190 -1.1176 -2.0607
  127OSM    C8F13646   2.105   4.683   7.526 -0.6452 -0.3129 -0.2971
  127OSM    H8F13647   2.051   4.751   7.595 -0.6468 -0.6977  0.0870
  127OSM    H8G13648   2.198   4.739   7.503  0.6948 -2.5017 -0.5386
  127OSM    C9F13649   2.148   4.552   7.596 -0.0501  0.2460  0.1231
  127OSM    H9F13650   2.151   4.462   7.533  2.1613  0.3361  0.0486
  127OSM   C10F13651   2.166   4.530   7.725  0.5383 -0.8528  0.6812
  127OSM   H10F13652   2.195   4.432   7.766  0.2879  0.3158  4.0109
  127OSM   C11F13653   2.144   4.628   7.840 -0.5622 -0.4435 -0.8555
  127OSM   H11F13654   2.110   4.724   7.796  0.3787  0.4845  0.3748
  127OSM   H11G13655   2.232   4.625   7.908 -3.1943 -1.4795  2.8262
  127OSM   C12F13656   2.026   4.567   7.928  0.2947 -0.3721 -0.6451
  127OSM   H12F13657   1.934   4.544   7.870  0.4995 -2.7142 -0.1576
  127OSM   H12G13658   1.995   4.657   7.985  0.7447  1.3453 -2.9674
  127OSM   C13F13659   2.063   4.443   8.020  0.1011 -0.0828  0.2301
  127OSM   H13F13660   2.151   4.476   8.079 -0.3357 -1.1376  1.4998
  127OSM   H13G13661   2.097   4.356   7.960 -0.8276  0.0119 -0.4566
  127OSM   C14F13662   1.955   4.394   8.116 -0.3741 -0.5334  0.0847
  127OSM   H14F13663   1.866   4.344   8.071 -3.8001  2.6060  2.7523
  127OSM   H14G13664   1.905   4.482   8.162 -2.2634 -2.2075  1.4073
  127OSM   C15F13665   2.005   4.305   8.234 -0.1503  0.4876 -0.0665
  127OSM   H15F13666   2.097   4.356   8.269  0.6843 -0.6436 -0.5451
  127OSM   H15G13667   2.029   4.201   8.201  0.9543  0.9164 -0.6869
  127OSM   C16F13668   1.899   4.300   8.344 -0.1434  0.2619  0.2249
  127OSM   H16F13669   1.842   4.394   8.360 -2.4789 -0.8522 -0.9498
  127OSM   H16G13670   1.937   4.260   8.441  0.7887  3.4949  1.3152
  127OSM   C17F13671   1.783   4.203   8.309 -0.2868 -0.4520 -0.2103
  127OSM   H17F13672   1.821   4.105   8.273  1.9030  0.0025  0.6949
  127OSM   H17G13673   1.729   4.243   8.221  0.2138  1.0400  0.1362
  127OSM   C18F13674   1.688   4.173   8.427  0.0813  0.1809 -0.3975
  127OSM   H18F13675   1.652   4.068   8.421  0.1441 -0.0076  1.7536
  127OSM   H18G13676   1.602   4.245   8.433 -1.5795 -1.6667 -1.0271
  127OSM   H18H13677   1.743   4.170   8.523  1.6343 -0.8716 -1.2929
  128OSM      N13678   2.567   6.572   6.274  0.7403 -0.2238  0.3933
  128OSM    C1513679   2.708   6.541   6.255  0.0417  0.1671 -0.0558
  128OSM   H15A13680   2.756   6.633   6.224  0.6238 -0.4895 -1.1539
  128OSM   H15B13681   2.729   6.457   6.191 -3.7643 -0.2702 -0.9831
  128OSM   H15C13682   2.756   6.516   6.348  0.3702  1.0287  0.0223
  128OSM    C1413683   2.496   6.451   6.302  0.4689  0.0554  0.5851
  128OSM   H14A13684   2.530   6.389   6.383 -0.5408 -0.3827  0.6819
  128OSM   H14B13685   2.494   6.393   6.211  0.1826 -0.3682  0.8614
  128OSM   H14C13686   2.396   6.484   6.325  0.3167 -1.3782  2.1345
  128OSM    C1313687   2.568   6.663   6.394 -0.2189 -0.6273 -0.5145
  128OSM   H13A13688   2.473   6.712   6.409  0.7856  1.2706 -0.0342
  128OSM   H13B13689   2.639   6.744   6.393 -1.2273  0.3826  1.8029
  128OSM   H13C13690   2.593   6.612   6.486  1.6340  0.6142 -0.2902
  128OSM    C1213691   2.503   6.644   6.154  0.3802  0.2210 -0.3622
  128OSM   H12A13692   2.504   6.584   6.064 -0.8209 -0.2856 -0.0557
  128OSM   H12B13693   2.565   6.728   6.128 -1.4907  1.5483 -0.7467
  128OSM    C1113694   2.357   6.699   6.167 -0.4085 -0.8338  0.3384
  128OSM   H11A13695   2.296   6.607   6.177 -2.4849  0.4941  0.5863
  128OSM   H11B13696   2.335   6.760   6.077 -2.0173 -0.6429  0.8261
  128OSM      P13697   2.189   6.844   6.294  0.0047 -0.1114 -0.3160
  128OSM    O1313698   2.167   6.953   6.196  0.5471  0.0539  0.0309
  128OSM    O1413699   2.101   6.727   6.294 -0.7232 -0.6451 -0.0214
  128OSM    O1113700   2.183   6.920   6.437 -0.0106 -0.1039 -0.4803
  128OSM    O1213701   2.342   6.796   6.283 -0.4358 -0.1259  0.3767
  128OSM    C1S13702   2.283   6.998   6.491  0.2758  0.4859 -0.7087
  128OSM    H1S13703   2.267   7.103   6.458  0.5925  1.3033  1.5659
  128OSM    H1T13704   2.386   6.968   6.461  1.2553  2.3156  0.6090
  128OSM     NF13705   2.365   7.104   6.708  0.6677  0.1005  0.4648
  128OSM    HNF13706   2.459   7.086   6.734 -0.1867 -2.0352  2.4450
  128OSM    C2S13707   2.290   6.996   6.652 -0.8862 -0.2641 -0.1233
  128OSM    H2S13708   2.186   7.023   6.680 -0.4913  0.7560  0.4174
  128OSM    C3S13709   2.328   6.854   6.705  0.0956  0.3342 -0.0010
  128OSM    H3S13710   2.429   6.830   6.664  0.9817 -0.4262  2.4410
  128OSM     O313711   2.247   6.752   6.656  0.0483  0.3196  0.2109
  128OSM    HO313712   2.208   6.791   6.577  0.9810  0.2319 -0.3070
  128OSM    C4S13713   2.332   6.861   6.852  0.1430 -0.4952  0.3462
  128OSM    H4S13714   2.409   6.931   6.888  2.5416 -0.6355 -3.8934
  128OSM    C5S13715   2.233   6.829   6.938  0.1361 -0.2919  0.1304
  128OSM    H5S13716   2.145   6.773   6.900 -0.2303 -1.5071  2.5330
  128OSM    C6S13717   2.235   6.841   7.080 -0.5441 -0.4741 -0.4537
  128OSM    H6S13718   2.226   6.739   7.123  1.0457  0.1376  1.4622
  128OSM    H6T13719   2.149   6.907   7.102  1.2778  4.1135 -5.1407
  128OSM    C7S13720   2.358   6.909   7.152 -0.2786  0.0182  0.8194
  128OSM    H7S13721   2.372   7.009   7.105  1.5665 -1.4516 -2.0812
  128OSM    H7T13722   2.453   6.855   7.133 -0.7676  0.1710 -2.8415
  128OSM    C8S13723   2.334   6.927   7.296  0.0951  0.5789 -0.2118
  128OSM    H8S13724   2.298   6.827   7.328 -0.3276  1.1516  1.1910
  128OSM    H8T13725   2.249   6.997   7.311  0.0902  0.1538  2.2865
  128OSM    C9S13726   2.467   6.962   7.372 -0.0491 -0.2126 -0.5840
  128OSM    H9S13727   2.507   7.065   7.357  0.2171 -0.4928 -1.8903
  128OSM    H9T13728   2.547   6.894   7.337 -1.5548 -0.3455 -4.1940
  128OSM   C10S13729   2.439   6.954   7.522  1.1362  0.4055 -0.1802
  128OSM   H10S13730   2.431   6.845   7.539 -2.0823  0.4994 -0.3609
  128OSM   H10T13731   2.342   7.004   7.543  0.5639 -0.9837  0.6224
  128OSM   C11S13732   2.545   7.022   7.609  0.5482  0.3867 -0.5152
  128OSM   H11S13733   2.530   6.983   7.712  2.2647  0.7074 -0.1111
  128OSM   H11T13734   2.526   7.131   7.611 -3.6385 -0.1858  1.5154
  128OSM   C12S13735   2.691   6.986   7.571 -0.3366 -0.1651  0.0670
  128OSM   H12S13736   2.705   7.034   7.472  1.8431  0.3784  0.6003
  128OSM   H12T13737   2.708   6.879   7.549  1.5422  0.0111  0.5579
  128OSM   C13S13738   2.780   7.040   7.680 -0.2086 -0.6203  0.2698
  128OSM   H13S13739   2.760   7.146   7.707  0.0752  0.0326 -1.9176
  128OSM   H13T13740   2.881   7.036   7.635  0.4956  1.9916  1.4405
  128OSM   C14S13741   2.782   6.962   7.812 -0.1152  0.1246 -0.7297
  128OSM   H14S13742   2.815   6.858   7.794  1.6727  0.0448  2.3065
  128OSM   H14T13743   2.685   6.972   7.865  1.5378 -0.3808  2.5933
  128OSM   C15S13744   2.890   7.026   7.908 -0.3399 -0.4300  0.4641
  128OSM   H15S13745   2.854   7.127   7.938 -0.1828 -0.0789 -0.5073
  128OSM   H15T13746   2.993   7.042   7.869 -0.1702 -1.6150  0.4108
  128OSM   C16S13747   2.905   6.951   8.041 -0.6004  0.8217 -0.8626
  128OSM   H16S13748   2.989   6.993   8.101 -0.3166 -1.3554  0.3558
  128OSM   H16T13749   2.929   6.843   8.031 -1.9108  0.2381  1.4812
  128OSM   C17S13750   2.781   6.957   8.131  0.5122  0.7137  0.0775
  128OSM   H17S13751   2.711   6.873   8.112 -1.5548  1.8023  2.3580
  128OSM   H17T13752   2.721   7.048   8.109  1.6133  0.8507 -2.7827
  128OSM   C18S13753   2.811   6.948   8.277  0.0573 -0.3779 -0.5168
  128OSM   H18S13754   2.868   6.856   8.302 -1.5720 -0.7111  2.4571
  128OSM   H18T13755   2.713   6.944   8.328 -0.5696  1.4792 -1.4838
  128OSM   H18U13756   2.874   7.036   8.301  1.4916 -1.4192 -0.3638
  128OSM    C1F13757   2.332   7.237   6.700  0.0352  0.3957 -0.2325
  128OSM     OF13758   2.231   7.277   6.644  0.2231  0.2936  0.4201
  128OSM    C2F13759   2.423   7.329   6.767  0.1682 -0.2284  0.5034
  128OSM    H2F13760   2.528   7.293   6.767 -0.3983 -2.1853 -2.1742
  128OSM    H2G13761   2.381   7.353   6.867 -0.6743 -0.2039  0.1554
  128OSM    C3F13762   2.422   7.463   6.697 -0.0867 -0.1199  0.5874
  128OSM    H3F13763   2.321   7.503   6.672  0.4959 -0.1385 -2.2132
  128OSM    H3G13764   2.478   7.455   6.601 -1.0791 -1.7767  0.1030
  128OSM    C4F13765   2.500   7.569   6.768 -0.3501  0.1181 -0.3578
  128OSM    H4F13766   2.513   7.655   6.699 -3.8399  0.9951 -0.1351
  128OSM    H4G13767   2.589   7.516   6.808 -0.6450  0.0857  0.2670
  128OSM    C5F13768   2.412   7.609   6.892 -0.1328  0.0035  0.3927
  128OSM    H5F13769   2.429   7.530   6.968  1.2745  0.0502  0.1653
  128OSM    H5G13770   2.305   7.614   6.866 -1.0747 -0.9843  3.5474
  128OSM    C6F13771   2.451   7.742   6.950  0.2718 -0.0682  0.2831
  128OSM    H6F13772   2.460   7.809   6.862 -0.6674 -0.1725  0.0923
  128OSM    H6G13773   2.550   7.734   6.999  0.2798 -3.3250 -0.0573
  128OSM    C7F13774   2.345   7.818   7.039 -0.0825  0.6181  0.2270
  128OSM    H7F13775   2.253   7.837   6.980 -0.2453 -0.1235  0.2310
  128OSM    H7G13776   2.387   7.919   7.055  0.8061 -0.0912  2.8543
  128OSM    C8F13777   2.314   7.748   7.163  0.1405 -0.8333 -0.0811
  128OSM    H8F13778   2.263   7.651   7.147 -2.8705  0.1425  2.5467
  128OSM    H8G13779   2.231   7.799   7.217  0.2537 -0.5942 -0.1301
  128OSM    C9F13780   2.426   7.731   7.263  0.2842 -0.3959  0.3923
  128OSM    H9F13781   2.511   7.681   7.214 -0.2685  0.0778 -1.1290
  128OSM   C10F13782   2.424   7.760   7.395  0.4167  0.1318  0.3616
  128OSM   H10F13783   2.518   7.734   7.445  0.3887 -0.8477 -0.0790
  128OSM   C11F13784   2.319   7.837   7.478  0.0309 -0.7263  0.1146
  128OSM   H11F13785   2.283   7.773   7.561  2.8882 -0.6010  1.5750
  128OSM   H11G13786   2.239   7.872   7.409  2.2185 -0.1606 -2.2863
  128OSM   C12F13787   2.381   7.956   7.548  0.4709  0.0565  0.1267
  128OSM   H12F13788   2.296   8.015   7.588 -2.1189 -2.1385 -1.7824
  128OSM   H12G13789   2.441   8.015   7.476  1.8147 -2.0905 -0.6071
  128OSM   C13F13790   2.470   7.907   7.661  0.1992 -0.1377  0.1849
  128OSM   H13F13791   2.532   7.823   7.623  1.1680  1.2601 -1.5147
  128OSM   H13G13792   2.413   7.863   7.745 -2.2202 -0.4412 -1.5161
  128OSM   C14F13793   2.566   8.021   7.698  1.0581  0.2542 -0.5162
  128OSM   H14F13794   2.508   8.099   7.751 -0.0403 -0.0086 -1.3074
  128OSM   H14G13795   2.621   8.062   7.610 -1.3066 -1.0122 -2.7006
  128OSM   C15F13796   2.684   7.990   7.791 -0.5266  0.6714  0.3264
  128OSM   H15F13797   2.768   7.932   7.747 -1.2441 -0.4268  0.3899
  128OSM   H15G13798   2.650   7.940   7.884 -2.0942 -0.3387 -0.7538
  128OSM   C16F13799   2.764   8.119   7.844 -0.4510  0.5332  0.0219
  128OSM   H16F13800   2.845   8.087   7.913 -1.0184 -0.6831  0.1405
  128OSM   H16G13801   2.690   8.181   7.898 -1.6949 -0.1952 -0.8155
  128OSM   C17F13802   2.829   8.209   7.734 -0.4853  0.5262  0.1367
  128OSM   H17F13803   2.750   8.247   7.665 -0.9886 -1.3412 -0.3561
  128OSM   H17G13804   2.903   8.147   7.679  0.4766  0.9840  0.8818
  128OSM   C18F13805   2.902   8.325   7.792 -0.0728  0.0435 -0.5564
  128OSM   H18F13806   2.847   8.372   7.877 -1.4560 -1.6603 -0.4544
  128OSM   H18G13807   2.936   8.397   7.715  0.4130 -1.3366 -1.6740
  128OSM   H18H13808   2.993   8.282   7.837 -1.1751 -0.0003  1.7778
  129OSM      N13809   0.757   5.964   6.324  0.1362 -0.5456  0.4026
  129OSM    C1513810   0.717   6.071   6.229 -0.2557 -0.0597  0.4516
  129OSM   H15A13811   0.632   6.041   6.170 -0.3337  1.0789 -0.0420
  129OSM   H15B13812   0.797   6.090   6.159  0.5253  0.4039  1.4354
  129OSM   H15C13813   0.689   6.166   6.271 -0.4596 -0.0614  0.3189
  129OSM    C1413814   0.812   5.854   6.244 -0.3870  0.8955  0.1935
  129OSM   H14A13815   0.732   5.822   6.178  0.2164 -1.2972  0.4607
  129OSM   H14B13816   0.822   5.773   6.315 -1.6654  0.6436  0.1089
  129OSM   H14C13817   0.899   5.881   6.187 -0.1403  0.1050  0.1873
  129OSM    C1313818   0.873   6.020   6.417 -0.2788 -0.4977  0.8930
  129OSM   H13A13819   0.828   6.085   6.490 -1.9697 -0.7373  0.1234
  129OSM   H13B13820   0.951   6.069   6.361  0.1814 -0.0979  1.8729
  129OSM   H13C13821   0.910   5.936   6.473  0.1821 -0.1530  1.1109
  129OSM    C1213822   0.648   5.913   6.416  0.1542 -0.0745 -0.5541
  129OSM   H12A13823   0.567   5.873   6.356 -2.5915  0.8997  2.2012
  129OSM   H12B13824   0.594   5.986   6.476 -0.9616 -2.7795  2.0285
  129OSM    C1113825   0.678   5.797   6.508 -0.1395 -0.3377 -0.0250
  129OSM   H11A13826   0.580   5.789   6.560 -1.8359  0.5532 -2.8792
  129OSM   H11B13827   0.763   5.822   6.575  1.8336 -1.5314 -1.9345
  129OSM      P13828   0.625   5.556   6.451  0.2939  0.1861 -0.3602
  129OSM    O1313829   0.498   5.601   6.393  0.0553  0.1010  0.6210
  129OSM    O1413830   0.672   5.429   6.393 -0.0751  0.2047 -0.1164
  129OSM    O1113831   0.598   5.546   6.605  0.1435  0.8776  0.1854
  129OSM    O1213832   0.720   5.679   6.446 -0.2722 -0.6399  0.0572
  129OSM    C1S13833   0.675   5.460   6.693 -0.5211 -0.8833 -0.0408
  129OSM    H1S13834   0.779   5.448   6.657 -0.4895  2.1684 -1.2692
  129OSM    H1T13835   0.638   5.356   6.680  1.6071 -1.4745 -2.0046
  129OSM     NF13836   0.718   5.382   6.932  0.5869 -0.6969  0.2858
  129OSM    HNF13837   0.648   5.329   6.979  0.3905 -0.4263  0.3032
  129OSM    C2S13838   0.675   5.495   6.844 -0.2558 -0.1022 -0.3009
  129OSM    H2S13839   0.745   5.580   6.858 -2.7740  2.0312  0.1165
  129OSM    C3S13840   0.535   5.554   6.879 -0.5423  0.1912 -0.1326
  129OSM    H3S13841   0.461   5.476   6.854  1.3255 -1.0960 -2.0004
  129OSM     O313842   0.498   5.669   6.803 -0.1749  0.4125 -0.1414
  129OSM    HO313843   0.555   5.658   6.726 -2.0767 -2.3131 -1.3360
  129OSM    C4S13844   0.526   5.582   7.023 -0.8530 -0.2018  0.0261
  129OSM    H4S13845   0.495   5.498   7.087  0.6094 -1.3509 -0.7106
  129OSM    C5S13846   0.547   5.707   7.084 -0.4172 -0.6441 -0.0551
  129OSM    H5S13847   0.570   5.789   7.015 -2.8590  1.0138  0.9596
  129OSM    C6S13848   0.544   5.730   7.227 -0.1539 -0.7803  0.3953
  129OSM    H6S13849   0.458   5.795   7.256 -2.1954 -3.3805  0.5591
  129OSM    H6T13850   0.637   5.784   7.254  0.2846 -0.9449 -0.7246
  129OSM    C7S13851   0.546   5.611   7.335  0.6200  0.3789  0.4198
  129OSM    H7S13852   0.639   5.552   7.324 -0.1695 -0.7884 -0.3514
  129OSM    H7T13853   0.452   5.552   7.326  0.3124  1.0329 -0.8882
  129OSM    C8S13854   0.549   5.660   7.479  0.9075 -0.5142 -0.4379
  129OSM    H8S13855   0.460   5.709   7.525  2.4656  1.4786  0.6237
  129OSM    H8T13856   0.623   5.743   7.477  0.0819  0.3193  1.2812
  129OSM    C9S13857   0.594   5.555   7.580  0.2188  0.2609  0.4323
  129OSM    H9S13858   0.693   5.511   7.558  0.3406 -0.1785  1.7528
  129OSM    H9T13859   0.523   5.470   7.587  3.0217 -2.1861  1.2987
  129OSM   C10S13860   0.595   5.610   7.717 -0.4691 -1.1012 -0.8626
  129OSM   H10S13861   0.499   5.661   7.740 -0.3067  0.6542 -3.6004
  129OSM   H10T13862   0.678   5.685   7.720 -1.0735 -0.4427  1.1790
  129OSM   C11S13863   0.645   5.504   7.811  0.9512 -0.1267 -0.0440
  129OSM   H11S13864   0.753   5.480   7.805  1.1059  0.5512  0.0519
  129OSM   H11T13865   0.581   5.414   7.796  0.4144  0.2489 -0.0565
  129OSM   C12S13866   0.645   5.543   7.960  0.4428  0.3673  0.2284
  129OSM   H12S13867   0.645   5.451   8.023 -1.9897  0.4984  0.5304
  129OSM   H12T13868   0.543   5.586   7.974  0.1520 -0.2318 -0.0189
  129OSM   C13S13869   0.760   5.637   7.988  0.4402 -0.3573  0.0116
  129OSM   H13S13870   0.742   5.729   7.928 -0.5195 -0.0022  0.8212
  129OSM   H13T13871   0.856   5.588   7.958  0.0638 -1.6602  0.8712
  129OSM   C14S13872   0.763   5.680   8.129 -0.2872 -1.0409  0.7741
  129OSM   H14S13873   0.667   5.732   8.143  1.1038  2.7885 -2.2863
  129OSM   H14T13874   0.843   5.756   8.141 -1.8227  1.1141 -1.7300
  129OSM   C15S13875   0.787   5.567   8.229  0.4377  0.2106 -0.8801
  129OSM   H15S13876   0.882   5.512   8.216 -0.5749 -1.5018 -1.4625
  129OSM   H15T13877   0.704   5.494   8.214  2.4247 -1.9614 -1.9125
  129OSM   C16S13878   0.774   5.616   8.376 -0.2284 -0.5902  0.2677
  129OSM   H16S13879   0.675   5.660   8.400 -1.4586 -3.5839  1.1662
  129OSM   H16T13880   0.843   5.703   8.376  1.4772 -1.8624 -1.6719
  129OSM   C17S13881   0.807   5.506   8.470 -0.9563 -0.0061  0.1480
  129OSM   H17S13882   0.907   5.469   8.436  0.5822  2.0301  2.1336
  129OSM   H17T13883   0.730   5.430   8.448 -1.6417  0.4782  0.8421
  129OSM   C18S13884   0.816   5.549   8.614 -0.5143  0.9017  0.0975
  129OSM   H18S13885   0.713   5.587   8.631 -0.0894  2.5000 -0.7325
  129OSM   H18T13886   0.887   5.632   8.635 -0.4005  0.8388 -0.0321
  129OSM   H18U13887   0.827   5.459   8.678 -1.1919  0.0851 -0.8947
  129OSM    C1F13888   0.832   5.317   6.907  0.6716  0.6905 -0.6968
  129OSM     OF13889   0.926   5.377   6.863 -0.5107 -0.1945  0.0865
  129OSM    C2F13890   0.837   5.172   6.940  0.2761 -0.1890 -0.5873
  129OSM    H2F13891   0.944   5.150   6.960  0.2662  0.5028  0.2580
  129OSM    H2G13892   0.802   5.099   6.863  0.4726 -1.7125  0.7016
  129OSM    C3F13893   0.752   5.135   7.069 -0.0427  0.3720 -1.0425
  129OSM    H3F13894   0.776   5.027   7.080  0.4162  0.5436 -0.2562
  129OSM    H3G13895   0.644   5.151   7.049  0.3649  2.8737 -1.5399
  129OSM    C4F13896   0.788   5.210   7.198 -0.4024 -0.7622 -0.3698
  129OSM    H4F13897   0.753   5.316   7.196 -1.2085 -1.0098  0.1514
  129OSM    H4G13898   0.899   5.214   7.206 -0.1339 -2.0804 -2.7041
  129OSM    C5F13899   0.728   5.147   7.321  0.0034 -0.4201 -0.5208
  129OSM    H5F13900   0.763   5.041   7.320  1.9366  0.1799 -1.1764
  129OSM    H5G13901   0.619   5.134   7.311 -0.2072 -1.5061  2.3815
  129OSM    C6F13902   0.763   5.230   7.451  0.0543  0.0239 -0.7048
  129OSM    H6F13903   0.687   5.308   7.468 -2.5652 -2.8232  2.0722
  129OSM    H6G13904   0.862   5.274   7.425 -0.7316  0.8347 -2.4562
  129OSM    C7F13905   0.760   5.131   7.575  0.1942 -0.2246  0.2765
  129OSM    H7F13906   0.736   5.028   7.540 -2.3010  0.8830 -1.5389
  129OSM    H7G13907   0.686   5.167   7.649  0.2885 -2.1185  1.3486
  129OSM    C8F13908   0.897   5.150   7.647  0.1213  0.4150  0.0979
  129OSM    H8F13909   0.886   5.134   7.756 -0.8141  0.2685 -0.0140
  129OSM    H8G13910   0.916   5.259   7.639 -1.3346  0.6515 -0.4084
  129OSM    C9F13911   1.005   5.068   7.594 -0.4097 -0.6237  0.1721
  129OSM    H9F13912   1.040   5.087   7.491  2.0700 -1.8081  0.7251
  129OSM   C10F13913   1.063   4.963   7.647  0.7577 -0.1540  0.3998
  129OSM   H10F13914   1.146   4.913   7.594  2.0135  2.3626 -0.1666
  129OSM   C11F13915   1.038   4.902   7.781  0.5063 -0.5572 -0.2648
  129OSM   H11F13916   1.041   4.792   7.771 -2.4813 -0.9174  1.5061
  129OSM   H11G13917   0.933   4.921   7.814  0.5493  0.7004 -0.8084
  129OSM   C12F13918   1.149   4.927   7.890  0.6422  0.0326 -0.6286
  129OSM   H12F13919   1.246   4.883   7.859 -0.5714 -1.8793 -1.9635
  129OSM   H12G13920   1.101   4.893   7.985 -1.5465  1.0039 -1.3179
  129OSM   C13F13921   1.178   5.077   7.919 -0.7240  0.0044 -0.3791
  129OSM   H13F13922   1.082   5.129   7.939 -0.8791 -0.5277  0.2879
  129OSM   H13G13923   1.224   5.108   7.823  0.8130 -0.5553  0.1542
  129OSM   C14F13924   1.275   5.095   8.037  0.7183  0.1165 -0.0970
  129OSM   H14F13925   1.367   5.154   8.017  0.1458  0.7145 -1.0668
  129OSM   H14G13926   1.320   4.998   8.063  3.7205  1.3976 -0.1231
  129OSM   C15F13927   1.196   5.151   8.164 -0.2162 -0.1859  0.2931
  129OSM   H15F13928   1.101   5.093   8.170 -0.4134 -0.1596 -1.8405
  129OSM   H15G13929   1.168   5.258   8.154 -0.2757 -0.1213  1.0940
  129OSM   C16F13930   1.259   5.120   8.295  0.2912  0.4038  0.0316
  129OSM   H16F13931   1.360   5.165   8.304  0.4148  0.0698  0.3603
  129OSM   H16G13932   1.270   5.009   8.292 -0.3014  0.1730  3.3881
  129OSM   C17F13933   1.172   5.155   8.419  0.0375  0.3764  1.0487
  129OSM   H17F13934   1.208   5.092   8.503  0.4712 -1.0283 -0.1556
  129OSM   H17G13935   1.066   5.127   8.400  0.2175  0.3242  0.0725
  129OSM   C18F13936   1.176   5.309   8.441  0.1145 -0.3447 -0.0435
  129OSM   H18F13937   1.102   5.339   8.519 -0.6289  2.0777 -1.5819
  129OSM   H18G13938   1.149   5.372   8.354  3.0881  1.5098  0.1894
  129OSM   H18H13939   1.282   5.333   8.464  0.0788 -0.2973  0.0716
  130OSM      N13940   2.412   0.398   5.965  0.0598  0.4652 -0.6139
  130OSM    C1513941   2.362   0.526   6.020  0.5483  0.1973 -0.8599
  130OSM   H15A13942   2.426   0.558   6.102 -0.5119  1.5180 -0.5098
  130OSM   H15B13943   2.258   0.519   6.048  0.8156  0.0563  0.1494
  130OSM   H15C13944   2.356   0.612   5.955 -1.5990 -0.5557 -1.7124
  130OSM    C1413945   2.322   0.348   5.855  0.6837 -0.2926  0.1994
  130OSM   H14A13946   2.223   0.344   5.897  2.2728  1.2516  4.5839
  130OSM   H14B13947   2.351   0.246   5.834  0.6971  0.0844 -1.9058
  130OSM   H14C13948   2.335   0.406   5.764  3.6727  1.9128  1.8709
  130OSM    C1313949   2.547   0.419   5.908  0.0589  0.4987  0.9260
  130OSM   H13A13950   2.574   0.330   5.853  0.3871  1.0711  0.1454
  130OSM   H13B13951   2.625   0.431   5.983  0.5050  0.2573  0.5064
  130OSM   H13C13952   2.567   0.507   5.850 -0.0776  1.2946  2.0583
  130OSM    C1213953   2.425   0.297   6.073  0.2449  0.0942  0.1435
  130OSM   H12A13954   2.467   0.200   6.052  1.1801  0.1061  1.7830
  130OSM   H12B13955   2.324   0.265   6.099  0.3118  0.8986  1.5159
  130OSM    C1113956   2.496   0.332   6.207 -0.5898 -0.0438  0.7849
  130OSM   H11A13957   2.473   0.253   6.282  1.3655  2.3046  4.1596
  130OSM   H11B13958   2.444   0.420   6.250 -1.1260  0.6508 -1.1977
  130OSM      P13959   2.723   0.216   6.178  0.0601 -0.1761 -0.1905
  130OSM    O1313960   2.652   0.116   6.094 -0.0546 -0.2135 -0.0797
  130OSM    O1413961   2.860   0.250   6.129  0.3337 -0.2459 -0.3583
  130OSM    O1113962   2.724   0.163   6.320  0.1841  0.0493 -0.0090
  130OSM    O1213963   2.639   0.347   6.185 -0.0782  0.0944  0.3139
  130OSM    C1S13964   2.743   0.242   6.439  0.1832 -0.0597 -0.7436
  130OSM    H1S13965   2.642   0.269   6.475  0.5950  0.0208  0.4128
  130OSM    H1T13966   2.807   0.329   6.414  3.9715 -2.9177 -2.1157
  130OSM     NF13967   2.840   0.232   6.677  0.0659 -0.3127 -0.1355
  130OSM    HNF13968   2.932   0.256   6.704 -0.0263 -1.9154  1.8642
  130OSM    C2S13969   2.822   0.164   6.550  0.3765 -0.1415  0.0390
  130OSM    H2S13970   2.762   0.073   6.572 -1.1396  0.2582 -2.0705
  130OSM    C3S13971   2.964   0.121   6.499  0.6969 -0.3861  0.0936
  130OSM    H3S13972   3.025   0.213   6.487  1.0782 -0.2006  2.7863
  130OSM     O313973   2.956   0.054   6.378 -0.5036  0.4609  0.5063
  130OSM    HO313974   2.868   0.074   6.346 -0.5865 -0.5393  0.0649
  130OSM    C4S13975   3.041   0.040   6.603 -0.1045  1.4308  0.4227
  130OSM    H4S13976   2.994  -0.058   6.616  4.0064 -0.6755  0.8405
  130OSM    C5S13977   3.151   0.075   6.678  0.2742 -0.3485  0.7419
  130OSM    H5S13978   3.190   0.178   6.669 -1.8219  0.5224  1.1705
  130OSM    C6S13979   3.215  -0.018   6.772  0.9210  0.0909 -0.7272
  130OSM    H6S13980   3.324  -0.035   6.759  1.1794  1.4414 -0.4327
  130OSM    H6T13981   3.167  -0.118   6.760  0.1868  0.3812 -0.2861
  130OSM    C7S13982   3.189   0.049   6.911 -0.1358  0.5361  0.2609
  130OSM    H7S13983   3.079   0.057   6.925  0.0810  1.4505  1.6217
  130OSM    H7T13984   3.228   0.153   6.916  0.1757  0.4498 -0.2953
  130OSM    C8S13985   3.244  -0.028   7.034  0.5313 -0.1139  0.4100
  130OSM    H8S13986   3.355  -0.024   7.036  0.5512  0.5019  3.7571
  130OSM    H8T13987   3.227  -0.136   7.017  1.8634 -0.6782  2.3007
  130OSM    C9S13988   3.192   0.025   7.169 -0.6915 -0.2582 -0.3947
  130OSM    H9S13989   3.082   0.017   7.155 -0.7530 -0.9817  0.4047
  130OSM    H9T13990   3.214   0.134   7.176 -3.1512  0.4169 -1.8423
  130OSM   C10S13991   3.234  -0.043   7.301  0.6162  0.0953 -0.3862
  130OSM   H10S13992   3.345  -0.040   7.295  0.6270 -1.4517 -2.1691
  130OSM   H10T13993   3.204  -0.148   7.279 -0.1024  0.3025 -0.4394
  130OSM   C11S13994   3.199   0.009   7.440  0.2976 -0.2243 -0.4067
  130OSM   H11S13995   3.090   0.002   7.464  0.7004  1.7084  2.4991
  130OSM   H11T13996   3.230   0.115   7.452  0.6785 -0.2371 -1.2207
  130OSM   C12S13997   3.266  -0.066   7.554 -0.3669 -0.5669  0.3776
  130OSM   H12S13998   3.376  -0.056   7.540  0.1103 -2.1508  2.5010
  130OSM   H12T13999   3.237  -0.172   7.564 -2.6258 -0.2079 -1.5338
  130OSM   C13S14000   3.245   0.014   7.683  0.0632 -0.5160 -0.1894
  130OSM   H13S14001   3.140   0.027   7.718  0.0325  0.1035 -0.5127
  130OSM   H13T14002   3.288   0.113   7.657 -0.2993 -0.4334 -0.4859
  130OSM   C14S14003   3.324  -0.059   7.785 -0.6341 -0.4486 -0.4064
  130OSM   H14S14004   3.432  -0.044   7.762 -0.9322 -0.7956 -2.1723
  130OSM   H14T14005   3.294  -0.166   7.783  0.5340 -0.8182  0.6731
  130OSM   C15S14006   3.297  -0.002   7.926 -0.3882  0.7523  0.8829
  130OSM   H15S14007   3.192  -0.023   7.955  0.0316 -0.2441  1.7732
  130OSM   H15T14008   3.307   0.108   7.922 -4.0687  1.2003  1.1242
  130OSM   C16S14009   3.388  -0.057   8.038 -0.1606  0.4454  0.2385
  130OSM   H16S14010   3.492  -0.045   8.001 -0.3699 -1.4661 -1.0824
  130OSM   H16T14011   3.377  -0.167   8.045  1.0797 -0.0132 -3.0531
  130OSM   C17S14012   3.373   0.018   8.173  0.9241 -0.0566  0.1130
  130OSM   H17S14013   3.357   0.127   8.160 -1.7529 -0.2314  1.2244
  130OSM   H17T14014   3.463   0.012   8.237 -0.8113 -1.7206  2.5782
  130OSM   C18S14015   3.239  -0.020   8.245  0.1814 -0.0860 -0.3078
  130OSM   H18S14016   3.152  -0.026   8.176 -0.3587  0.4556  0.3088
  130OSM   H18T14017   3.223   0.045   8.334 -0.4956 -0.5790 -0.0591
  130OSM   H18U14018   3.250  -0.123   8.284 -1.6930 -0.3458 -0.3775
  130OSM    C1F14019   2.740   0.264   6.761  0.0104  0.5156  0.2306
  130OSM     OF14020   2.622   0.227   6.734 -0.1362 -0.1287 -0.5559
  130OSM    C2F14021   2.777   0.346   6.879  0.0416 -1.3976 -0.4481
  130OSM    H2F14022   2.743   0.449   6.857  0.5747 -0.6171  2.0339
  130OSM    H2G14023   2.885   0.357   6.903 -0.2854 -1.5567  1.2761
  130OSM    C3F14024   2.711   0.301   7.007  0.5470  0.9339 -0.5764
  130OSM    H3F14025   2.735   0.195   7.029  0.5773  1.2489  1.0727
  130OSM    H3G14026   2.600   0.302   7.004  0.4897 -0.7706 -0.1475
  130OSM    C4F14027   2.770   0.381   7.132  0.6723 -0.0568  0.6818
  130OSM    H4F14028   2.863   0.429   7.095 -1.1187  0.5692 -3.5990
  130OSM    H4G14029   2.805   0.319   7.217  1.4099 -0.6437 -0.0393
  130OSM    C5F14030   2.663   0.479   7.178  1.0808  0.2882  0.4741
  130OSM    H5F14031   2.566   0.429   7.197  1.0260  0.7149  1.3845
  130OSM    H5G14032   2.649   0.563   7.107  1.0654  1.9564  2.3635
  130OSM    C6F14033   2.701   0.545   7.303 -0.0011  0.5783 -0.1381
  130OSM    H6F14034   2.782   0.616   7.277 -1.4766  2.2704 -0.3435
  130OSM    H6G14035   2.738   0.472   7.378 -2.8239 -0.2948  0.5364
  130OSM    C7F14036   2.587   0.619   7.377 -0.4209 -0.0629  0.4802
  130OSM    H7F14037   2.501   0.555   7.408 -1.1080 -1.3581 -3.5637
  130OSM    H7G14038   2.536   0.692   7.311 -1.4266 -0.4185  0.8400
  130OSM    C8F14039   2.645   0.684   7.508  0.4640  0.2304 -0.3041
  130OSM    H8F14040   2.671   0.600   7.576 -1.0742  0.4918  0.6381
  130OSM    H8G14041   2.555   0.730   7.554  1.4612  0.8613  1.0911
  130OSM    C9F14042   2.754   0.789   7.493  0.1028  0.3172 -0.7539
  130OSM    H9F14043   2.744   0.850   7.402  3.6196  1.4666 -0.5330
  130OSM   C10F14044   2.858   0.808   7.573 -0.3503  0.7365 -0.3110
  130OSM   H10F14045   2.928   0.892   7.557  1.7519 -0.5993  1.3979
  130OSM   C11F14046   2.892   0.722   7.695 -0.0409 -0.0162  0.3498
  130OSM   H11F14047   2.990   0.743   7.743 -0.4454 -2.3488  2.3796
  130OSM   H11G14048   2.896   0.615   7.667  0.7624  0.4343 -1.4043
  130OSM   C12F14049   2.780   0.753   7.801  0.1751  0.2426 -0.2334
  130OSM   H12F14050   2.675   0.723   7.779  0.2954 -0.0122 -0.4597
  130OSM   H12G14051   2.779   0.861   7.827 -0.8114  0.3405 -0.6336
  130OSM   C13F14052   2.810   0.683   7.938  0.5593 -0.5848  0.2760
  130OSM   H13F14053   2.905   0.720   7.982 -0.1433 -1.2721  2.5150
  130OSM   H13G14054   2.833   0.576   7.919  0.6287 -0.5161 -0.0333
  130OSM   C14F14055   2.698   0.705   8.038  0.1093 -0.7366  0.0709
  130OSM   H14F14056   2.604   0.659   7.999  0.2859 -3.6806  2.7464
  130OSM   H14G14057   2.688   0.816   8.047  1.2056 -0.4484 -1.7376
  130OSM   C15F14058   2.729   0.652   8.175  0.7524 -0.3877 -0.3331
  130OSM   H15F14059   2.815   0.698   8.227  1.6448 -2.2522 -0.0797
  130OSM   H15G14060   2.743   0.542   8.177 -0.3534 -0.5345  0.7401
  130OSM   C16F14061   2.606   0.673   8.273  0.3270 -0.1740 -0.7011
  130OSM   H16F14062   2.589   0.594   8.349 -3.3933 -0.1797 -1.3864
  130OSM   H16G14063   2.520   0.651   8.207 -0.1383 -1.8518  0.3891
  130OSM   C17F14064   2.600   0.819   8.324 -0.0099 -0.3552 -0.1635
  130OSM   H17F14065   2.586   0.888   8.239 -0.1880  1.9718  1.6471
  130OSM   H17G14066   2.701   0.849   8.361 -0.3050  1.5046 -0.7970
  130OSM   C18F14067   2.478   0.839   8.421 -0.2488 -0.0770  0.1014
  130OSM   H18F14068   2.453   0.944   8.446 -2.2834 -0.3350 -0.6681
  130OSM   H18G14069   2.497   0.779   8.513 -0.0178  2.2336  1.6311
  130OSM   H18H14070   2.388   0.795   8.374 -0.0049 -1.7267  1.0737
  131OSM      N14071   0.517   4.228   5.649 -0.8145  0.2927  0.2576
  131OSM    C1514072   0.620   4.281   5.552  0.4659 -0.2309  0.0445
  131OSM   H15A14073   0.711   4.226   5.572 -1.2426 -2.8345  1.1867
  131OSM   H15B14074   0.641   4.387   5.558 -1.4839  0.4154 -2.7576
  131OSM   H15C14075   0.598   4.260   5.448 -0.1881  1.2944 -0.1484
  131OSM    C1414076   0.384   4.259   5.599 -0.0396  0.6296 -0.3301
  131OSM   H14A14077   0.367   4.224   5.499  3.5021  0.8704 -1.1359
  131OSM   H14B14078   0.364   4.365   5.606 -0.3297  0.4968  1.3336
  131OSM   H14C14079   0.319   4.204   5.666 -0.2412  0.4697 -0.6537
  131OSM    C1314080   0.531   4.079   5.647  0.1703 -0.8390 -0.1473
  131OSM   H13A14081   0.458   4.035   5.714  2.7600 -1.3417  2.5177
  131OSM   H13B14082   0.630   4.050   5.676  0.7802  0.5354 -0.7487
  131OSM   H13C14083   0.512   4.028   5.554  2.7973 -0.6200 -0.8602
  131OSM    C1214084   0.542   4.286   5.788  0.2988 -0.1311  0.5665
  131OSM   H12A14085   0.560   4.393   5.780 -2.5679  0.4760  1.0764
  131OSM   H12B14086   0.633   4.237   5.818  1.1210  1.2664  0.4419
  131OSM    C1114087   0.438   4.263   5.900 -0.8698  0.6664  1.0589
  131OSM   H11A14088   0.347   4.315   5.863  0.1407  0.5773 -1.7727
  131OSM   H11B14089   0.474   4.314   5.992 -0.0261  0.0587  1.0834
  131OSM      P14090   0.498   4.030   6.004  0.0762  0.2237 -0.7293
  131OSM    O1314091   0.449   3.896   6.038  0.1982  0.4872  0.3460
  131OSM    O1414092   0.625   4.026   5.932 -0.0645  0.2078  0.5155
  131OSM    O1114093   0.528   4.114   6.138  0.1274  0.0765  0.4552
  131OSM    O1214094   0.404   4.125   5.917  0.6757  0.2458  0.7591
  131OSM    C1S14095   0.426   4.149   6.231  0.0992  0.0401  0.0860
  131OSM    H1S14096   0.328   4.163   6.179 -0.5805 -1.8819  0.7458
  131OSM    H1T14097   0.461   4.241   6.281  1.7961 -0.5482  0.0246
  131OSM     NF14098   0.319   4.087   6.447 -0.7639  0.9010  0.0190
  131OSM    HNF14099   0.367   4.141   6.516  0.9061  0.4195 -0.7116
  131OSM    C2S14100   0.409   4.043   6.341  0.7585 -0.0102 -0.4846
  131OSM    H2S14101   0.368   3.946   6.305  1.3289 -0.3069 -0.3599
  131OSM    C3S14102   0.549   3.996   6.391 -0.1311  0.2067  0.3826
  131OSM    H3S14103   0.605   4.090   6.406 -1.9897  0.9936  3.1943
  131OSM     O314104   0.623   3.909   6.298 -0.2814 -0.2845  0.0554
  131OSM    HO314105   0.584   3.926   6.212  2.1165  1.0573 -0.8696
  131OSM    C4S14106   0.542   3.909   6.514 -0.1509 -0.0751 -0.4757
  131OSM    H4S14107   0.517   3.804   6.496  0.2448 -0.5836  1.6966
  131OSM    C5S14108   0.572   3.942   6.642 -0.3779  0.0229  0.1941
  131OSM    H5S14109   0.603   4.044   6.669 -2.7422  0.4002  1.6913
  131OSM    C6S14110   0.568   3.843   6.752  0.7782  0.1243 -0.1468
  131OSM    H6S14111   0.664   3.793   6.777  1.4011  1.8623  1.1182
  131OSM    H6T14112   0.491   3.765   6.730 -1.1755  1.7789  0.5659
  131OSM    C7S14113   0.505   3.913   6.871 -0.6557 -0.1738  0.2602
  131OSM    H7S14114   0.406   3.961   6.851  0.8736  2.6024 -1.1936
  131OSM    H7T14115   0.560   3.998   6.916 -0.3515 -0.1498 -0.1505
  131OSM    C8S14116   0.486   3.821   6.995  0.1780  0.3946  0.2926
  131OSM    H8S14117   0.572   3.753   7.013 -1.6808 -1.4066  2.8984
  131OSM    H8T14118   0.400   3.755   6.971  1.3805 -0.6416 -1.4395
  131OSM    C9S14119   0.453   3.895   7.119  0.2752  0.2764 -0.7390
  131OSM    H9S14120   0.350   3.934   7.107  0.6026  1.5180  0.2632
  131OSM    H9T14121   0.516   3.985   7.137 -0.2799  0.2284  1.8893
  131OSM   C10S14122   0.465   3.811   7.253  0.1943  0.7692 -0.1994
  131OSM   H10S14123   0.566   3.766   7.256  0.0029  0.3647  0.8623
  131OSM   H10T14124   0.394   3.727   7.239  1.2351 -0.4373  1.4119
  131OSM   C11S14125   0.447   3.900   7.378  0.1662 -0.2721  0.0296
  131OSM   H11S14126   0.349   3.941   7.347  1.5037  1.6429 -2.0074
  131OSM   H11T14127   0.527   3.977   7.389  1.9021 -2.0755  0.6770
  131OSM   C12S14128   0.450   3.840   7.515  0.4597 -0.0040 -0.7798
  131OSM   H12S14129   0.424   3.922   7.585  1.0990  0.0400 -0.5901
  131OSM   H12T14130   0.544   3.790   7.547 -0.1128  0.0866  1.1980
  131OSM   C13S14131   0.339   3.738   7.530  0.4701 -0.4326 -0.6288
  131OSM   H13S14132   0.360   3.646   7.470 -0.7981 -0.7311 -0.6565
  131OSM   H13T14133   0.242   3.777   7.492 -0.2169 -0.8890  0.6139
  131OSM   C14S14134   0.317   3.692   7.681 -0.0037 -0.3150  0.1594
  131OSM   H14S14135   0.403   3.629   7.712  0.5614 -0.0351 -0.7926
  131OSM   H14T14136   0.236   3.617   7.678  2.2029 -2.8264 -2.7281
  131OSM   C15S14137   0.286   3.804   7.788 -0.4140  0.0536  0.5979
  131OSM   H15S14138   0.204   3.862   7.741  0.8356 -1.4345 -3.9946
  131OSM   H15T14139   0.371   3.875   7.778  0.2322 -1.0018 -2.9417
  131OSM   C16S14140   0.271   3.743   7.926 -0.5379  0.4718  0.0288
  131OSM   H16S14141   0.359   3.683   7.958 -0.7910 -0.7333 -1.4007
  131OSM   H16T14142   0.176   3.687   7.927 -0.6231  0.5696 -1.0271
  131OSM   C17S14143   0.258   3.843   8.038  0.1102 -0.0484  0.4631
  131OSM   H17S14144   0.220   3.799   8.132 -3.9797  1.1280 -0.4177
  131OSM   H17T14145   0.181   3.916   8.004  0.9138  0.8368  0.5180
  131OSM   C18S14146   0.390   3.919   8.063 -0.9325  0.1342  0.0508
  131OSM   H18S14147   0.378   4.003   8.135  0.8443 -0.8650  1.5903
  131OSM   H18T14148   0.440   3.967   7.976 -0.8661  1.3622  0.7477
  131OSM   H18U14149   0.459   3.844   8.108 -0.2356  1.1513  0.7229
  131OSM    C1F14150   0.193   4.082   6.430  0.8844  0.1737  0.6253
  131OSM     OF14151   0.146   4.053   6.318 -0.2548 -0.2918  0.1866
  131OSM    C2F14152   0.099   4.103   6.550  0.1917 -0.3496 -0.2316
  131OSM    H2F14153  -0.005   4.077   6.523 -0.0319  0.1715  0.1012
  131OSM    H2G14154   0.086   4.210   6.577 -4.2304 -0.8496  0.3836
  131OSM    C3F14155   0.149   4.011   6.666  0.8312 -1.2439  0.0870
  131OSM    H3F14156   0.249   4.046   6.700  0.3963  0.1767 -0.0176
  131OSM    H3G14157   0.166   3.905   6.636  0.0840 -0.8373 -1.9209
  131OSM    C4F14158   0.062   4.026   6.789 -0.4630  0.7757  0.2486
  131OSM    H4F14159  -0.026   3.960   6.771 -0.3055  0.7162 -0.3303
  131OSM    H4G14160   0.017   4.127   6.796  1.0107  1.5013 -0.1987
  131OSM    C5F14161   0.129   4.001   6.928 -0.0918 -0.6314 -0.7107
  131OSM    H5F14162   0.201   4.082   6.954 -0.5079 -0.4508 -0.1112
  131OSM    H5G14163   0.182   3.904   6.935  1.2635  0.0646 -0.8615
  131OSM    C6F14164   0.015   3.994   7.030 -0.1089 -0.4933 -0.0427
  131OSM    H6F14165  -0.057   3.915   6.999  0.6727 -0.6610 -1.5164
  131OSM    H6G14166  -0.040   4.090   7.021 -0.7905 -0.8618  0.0657
  131OSM    C7F14167   0.065   3.967   7.166  0.2543  0.3311  0.0800
  131OSM    H7F14168   0.136   4.048   7.192  2.2952 -1.0775 -0.8409
  131OSM    H7G14169   0.130   3.877   7.164 -1.2133 -0.7518 -0.7609
  131OSM    C8F14170  -0.048   3.939   7.271 -0.9859 -0.1912  0.0613
  131OSM    H8F14171  -0.000   3.897   7.362 -1.4947 -2.4570 -0.6597
  131OSM    H8G14172  -0.124   3.866   7.236  0.0564 -0.4811 -1.7566
  131OSM    C9F14173  -0.123   4.063   7.308  1.0976 -0.0475  0.1610
  131OSM    H9F14174  -0.221   4.077   7.260  1.9735 -0.2550 -1.8214
  131OSM   C10F14175  -0.095   4.156   7.396  0.4956  0.2436  1.1160
  131OSM   H10F14176  -0.181   4.217   7.429  1.0640  0.7286  1.7567
  131OSM   C11F14177   0.019   4.153   7.493  0.7018 -0.4924  0.7138
  131OSM   H11F14178   0.091   4.238   7.498  1.4588 -1.1351  1.0017
  131OSM   H11G14179   0.088   4.067   7.474  0.6434 -0.1321 -1.4293
  131OSM   C12F14180  -0.032   4.124   7.637 -0.0115  0.6754  1.4146
  131OSM   H12F14181   0.058   4.106   7.700  0.3920  0.0360  0.6806
  131OSM   H12G14182  -0.078   4.023   7.638 -0.8354  0.7978 -2.9978
  131OSM   C13F14183  -0.141   4.217   7.705  0.1926  0.0629  0.3134
  131OSM   H13F14184  -0.228   4.237   7.639  0.4710  0.0628 -0.0534
  131OSM   H13G14185  -0.083   4.309   7.728  2.8381 -1.3554 -0.3082
  131OSM   C14F14186  -0.192   4.162   7.833 -0.5501 -0.0295  0.0408
  131OSM   H14F14187  -0.256   4.072   7.817  0.7482 -1.4792  2.4935
  131OSM   H14G14188  -0.263   4.238   7.872 -1.1631  0.1036 -1.2633
  131OSM   C15F14189  -0.074   4.139   7.937 -0.5150  0.3383 -0.5407
  131OSM   H15F14190   0.004   4.213   7.908 -0.5693  1.4856  1.9571
  131OSM   H15G14191  -0.036   4.035   7.927 -2.5332 -0.5279  0.1177
  131OSM   C16F14192  -0.130   4.154   8.078 -0.5134 -0.6527 -0.6727
  131OSM   H16F14193  -0.229   4.105   8.079 -1.1861  0.6718 -0.0663
  131OSM   H16G14194  -0.147   4.262   8.098  1.3647 -0.6424  1.2600
  131OSM   C17F14195  -0.029   4.093   8.176 -0.2749  0.2492  0.0871
  131OSM   H17F14196   0.075   4.101   8.137 -0.0057 -2.4673  0.0594
  131OSM   H17G14197  -0.042   3.983   8.182  0.6770 -0.0304 -1.9015
  131OSM   C18F14198  -0.021   4.139   8.323  0.3787 -0.0805 -0.0613
  131OSM   H18F14199   0.061   4.095   8.384 -0.0674  1.1218  1.4958
  131OSM   H18G14200  -0.118   4.135   8.377  0.9848  1.5775  1.2527
  131OSM   H18H14201   0.007   4.247   8.322 -1.8625  0.5432 -0.6551
  132OSM      N14202   4.200   4.860   6.214  0.0710  0.4655  0.2044
  132OSM    C1514203   4.115   4.848   6.336 -0.8645  0.5390 -1.3519
  132OSM   H15A14204   4.077   4.943   6.369 -2.1733 -0.1907 -0.6634
  132OSM   H15B14205   4.166   4.801   6.419 -1.7156 -0.0010 -1.1223
  132OSM   H15C14206   4.027   4.791   6.308 -0.5093 -0.0203 -1.3483
  132OSM    C1414207   4.126   4.946   6.116  0.4257 -1.0408  0.0658
  132OSM   H14A14208   4.027   4.910   6.096  0.4660 -1.1291  0.0219
  132OSM   H14B14209   4.180   4.939   6.022  1.7112 -1.3904  0.8061
  132OSM   H14C14210   4.125   5.051   6.141  1.1203 -0.9754 -0.1473
  132OSM    C1314211   4.328   4.928   6.255 -0.1211 -0.0976  1.0186
  132OSM   H13A14212   4.307   5.015   6.315 -1.7046  0.0069  0.3508
  132OSM   H13B14213   4.385   4.958   6.167 -0.7819 -2.1996 -0.1879
  132OSM   H13C14214   4.395   4.865   6.312  1.2867  0.7121  0.3144
  132OSM    C1214215   4.237   4.732   6.151 -0.5999 -0.0593  0.1827
  132OSM   H12A14216   4.309   4.749   6.073 -1.2546 -1.6483 -0.8184
  132OSM   H12B14217   4.150   4.684   6.108 -0.4501 -2.5605  2.3974
  132OSM    C1114218   4.298   4.613   6.229  0.6277  0.6755 -0.1093
  132OSM   H11A14219   4.324   4.539   6.150 -0.8892  0.8625 -0.8206
  132OSM   H11B14220   4.219   4.563   6.290 -0.7096  1.6627 -0.9585
  132OSM      P14221   4.478   4.535   6.394 -0.1663  0.2717  0.0496
  132OSM    O1314222   4.403   4.411   6.372 -0.1627 -0.1942  0.4466
  132OSM    O1414223   4.623   4.538   6.364  0.4744  0.1815  0.2719
  132OSM    O1114224   4.465   4.589   6.537  0.2317 -0.4085  0.4842
  132OSM    O1214225   4.418   4.647   6.301  0.2677 -0.2790 -0.4273
  132OSM    C1S14226   4.357   4.683   6.574  0.0336 -0.2233  0.9609
  132OSM    H1S14227   4.259   4.672   6.523  0.3281 -1.5725  0.6453
  132OSM    H1T14228   4.402   4.780   6.544  2.2204 -1.4447  0.0255
  132OSM     NF14229   4.194   4.695   6.767 -0.7065  0.4630  0.1828
  132OSM    HNF14230   4.177   4.784   6.811 -2.6807 -0.4773  1.4978
  132OSM    C2S14231   4.330   4.664   6.726  0.1005  0.4375 -0.3909
  132OSM    H2S14232   4.355   4.562   6.761 -1.3735  0.4144  0.6789
  132OSM    C3S14233   4.431   4.743   6.811 -0.1933 -0.1295  0.6972
  132OSM    H3S14234   4.438   4.850   6.784  1.6566 -0.3157  0.2990
  132OSM     O314235   4.567   4.703   6.789  0.4647 -0.4339 -0.3031
  132OSM    HO314236   4.555   4.666   6.702 -1.6766  0.4816 -0.4479
  132OSM    C4S14237   4.408   4.717   6.957  0.4964  0.2915  0.4649
  132OSM    H4S14238   4.466   4.635   7.002  1.3066  1.0334  0.8069
  132OSM    C5S14239   4.335   4.790   7.034  0.4153  0.2001  0.5862
  132OSM    H5S14240   4.297   4.882   6.986  0.4421  1.4418  2.7784
  132OSM    C6S14241   4.299   4.784   7.178  0.1730  0.1065  0.2233
  132OSM    H6S14242   4.194   4.754   7.163 -0.4105  2.0819  0.0229
  132OSM    H6T14243   4.302   4.881   7.233  0.8503 -0.7478  1.7729
  132OSM    C7S14244   4.362   4.678   7.265 -0.2402  0.4343 -0.1706
  132OSM    H7S14245   4.467   4.704   7.290  0.0431  2.1409 -2.6890
  132OSM    H7T14246   4.361   4.579   7.215  0.4276  0.4768 -0.2761
  132OSM    C8S14247   4.281   4.663   7.396 -0.1762 -0.2145 -0.8372
  132OSM    H8S14248   4.269   4.554   7.412  0.2316 -0.4049 -1.7353
  132OSM    H8T14249   4.182   4.710   7.379  0.1946  0.0455 -2.4980
  132OSM    C9S14250   4.350   4.730   7.518  0.1376 -0.1227  0.2495
  132OSM    H9S14251   4.373   4.836   7.490 -1.1299  0.2520  0.5409
  132OSM    H9T14252   4.443   4.671   7.527  0.4994  0.2194 -1.0129
  132OSM   C10S14253   4.263   4.708   7.641 -0.0193 -0.1116 -0.5779
  132OSM   H10S14254   4.234   4.601   7.642 -1.4391  0.2274  1.5611
  132OSM   H10T14255   4.168   4.764   7.624 -0.3993 -0.0844  1.4053
  132OSM   C11S14256   4.326   4.742   7.781 -0.1567  0.2679 -0.3813
  132OSM   H11S14257   4.335   4.852   7.793 -1.4659  0.0715  3.8496
  132OSM   H11T14258   4.429   4.701   7.788 -0.1609  0.2669 -0.3232
  132OSM   C12S14259   4.232   4.693   7.891  0.6489  0.6768  0.1809
  132OSM   H12S14260   4.284   4.706   7.989  2.7106  0.1488 -0.7818
  132OSM   H12T14261   4.222   4.585   7.867 -1.5500  1.2091 -1.6473
  132OSM   C13S14262   4.091   4.753   7.879  0.1658 -0.2703 -0.1879
  132OSM   H13S14263   4.044   4.744   7.778 -0.2245 -1.8907  0.1160
  132OSM   H13T14264   4.110   4.862   7.883  1.5183 -0.4385 -1.3888
  132OSM   C14S14265   3.997   4.720   7.990  0.2782 -0.3469 -0.6824
  132OSM   H14S14266   3.921   4.801   7.994  0.5377 -0.1049 -0.7224
  132OSM   H14T14267   4.059   4.732   8.081  1.0466 -0.6174 -1.1694
  132OSM   C15S14268   3.931   4.580   7.985 -0.3957  0.2963  0.2950
  132OSM   H15S14269   4.011   4.503   7.972 -0.4771  0.4232 -1.1963
  132OSM   H15T14270   3.865   4.569   7.896 -0.3303 -0.1376  0.2941
  132OSM   C16S14271   3.839   4.546   8.107  0.4747  0.0025 -0.2983
  132OSM   H16S14272   3.776   4.460   8.078 -0.4425  0.2474  0.8717
  132OSM   H16T14273   3.769   4.631   8.122 -0.3413 -0.9789  1.9315
  132OSM   C17S14274   3.930   4.508   8.232  0.9368 -0.2479 -0.3443
  132OSM   H17S14275   4.004   4.590   8.243 -0.8866  1.4920 -0.4920
  132OSM   H17T14276   3.979   4.410   8.214 -1.2278 -1.2566 -1.1327
  132OSM   C18S14277   3.842   4.503   8.362 -1.0582 -0.1861 -0.3011
  132OSM   H18S14278   3.795   4.603   8.372 -0.9494  0.2032 -2.8348
  132OSM   H18T14279   3.912   4.496   8.448 -0.6523  2.9533 -0.2455
  132OSM   H18U14280   3.769   4.419   8.368  0.7200 -1.6818  1.6368
  132OSM    C1F14281   4.093   4.625   6.725 -0.1613  0.3105  0.3911
  132OSM     OF14282   4.118   4.516   6.670 -0.3474 -0.1904  0.0223
  132OSM    C2F14283   3.953   4.670   6.758  0.0483 -0.2480  0.1249
  132OSM    H2F14284   3.922   4.753   6.690 -1.9965 -0.2592  0.9444
  132OSM    H2G14285   3.954   4.725   6.855 -1.2235 -0.2379  0.1536
  132OSM    C3F14286   3.866   4.548   6.748  0.0903 -0.6320 -0.5310
  132OSM    H3F14287   3.899   4.464   6.813 -1.0936 -2.0647 -1.6768
  132OSM    H3G14288   3.854   4.508   6.645 -0.3850  1.5706 -1.3749
  132OSM    C4F14289   3.721   4.573   6.792  0.4892  0.1902  0.4588
  132OSM    H4F14290   3.675   4.472   6.793  0.1548  0.2710 -1.7581
  132OSM    H4G14291   3.665   4.627   6.712 -2.0050 -0.3721  1.7223
  132OSM    C5F14292   3.703   4.621   6.940  0.3641 -0.4683  0.1409
  132OSM    H5F14293   3.599   4.618   6.981  0.7036  2.1968  1.4460
  132OSM    H5G14294   3.749   4.722   6.940  0.3301 -0.4391  1.2354
  132OSM    C6F14295   3.783   4.535   7.036  1.3793  0.3456  0.4627
  132OSM    H6F14296   3.888   4.517   7.007  1.1635 -1.3662  0.6074
  132OSM    H6G14297   3.736   4.438   7.064  0.6472  0.8997  1.1974
  132OSM    C7F14298   3.787   4.608   7.166 -0.3845  0.6913 -0.7150
  132OSM    H7F14299   3.684   4.617   7.205 -0.2904 -1.3892  0.1439
  132OSM    H7G14300   3.846   4.701   7.151  3.0537 -1.4536 -1.7101
  132OSM    C8F14301   3.859   4.512   7.269 -0.2993 -0.3899  0.1186
  132OSM    H8F14302   3.938   4.455   7.216  1.4767  1.7302  0.3194
  132OSM    H8G14303   3.796   4.432   7.312 -1.1526 -0.1478 -0.6390
  132OSM    C9F14304   3.932   4.588   7.377  0.9951 -0.4689  0.7522
  132OSM    H9F14305   3.987   4.678   7.345  1.1317 -0.6373  0.5199
  132OSM   C10F14306   3.955   4.553   7.506  0.3453  0.1778 -0.4231
  132OSM   H10F14307   4.006   4.631   7.565  1.2764  1.1871 -2.4554
  132OSM   C11F14308   3.918   4.422   7.575 -0.7960 -0.4551 -0.0814
  132OSM   H11F14309   3.893   4.348   7.497 -1.4335  0.2883 -0.5913
  132OSM   H11G14310   3.826   4.436   7.635 -0.3969  0.9447  0.2522
  132OSM   C12F14311   4.026   4.382   7.679 -0.4351 -0.0976 -0.9563
  132OSM   H12F14312   4.038   4.469   7.747  2.6886 -2.1910  1.4822
  132OSM   H12G14313   4.122   4.365   7.626 -0.6087 -2.7670 -0.5880
  132OSM   C13F14314   3.989   4.257   7.763 -1.2850 -0.4559  0.0286
  132OSM   H13F14315   3.962   4.166   7.704  2.4470 -1.7764  0.1005
  132OSM   H13G14316   3.902   4.282   7.828 -0.4432 -1.4796  1.6094
  132OSM   C14F14317   4.110   4.200   7.845 -0.2419 -0.4307  0.1804
  132OSM   H14F14318   4.145   4.282   7.911 -0.3639  0.9866 -1.4584
  132OSM   H14G14319   4.191   4.179   7.773  0.8679  0.9566  0.9832
  132OSM   C15F14320   4.057   4.080   7.915 -0.4618  0.2893 -0.0973
  132OSM   H15F14321   4.138   4.005   7.924 -0.1603  0.5722 -0.4484
  132OSM   H15G14322   3.981   4.022   7.857  0.7039 -0.2990 -1.0692
  132OSM   C16F14323   4.022   4.099   8.060 -0.3903  0.1269 -0.8514
  132OSM   H16F14324   3.925   4.154   8.058 -0.5451 -0.1488 -0.9457
  132OSM   H16G14325   4.101   4.166   8.102 -1.7533  1.5880 -0.5217
  132OSM   C17F14326   4.001   3.967   8.134 -0.4358 -0.7723 -1.0661
  132OSM   H17F14327   4.103   3.926   8.145 -0.3316 -0.8395 -2.1208
  132OSM   H17G14328   3.937   3.893   8.082  2.4297 -3.8591 -0.5085
  132OSM   C18F14329   3.939   4.009   8.270 -0.2544 -0.0079 -0.4035
  132OSM   H18F14330   3.998   4.077   8.334 -0.1788  0.4869 -0.9891
  132OSM   H18G14331   3.922   3.921   8.336 -3.1650  1.0023  0.3029
  132OSM   H18H14332   3.837   4.052   8.262 -0.0090  0.7778  0.6183
  133OSM      N14333   2.041   6.298   6.042 -0.0034 -0.5869  1.0046
  133OSM    C1514334   1.981   6.388   5.938 -0.3071  0.3479 -0.9446
  133OSM   H15A14335   2.048   6.389   5.853 -1.1012 -3.4442 -1.8165
  133OSM   H15B14336   1.976   6.492   5.967  1.0839 -0.2024  1.4483
  133OSM   H15C14337   1.880   6.356   5.916 -0.3095 -0.1929 -0.1861
  133OSM    C1414338   2.050   6.153   5.995  0.8353  0.2190 -0.0796
  133OSM   H14A14339   1.956   6.124   5.950  0.7180 -0.7536  0.7688
  133OSM   H14B14340   2.058   6.080   6.073 -1.3375  0.3193  0.2920
  133OSM   H14C14341   2.136   6.141   5.931 -0.3235 -1.2606 -1.4464
  133OSM    C1314342   2.179   6.344   6.072 -0.5562  0.3350 -0.4188
  133OSM   H13A14343   2.240   6.358   5.985 -0.9061  1.1387 -0.5421
  133OSM   H13B14344   2.238   6.270   6.124  0.8679  1.2783 -0.6356
  133OSM   H13C14345   2.183   6.429   6.139 -0.0551 -0.2125  0.2606
  133OSM    C1214346   1.952   6.303   6.169 -0.9011 -0.8587 -0.2902
  133OSM   H12A14347   1.932   6.407   6.190  0.2779 -1.0764  2.1232
  133OSM   H12B14348   2.004   6.261   6.254 -1.2885 -2.3146 -0.7428
  133OSM    C1114349   1.808   6.245   6.160  0.0416  0.3308 -0.2234
  133OSM   H11A14350   1.754   6.317   6.095 -1.6070 -0.0916  0.6257
  133OSM   H11B14351   1.754   6.260   6.256 -0.1347  0.2464 -0.3082
  133OSM      P14352   1.826   5.983   6.207  0.2544  0.0086  0.7455
  133OSM    O1314353   1.709   5.891   6.216 -0.2661 -0.8766  0.0128
  133OSM    O1414354   1.944   5.918   6.165 -0.2232 -0.0958  0.1752
  133OSM    O1114355   1.855   6.041   6.353  0.0767  0.9874  0.3012
  133OSM    O1214356   1.795   6.110   6.114  0.2266 -0.1186 -0.3112
  133OSM    C1S14357   1.844   5.949   6.460 -0.7592  0.4196 -0.2009
  133OSM    H1S14358   1.925   5.872   6.462 -0.5225  0.6756  0.1473
  133OSM    H1T14359   1.745   5.899   6.463 -1.2179  1.2976  2.6911
  133OSM     NF14360   1.867   5.945   6.716  0.2656 -0.2115  0.0927
  133OSM    HNF14361   1.810   5.963   6.795  1.2697  0.8095  0.6037
  133OSM    C2S14362   1.841   6.026   6.600 -0.5352  0.6732 -0.0875
  133OSM    H2S14363   1.917   6.106   6.586  1.3472 -1.2403 -1.4852
  133OSM    C3S14364   1.695   6.082   6.619  0.0605 -0.1029  0.0327
  133OSM    H3S14365   1.643   5.984   6.627 -0.0941 -0.1056 -0.8538
  133OSM     O314366   1.647   6.147   6.505  0.3935 -0.5031  0.5540
  133OSM    HO314367   1.711   6.125   6.437 -0.3954 -2.8901  0.4716
  133OSM    C4S14368   1.685   6.175   6.744  0.1071  0.2521  0.0252
  133OSM    H4S14369   1.619   6.120   6.813  1.1054 -0.9617  0.0506
  133OSM    C5S14370   1.736   6.299   6.764  0.5003 -0.1612  0.1162
  133OSM    H5S14371   1.802   6.349   6.691 -0.0816 -0.6760 -0.7710
  133OSM    C6S14372   1.696   6.359   6.896 -0.5062 -0.9219 -0.0294
  133OSM    H6S14373   1.621   6.438   6.877 -1.9002 -1.6363  2.1713
  133OSM    H6T14374   1.789   6.415   6.921 -1.3638  1.6728 -2.2110
  133OSM    C7S14375   1.633   6.292   7.020 -0.2316 -0.1626  1.4136
  133OSM    H7S14376   1.706   6.215   7.051  1.5645  1.0691  0.4838
  133OSM    H7T14377   1.534   6.251   6.990 -0.2523  0.9594 -0.1869
  133OSM    C8S14378   1.614   6.387   7.136 -0.3433 -0.3878  0.2793
  133OSM    H8S14379   1.520   6.445   7.122  0.6280  1.5421  1.2179
  133OSM    H8T14380   1.700   6.457   7.130  0.1430 -1.0097 -0.0229
  133OSM    C9S14381   1.627   6.321   7.273 -0.2053  0.1817  0.1793
  133OSM    H9S14382   1.729   6.289   7.304  0.1059  2.0660  1.1969
  133OSM    H9T14383   1.554   6.238   7.267 -1.9533  1.6379  0.5364
  133OSM   C10S14384   1.567   6.421   7.376 -0.4241 -0.5679  0.8112
  133OSM   H10S14385   1.461   6.427   7.343 -0.4062 -0.2802  0.8020
  133OSM   H10T14386   1.616   6.519   7.356  0.6232 -1.4068 -0.9813
  133OSM   C11S14387   1.591   6.369   7.515  0.2670  0.3125  0.1735
  133OSM   H11S14388   1.689   6.410   7.547  0.4553  0.2810 -0.3501
  133OSM   H11T14389   1.597   6.259   7.527 -0.0973  0.2864  0.1368
  133OSM   C12S14390   1.486   6.425   7.607 -0.4565 -0.1147  1.3141
  133OSM   H12S14391   1.387   6.386   7.574 -0.0295 -1.5979  1.6899
  133OSM   H12T14392   1.485   6.536   7.601  1.6166 -0.1240 -0.3372
  133OSM   C13S14393   1.501   6.383   7.748 -0.7907  0.4926 -0.7431
  133OSM   H13S14394   1.508   6.274   7.768 -0.0937  0.5521 -0.6323
  133OSM   H13T14395   1.410   6.413   7.805  0.2653  0.2433  1.1689
  133OSM   C14S14396   1.622   6.442   7.821  0.2113 -0.3109  0.1383
  133OSM   H14S14397   1.651   6.532   7.763 -0.0692 -0.8842 -0.9185
  133OSM   H14T14398   1.706   6.369   7.815  1.2206  0.8645 -0.4808
  133OSM   C15S14399   1.600   6.493   7.964  0.5566  0.6447  0.1854
  133OSM   H15S14400   1.522   6.573   7.963 -1.3252 -1.0944 -0.1156
  133OSM   H15T14401   1.693   6.544   7.996  0.5577  0.7460  0.0179
  133OSM   C16S14402   1.574   6.382   8.071  0.2091 -0.8694 -0.2184
  133OSM   H16S14403   1.665   6.319   8.068  1.5392  0.9222  0.9182
  133OSM   H16T14404   1.487   6.314   8.056  1.5498 -2.3166 -1.8492
  133OSM   C17S14405   1.553   6.439   8.206  0.2474  0.9174 -0.4375
  133OSM   H17S14406   1.456   6.494   8.210  0.3510  1.2090 -1.5972
  133OSM   H17T14407   1.630   6.517   8.226  0.8296  0.1160  0.5305
  133OSM   C18S14408   1.542   6.339   8.315 -0.2619  0.5574  0.2605
  133OSM   H18S14409   1.478   6.249   8.305  1.6510 -1.6506  4.6890
  133OSM   H18T14410   1.501   6.392   8.404  1.0713 -0.6366  1.6558
  133OSM   H18U14411   1.646   6.300   8.323 -0.5987 -0.3829  0.1645
  133OSM    C1F14412   1.972   5.877   6.734 -1.0036 -0.8252  0.7844
  133OSM     OF14413   2.057   5.857   6.645  0.0435  0.3118 -0.0261
  133OSM    C2F14414   1.996   5.823   6.873  0.4354  0.4414  0.5236
  133OSM    H2F14415   1.935   5.731   6.887 -1.4803  0.9878 -2.9826
  133OSM    H2G14416   1.962   5.903   6.941 -1.2808  1.7573 -1.7255
  133OSM    C3F14417   2.147   5.787   6.898  0.1605  0.0168 -0.8749
  133OSM    H3F14418   2.213   5.877   6.895  0.4728 -0.1471  0.3737
  133OSM    H3G14419   2.173   5.711   6.822  1.4319  0.5933 -1.0442
  133OSM    C4F14420   2.167   5.724   7.042  0.4780  0.0565  0.2235
  133OSM    H4F14421   2.272   5.688   7.040  0.0139 -1.6275  2.3804
  133OSM    H4G14422   2.102   5.635   7.054 -0.3033  0.1037 -2.8212
  133OSM    C5F14423   2.150   5.819   7.162 -0.5047  0.5399 -0.0355
  133OSM    H5F14424   2.061   5.884   7.145 -1.9545 -1.0491  1.0179
  133OSM    H5G14425   2.239   5.885   7.167 -1.3258  1.5598  2.4939
  133OSM    C6F14426   2.131   5.745   7.293 -0.3182  0.3477  0.5876
  133OSM    H6F14427   2.196   5.655   7.291 -1.3024 -0.3742 -0.6801
  133OSM    H6G14428   2.027   5.707   7.294 -0.1855 -0.0197  1.1706
  133OSM    C7F14429   2.163   5.828   7.418  0.2657 -0.0976  0.7357
  133OSM    H7F14430   2.103   5.922   7.407  0.6994 -0.1031 -2.9653
  133OSM    H7G14431   2.273   5.844   7.418  0.1630  1.0070 -1.5890
  133OSM    C8F14432   2.131   5.754   7.553  0.5429  0.6539  0.4999
  133OSM    H8F14433   2.194   5.663   7.561 -0.1798  0.2500  1.9071
  133OSM    H8G14434   2.027   5.728   7.524  0.2191  0.5961  1.6922
  133OSM    C9F14435   2.150   5.845   7.669  0.4904 -0.1381  0.3566
  133OSM    H9F14436   2.107   5.945   7.653  0.7152 -0.0061  0.5803
  133OSM   C10F14437   2.206   5.819   7.788  0.0727 -0.0746 -0.1063
  133OSM   H10F14438   2.204   5.898   7.864  1.8749 -1.8409  1.8927
  133OSM   C11F14439   2.270   5.690   7.830  0.7584 -0.7117  0.2119
  133OSM   H11F14440   2.375   5.724   7.833  0.5325 -0.0738  1.3829
  133OSM   H11G14441   2.246   5.608   7.758 -3.3669  0.9279 -0.6216
  133OSM   C12F14442   2.223   5.644   7.968  0.7095 -0.4553 -0.1571
  133OSM   H12F14443   2.117   5.611   7.962  0.4642 -0.0593  1.4946
  133OSM   H12G14444   2.216   5.722   8.046  0.7634  0.1992 -0.7994
  133OSM   C13F14445   2.319   5.532   8.020 -0.5110  0.5120 -0.2368
  133OSM   H13F14446   2.363   5.470   7.939  0.3875 -1.3759  1.6023
  133OSM   H13G14447   2.265   5.454   8.078  1.1109 -1.0406 -0.7338
  133OSM   C14F14448   2.441   5.580   8.102 -0.2329 -0.1353 -0.4622
  133OSM   H14F14449   2.382   5.622   8.186 -0.1467 -1.2178  0.1590
  133OSM   H14G14450   2.490   5.666   8.051  1.4243 -1.0677 -0.5267
  133OSM   C15F14451   2.540   5.476   8.145  0.3376 -0.0299  0.2854
  133OSM   H15F14452   2.631   5.487   8.082  1.2794  1.4398  1.8397
  133OSM   H15G14453   2.497   5.373   8.149  2.0723 -0.7710  0.5907
  133OSM   C16F14454   2.582   5.510   8.292 -0.1879  0.6235  0.4638
  133OSM   H16F14455   2.486   5.512   8.349 -0.3715 -2.6946  0.4659
  133OSM   H16G14456   2.615   5.616   8.289  1.8510  0.0315  0.5409
  133OSM   C17F14457   2.676   5.403   8.351  0.7571 -0.7090 -0.3598
  133OSM   H17F14458   2.778   5.426   8.314  0.4779 -0.0481 -0.7254
  133OSM   H17G14459   2.653   5.307   8.301 -1.5306  0.0047 -0.7964
  133OSM   C18F14460   2.676   5.387   8.505 -0.5826 -0.4079  0.5386
  133OSM   H18F14461   2.721   5.296   8.549  1.2786  0.7264  1.1498
  133OSM   H18G14462   2.575   5.396   8.550 -1.6215  0.6657 -1.7976
  133OSM   H18H14463   2.735   5.476   8.538  2.0329 -1.9874  0.4150
  134OSM      N14464   3.882   0.519   6.263 -0.5688 -0.9726 -0.2355
  134OSM    C1514465   3.951   0.390   6.295  0.1196 -0.4627 -0.1017
  134OSM   H15A14466   4.058   0.406   6.295 -0.2003  2.1260  1.2369
  134OSM   H15B14467   3.928   0.317   6.218  0.0134 -0.0189 -0.4940
  134OSM   H15C14468   3.921   0.348   6.390  3.1009  1.9742  2.1221
  134OSM    C1414469   3.972   0.593   6.169  0.0010 -0.5376 -1.0893
  134OSM   H14A14470   3.939   0.693   6.146 -0.1514 -0.4012 -0.3247
  134OSM   H14B14471   3.991   0.551   6.072  1.2599 -0.4596 -0.8934
  134OSM   H14C14472   4.072   0.593   6.209  0.6820  0.7293 -2.6931
  134OSM    C1314473   3.749   0.496   6.196  0.0390  0.7241 -0.0243
  134OSM   H13A14474   3.763   0.433   6.110  1.9744  0.6397  0.3098
  134OSM   H13B14475   3.717   0.588   6.150 -0.4432  0.5856  0.0317
  134OSM   H13C14476   3.675   0.444   6.256  1.5400 -0.4951  0.8828
  134OSM    C1214477   3.858   0.602   6.390 -0.3400  0.6731  0.1316
  134OSM   H12A14478   3.848   0.708   6.372  0.3297  0.3610 -2.6125
  134OSM   H12B14479   3.949   0.600   6.447  0.0253  0.2762 -0.4577
  134OSM    C1114480   3.750   0.557   6.481  0.5039 -0.2802 -0.7866
  134OSM   H11A14481   3.658   0.602   6.439 -0.1351  0.9749  1.7690
  134OSM   H11B14482   3.755   0.608   6.580  0.9266 -0.7621 -0.5520
  134OSM      P14483   3.589   0.356   6.514 -0.2222  0.0320 -0.3719
  134OSM    O1314484   3.501   0.397   6.408  0.4592 -0.1755 -0.5520
  134OSM    O1414485   3.597   0.213   6.525 -0.4069  0.3213 -0.3004
  134OSM    O1114486   3.536   0.415   6.653  0.5983 -0.5454  0.0132
  134OSM    O1214487   3.738   0.413   6.498 -0.2910 -0.6359  0.0269
  134OSM    C1S14488   3.623   0.407   6.769 -0.5090 -0.2630  0.2874
  134OSM    H1S14489   3.711   0.473   6.754 -0.0059 -1.4721 -2.7107
  134OSM    H1T14490   3.653   0.303   6.793 -0.1400 -0.4387 -0.9075
  134OSM     NF14491   3.630   0.466   7.018 -0.1560  0.2463  0.2472
  134OSM    HNF14492   3.630   0.393   7.086 -1.6850  0.3156  0.3450
  134OSM    C2S14493   3.546   0.462   6.896 -0.3929  0.4541 -0.1098
  134OSM    H2S14494   3.521   0.568   6.872 -0.5015  0.2341 -0.9815
  134OSM    C3S14495   3.412   0.382   6.910  0.4051 -0.2365  0.5141
  134OSM    H3S14496   3.433   0.274   6.916 -0.4247 -0.3606  1.7344
  134OSM     O314497   3.324   0.408   6.798  0.3839 -0.4320 -0.0958
  134OSM    HO314498   3.383   0.443   6.731 -1.9754  0.8945 -1.5992
  134OSM    C4S14499   3.352   0.423   7.041  0.1537  0.0071  0.3017
  134OSM    H4S14500   3.374   0.344   7.115  1.3175 -1.2866 -1.3706
  134OSM    C5S14501   3.282   0.534   7.072 -0.1969  0.2447  1.5151
  134OSM    H5S14502   3.252   0.608   6.996 -3.3479 -1.2658  1.1186
  134OSM    C6S14503   3.217   0.565   7.207  0.6270 -0.1469  0.2424
  134OSM    H6S14504   3.113   0.527   7.208  1.6734 -3.3084  0.7128
  134OSM    H6T14505   3.217   0.675   7.217  0.0990 -0.1424  0.2285
  134OSM    C7S14506   3.278   0.503   7.330  0.3623 -0.6032 -0.2528
  134OSM    H7S14507   3.389   0.512   7.331  0.3215 -0.1036 -0.0793
  134OSM    H7T14508   3.268   0.393   7.317  2.4741 -0.6971 -1.6687
  134OSM    C8S14509   3.203   0.546   7.455 -0.8376  0.2260  0.2698
  134OSM    H8S14510   3.094   0.550   7.432 -0.8404  2.3985  0.4797
  134OSM    H8T14511   3.233   0.650   7.478 -0.7511  0.0790  0.8259
  134OSM    C9S14512   3.247   0.458   7.571  0.0216  0.2174  0.3430
  134OSM    H9S14513   3.357   0.442   7.565 -0.0767 -0.7743  0.9855
  134OSM    H9T14514   3.192   0.361   7.578 -2.0336  1.2121 -1.0908
  134OSM   C10S14515   3.212   0.514   7.711  0.2611  0.1021 -0.0728
  134OSM   H10S14516   3.104   0.541   7.702  0.2525  0.5629  1.2973
  134OSM   H10T14517   3.276   0.605   7.717 -0.2089  0.5603 -1.4796
  134OSM   C11S14518   3.262   0.414   7.819 -0.7002  0.3514 -0.3606
  134OSM   H11S14519   3.372   0.404   7.808 -0.8143 -1.7544 -0.0175
  134OSM   H11T14520   3.221   0.311   7.812 -2.1140  0.9757 -2.3472
  134OSM   C12S14521   3.235   0.481   7.955  0.0163 -0.1197 -0.9847
  134OSM   H12S14522   3.128   0.505   7.967 -0.5806 -2.8092 -0.3647
  134OSM   H12T14523   3.280   0.583   7.958 -1.1799  0.4435 -1.6003
  134OSM   C13S14524   3.276   0.402   8.077  0.1460  0.1084  0.4674
  134OSM   H13S14525   3.387   0.404   8.091  1.0709 -1.0261 -4.7805
  134OSM   H13T14526   3.243   0.296   8.072  0.1797  0.1109  0.1591
  134OSM   C14S14527   3.215   0.477   8.200  0.2445  0.1744 -0.2516
  134OSM   H14S14528   3.106   0.496   8.198  0.1930  0.2363  1.6998
  134OSM   H14T14529   3.260   0.579   8.202  0.6645 -0.0102 -0.2598
  134OSM   C15S14530   3.247   0.409   8.328  0.5938 -1.0492 -0.0831
  134OSM   H15S14531   3.355   0.429   8.349  0.8922  1.2923 -3.1278
  134OSM   H15T14532   3.237   0.299   8.330  0.5995 -1.1117 -2.1009
  134OSM   C16S14533   3.162   0.466   8.442 -0.3699  0.3810 -0.3178
  134OSM   H16S14534   3.054   0.451   8.421 -1.3460  1.4713  3.1226
  134OSM   H16T14535   3.177   0.576   8.454 -0.9333  0.3740  0.5692
  134OSM   C17S14536   3.200   0.410   8.581  0.0080 -0.4147  0.6979
  134OSM   H17S14537   3.154   0.474   8.659  0.8983 -0.4733  1.2847
  134OSM   H17T14538   3.310   0.415   8.596  0.2627 -0.2402 -1.0128
  134OSM   C18S14539   3.160   0.261   8.605  0.3113 -0.0137 -0.1675
  134OSM   H18S14540   3.051   0.255   8.584  0.8142 -0.4725 -3.0593
  134OSM   H18T14541   3.172   0.233   8.712  0.5989  0.0833 -0.1734
  134OSM   H18U14542   3.220   0.201   8.534 -1.1218  0.1556 -1.5679
  134OSM    C1F14543   3.730   0.565   7.017  0.0651  0.7876  0.1051
  134OSM     OF14544   3.731   0.667   6.952 -0.0816  0.2589 -0.4882
  134OSM    C2F14545   3.838   0.542   7.124  0.1849 -0.4135 -0.5583
  134OSM    H2F14546   3.857   0.433   7.129 -0.6870 -0.5521 -0.1345
  134OSM    H2G14547   3.799   0.577   7.222  1.3274  0.1164 -0.2714
  134OSM    C3F14548   3.971   0.618   7.109  0.4512 -0.5305  0.0272
  134OSM    H3F14549   3.948   0.726   7.094 -1.0738 -0.5859  1.5965
  134OSM    H3G14550   4.033   0.583   7.023 -0.1541 -0.7739 -0.3167
  134OSM    C4F14551   4.063   0.608   7.237  0.5028 -0.2720  0.8979
  134OSM    H4F14552   4.158   0.660   7.211  0.0013  0.8564  1.2454
  134OSM    H4G14553   4.082   0.500   7.252 -1.7643 -0.4817  2.6442
  134OSM    C5F14554   4.010   0.674   7.361 -0.0990 -0.7033  0.4644
  134OSM    H5F14555   3.942   0.604   7.414 -0.3833 -0.9834 -0.2644
  134OSM    H5G14556   3.958   0.770   7.337  1.7742  0.1078 -0.5158
  134OSM    C6F14557   4.119   0.704   7.459 -0.1846 -0.2017 -0.1989
  134OSM    H6F14558   4.183   0.786   7.421  0.9114 -0.5514  0.8509
  134OSM    H6G14559   4.194   0.625   7.478 -0.0949 -0.8061 -2.7673
  134OSM    C7F14560   4.063   0.749   7.599 -0.1757 -0.0871  0.4400
  134OSM    H7F14561   3.994   0.677   7.647 -2.3126  1.4872 -0.1358
  134OSM    H7G14562   3.985   0.825   7.576 -0.8024 -0.6514  0.7067
  134OSM    C8F14563   4.172   0.801   7.688 -0.2517  0.2023  0.2741
  134OSM    H8F14564   4.127   0.823   7.787 -1.7231  2.8768 -0.8779
  134OSM    H8G14565   4.203   0.897   7.640  1.5957 -0.8151 -0.6710
  134OSM    C9F14566   4.298   0.719   7.701 -0.1265 -0.4489 -0.2091
  134OSM    H9F14567   4.366   0.727   7.614  0.1662 -1.9226 -0.1554
  134OSM   C10F14568   4.329   0.643   7.804 -0.6161 -0.2151  0.3799
  134OSM   H10F14569   4.426   0.590   7.799 -0.8377 -0.5113 -1.6382
  134OSM   C11F14570   4.245   0.606   7.922  0.2325  0.4793 -0.3587
  134OSM   H11F14571   4.244   0.496   7.938  0.3561  0.6342  0.7675
  134OSM   H11G14572   4.137   0.623   7.905  0.2222  0.2272 -0.5549
  134OSM   C12F14573   4.290   0.676   8.049  0.1111  0.2329 -0.2972
  134OSM   H12F14574   4.220   0.651   8.131 -0.7813  1.5846 -0.6299
  134OSM   H12G14575   4.273   0.784   8.032 -0.9807  0.3517  1.3231
  134OSM   C13F14576   4.429   0.627   8.091  0.6881  0.3643 -0.3537
  134OSM   H13F14577   4.502   0.658   8.014  0.5184  0.6822 -0.3854
  134OSM   H13G14578   4.422   0.517   8.108 -0.7740  0.2971 -1.2952
  134OSM   C14F14579   4.468   0.682   8.229 -0.1537  0.2208  0.3135
  134OSM   H14F14580   4.575   0.653   8.237  0.2373  2.1264  3.3048
  134OSM   H14G14581   4.404   0.638   8.308 -1.4979  0.1884 -0.7454
  134OSM   C15F14582   4.453   0.835   8.244 -0.3482 -0.5799 -0.8582
  134OSM   H15F14583   4.347   0.864   8.258  0.1865  0.4270  1.5313
  134OSM   H15G14584   4.498   0.895   8.162  1.6936 -1.7578 -0.6587
  134OSM   C16F14585   4.524   0.885   8.374 -0.2493  0.4271 -0.2939
  134OSM   H16F14586   4.635   0.886   8.364 -0.0528 -3.7316 -0.0091
  134OSM   H16G14587   4.493   0.815   8.454 -1.6295 -1.0696 -2.0652
  134OSM   C17F14588   4.470   1.028   8.408 -0.1130 -0.4424 -0.0539
  134OSM   H17F14589   4.365   1.026   8.443 -0.3770 -3.2622 -0.7470
  134OSM   H17G14590   4.494   1.088   8.317  0.9227  0.6139  0.8798
  134OSM   C18F14591   4.545   1.098   8.527  0.6649  0.7581 -0.1999
  134OSM   H18F14592   4.487   1.188   8.559 -0.4562 -0.5951  1.8281
  134OSM   H18G14593   4.643   1.133   8.489  0.1893  1.1792 -1.0585
  134OSM   H18H14594   4.549   1.020   8.606 -3.5458  1.6826  1.1776
  135OSM      N14595   3.285   0.708   6.230  0.2811  0.3929  0.0247
  135OSM    C1514596   3.240   0.597   6.140  0.0668 -0.1692 -0.1366
  135OSM   H15A14597   3.188   0.627   6.050  1.3653  2.2571 -0.1558
  135OSM   H15B14598   3.180   0.523   6.193  1.1144 -0.6266  0.4406
  135OSM   H15C14599   3.319   0.528   6.115 -0.0999 -0.0279 -1.1035
  135OSM    C1414600   3.166   0.787   6.270 -0.1186  0.8715  0.0676
  135OSM   H14A14601   3.191   0.858   6.347  0.1574  1.7292 -0.7932
  135OSM   H14B14602   3.089   0.727   6.317  0.0046  0.3090 -0.4313
  135OSM   H14C14603   3.130   0.837   6.181  0.0570  1.4230  0.3014
  135OSM    C1314604   3.341   0.654   6.361 -0.1460  0.6791  0.1577
  135OSM   H13A14605   3.385   0.726   6.427  0.0098 -0.1316  0.9640
  135OSM   H13B14606   3.421   0.581   6.358  0.7466  1.6501 -0.3314
  135OSM   H13C14607   3.266   0.603   6.419 -1.0408  1.6371 -0.1327
  135OSM    C1214608   3.379   0.793   6.144  0.1591 -0.2613  0.3458
  135OSM   H12A14609   3.322   0.823   6.057  1.6878  0.9068 -0.3044
  135OSM   H12B14610   3.452   0.723   6.108  0.5159  0.8900 -1.2915
  135OSM    C1114611   3.459   0.910   6.214 -0.4337 -0.0256 -0.6594
  135OSM   H11A14612   3.513   0.966   6.134  0.3141 -1.2550 -1.0275
  135OSM   H11B14613   3.538   0.848   6.260 -0.3757 -0.2051 -1.0012
  135OSM      P14614   3.444   1.043   6.439  0.3456 -0.2075  0.4438
  135OSM    O1314615   3.570   1.109   6.389  0.7211  0.1389 -0.3529
  135OSM    O1414616   3.348   1.119   6.517 -0.1113  0.1243 -0.5119
  135OSM    O1114617   3.471   0.905   6.512 -0.3162  0.2192 -0.0404
  135OSM    O1214618   3.379   0.987   6.305 -0.6408 -0.1633 -0.2697
  135OSM    C1S14619   3.599   0.898   6.588 -0.2897 -0.7267 -0.5855
  135OSM    H1S14620   3.686   0.961   6.560  0.6153 -2.3405 -1.5382
  135OSM    H1T14621   3.644   0.796   6.585  3.6887  0.8655 -1.8311
  135OSM     NF14622   3.693   0.907   6.821  0.5430  0.3075 -0.0914
  135OSM    HNF14623   3.711   0.821   6.868  0.5512 -0.7037 -1.8557
  135OSM    C2S14624   3.571   0.921   6.739  0.9798 -0.4989 -0.4672
  135OSM    H2S14625   3.534   1.025   6.751  0.8417 -0.6431  0.4350
  135OSM    C3S14626   3.460   0.818   6.784 -0.4543 -0.1627  0.5883
  135OSM    H3S14627   3.516   0.725   6.761  3.0570  2.0218 -0.4074
  135OSM     O314628   3.332   0.816   6.710 -0.0751 -0.0692 -0.1008
  135OSM    HO314629   3.353   0.864   6.630  1.5982 -1.1869 -0.3904
  135OSM    C4S14630   3.433   0.823   6.931  0.0869  0.0211  0.3450
  135OSM    H4S14631   3.480   0.744   6.992 -0.8455 -0.7235  0.1302
  135OSM    C5S14632   3.363   0.919   6.992  0.9095 -0.4946  0.2386
  135OSM    H5S14633   3.303   0.991   6.935  0.8453 -1.3760 -0.8271
  135OSM    C6S14634   3.350   0.916   7.142 -0.1343 -0.1827 -0.3655
  135OSM    H6S14635   3.367   0.815   7.186  0.6927 -0.3175 -0.9652
  135OSM    H6T14636   3.244   0.939   7.167  0.5055  0.5670  1.9134
  135OSM    C7S14637   3.433   1.017   7.229  0.4925  0.7472  0.0875
  135OSM    H7S14638   3.409   1.007   7.337  2.6146  0.0728  0.5380
  135OSM    H7T14639   3.402   1.119   7.197  0.0959  0.7863  0.5803
  135OSM    C8S14640   3.583   1.001   7.205 -0.1138  0.7535 -0.2351
  135OSM    H8S14641   3.640   1.069   7.272  0.5571 -1.1549  1.2400
  135OSM    H8T14642   3.617   1.019   7.101  4.5885  1.4030  1.1455
  135OSM    C9S14643   3.632   0.863   7.264  0.3292  0.4598 -0.0113
  135OSM    H9S14644   3.741   0.858   7.242  0.2629  1.4805 -0.6303
  135OSM    H9T14645   3.578   0.776   7.220 -0.7376 -0.0677  2.1704
  135OSM   C10S14646   3.618   0.829   7.417 -0.9995  0.4881 -0.1049
  135OSM   H10S14647   3.511   0.847   7.442 -0.6353  0.9859  1.1546
  135OSM   H10T14648   3.670   0.903   7.482  0.3112 -1.7378  1.5433
  135OSM   C11S14649   3.661   0.689   7.465 -0.3671 -0.4936  0.0370
  135OSM   H11S14650   3.771   0.695   7.482 -0.4305 -1.4936  0.9124
  135OSM   H11T14651   3.636   0.620   7.382 -1.1222  1.3233 -1.2995
  135OSM   C12S14652   3.597   0.654   7.601  0.6896  0.3114  0.2409
  135OSM   H12S14653   3.606   0.545   7.620 -3.0915 -0.4902 -1.6225
  135OSM   H12T14654   3.488   0.673   7.595  1.2931  4.4251 -0.7249
  135OSM   C13S14655   3.660   0.719   7.721  0.4542 -0.4641 -0.3963
  135OSM   H13S14656   3.642   0.827   7.703  0.6822 -0.3624 -0.0135
  135OSM   H13T14657   3.769   0.701   7.728  0.7038  1.3102  0.9387
  135OSM   C14S14658   3.607   0.663   7.854  0.2040 -0.1758  0.0877
  135OSM   H14S14659   3.663   0.569   7.875  0.7740  0.6085  2.4909
  135OSM   H14T14660   3.504   0.626   7.837  1.0340 -1.2291 -3.4504
  135OSM   C15S14661   3.626   0.763   7.965  0.0880 -0.4813 -0.4952
  135OSM   H15S14662   3.563   0.852   7.944 -0.5157 -0.7633  0.0909
  135OSM   H15T14663   3.732   0.797   7.975  0.1412 -0.3140 -1.5636
  135OSM   C16S14664   3.564   0.726   8.104  0.2118 -0.2330 -1.2083
  135OSM   H16S14665   3.453   0.715   8.099 -0.1442  1.5767  0.9808
  135OSM   H16T14666   3.578   0.810   8.175  0.4512 -0.2278 -1.2610
  135OSM   C17S14667   3.638   0.609   8.175  0.0693  0.0871  0.0255
  135OSM   H17S14668   3.628   0.530   8.097 -2.9890 -1.1129  1.4588
  135OSM   H17T14669   3.593   0.570   8.269  0.1074  1.3941  0.6050
  135OSM   C18S14670   3.785   0.616   8.200  0.6437 -0.6162  0.3739
  135OSM   H18S14671   3.845   0.627   8.107 -0.4227 -0.5754 -0.3207
  135OSM   H18T14672   3.819   0.517   8.237 -0.3516 -0.4782  1.7643
  135OSM   H18U14673   3.813   0.702   8.265  1.8921 -1.1149  0.5276
  135OSM    C1F14674   3.776   1.009   6.833  0.2815  0.4575 -0.9832
  135OSM     OF14675   3.765   1.108   6.764  0.1885  0.0436 -0.4253
  135OSM    C2F14676   3.887   1.008   6.934 -0.1508  0.3081  0.0011
  135OSM    H2F14677   3.974   0.946   6.903  0.4214  1.0353  0.1149
  135OSM    H2G14678   3.850   0.961   7.027 -0.7736 -1.5424 -1.1185
  135OSM    C3F14679   3.939   1.149   6.977 -0.3432 -0.2886 -0.3212
  135OSM    H3F14680   3.863   1.190   7.048 -0.3192 -3.0640  1.4567
  135OSM    H3G14681   3.935   1.219   6.891 -0.1554  2.3157  1.6494
  135OSM    C4F14682   4.079   1.149   7.034  0.2514  0.6886  0.7069
  135OSM    H4F14683   4.105   1.257   7.047  0.0400  0.9966 -1.1330
  135OSM    H4G14684   4.159   1.124   6.961 -0.7741 -0.5942 -0.0108
  135OSM    C5F14685   4.097   1.080   7.169  0.1088  0.0709  0.0224
  135OSM    H5F14686   4.203   1.100   7.195  0.6647  1.3306 -2.7371
  135OSM    H5G14687   4.077   0.972   7.156  0.0351  0.0325  0.4677
  135OSM    C6F14688   4.009   1.140   7.283  0.5053 -0.3920  0.0866
  135OSM    H6F14689   3.903   1.125   7.251  0.7297 -0.5892 -0.5706
  135OSM    H6G14690   4.016   1.250   7.295  0.7427 -0.1315 -2.1108
  135OSM    C7F14691   4.028   1.067   7.415 -0.4588 -0.4211  0.3804
  135OSM    H7F14692   4.138   1.062   7.429 -0.3173  3.3279  1.7935
  135OSM    H7G14693   3.988   0.967   7.386  0.6607 -0.8606  0.3263
  135OSM    C8F14694   3.955   1.127   7.544 -0.3105  0.2431  0.8421
  135OSM    H8F14695   3.957   1.049   7.623 -1.4753 -0.8220 -0.1206
  135OSM    H8G14696   3.849   1.150   7.519  0.5107  4.1087  0.3519
  135OSM    C9F14697   4.017   1.256   7.596 -0.0124  0.1263 -0.2046
  135OSM    H9F14698   4.124   1.244   7.619  0.9285  2.2436 -2.9087
  135OSM   C10F14699   3.962   1.380   7.607 -0.2944 -0.0038  0.2374
  135OSM   H10F14700   4.023   1.468   7.630 -1.5657  0.7879  0.6988
  135OSM   C11F14701   3.824   1.423   7.563  0.3534 -0.0962  1.0524
  135OSM   H11F14702   3.816   1.533   7.578  1.2560  0.3500 -1.2960
  135OSM   H11G14703   3.744   1.364   7.611 -2.0710 -0.4233 -2.9570
  135OSM   C12F14704   3.802   1.424   7.408  0.2882  0.9924 -0.3991
  135OSM   H12F14705   3.829   1.330   7.356  0.0520 -0.1923  1.5070
  135OSM   H12G14706   3.864   1.508   7.371  0.9396  0.7116  0.0257
  135OSM   C13F14707   3.655   1.446   7.384  0.5195  0.1117 -0.6476
  135OSM   H13F14708   3.625   1.553   7.397  1.7299  0.1859  2.0992
  135OSM   H13G14709   3.590   1.377   7.442  0.0828  0.2286 -0.9939
  135OSM   C14F14710   3.619   1.427   7.237 -0.0583  0.1807 -0.6583
  135OSM   H14F14711   3.656   1.333   7.193 -1.6650 -1.2784  0.9400
  135OSM   H14G14712   3.669   1.510   7.182  0.0406  0.2077 -0.5278
  135OSM   C15F14713   3.463   1.438   7.204  0.3587 -0.4445  0.0996
  135OSM   H15F14714   3.426   1.527   7.258 -1.0704 -0.4401 -0.8478
  135OSM   H15G14715   3.403   1.348   7.230 -0.9621  0.3319 -0.1606
  135OSM   C16F14716   3.442   1.463   7.048 -0.6918 -0.0381 -0.0692
  135OSM   H16F14717   3.483   1.375   6.992  2.4518  0.6870  0.8765
  135OSM   H16G14718   3.512   1.543   7.015  1.1571 -2.4541 -2.5186
  135OSM   C17F14719   3.299   1.497   7.007 -0.0209 -0.5988 -0.1951
  135OSM   H17F14720   3.262   1.572   7.081 -0.9318  1.4283 -2.5521
  135OSM   H17G14721   3.242   1.402   7.003  1.9538 -1.8360 -0.3508
  135OSM   C18F14722   3.299   1.566   6.875  0.0441 -0.1058  0.2158
  135OSM   H18F14723   3.322   1.486   6.801 -0.9077  0.4133 -0.6581
  135OSM   H18G14724   3.378   1.643   6.875  1.2575 -1.3043  1.2160
  135OSM   H18H14725   3.200   1.605   6.841 -0.8260 -1.9083  0.5382
  136OSM      N14726   0.662   0.589   5.862  0.4009 -0.0686 -0.1418
  136OSM    C1514727   0.586   0.604   5.738  0.2560  0.3732  0.2510
  136OSM   H15A14728   0.494   0.553   5.764  2.0220 -2.3744  1.5337
  136OSM   H15B14729   0.631   0.548   5.658  0.4120  1.6878 -0.6142
  136OSM   H15C14730   0.573   0.705   5.702 -0.5020  0.7526  1.4927
  136OSM    C1414731   0.671   0.448   5.897 -0.4201  0.1044  0.2550
  136OSM   H14A14732   0.575   0.397   5.897  0.4717 -1.7215 -1.5249
  136OSM   H14B14733   0.698   0.450   6.001 -3.7431 -0.5667  1.2381
  136OSM   H14C14734   0.740   0.396   5.832  0.3530  0.6972  0.5864
  136OSM    C1314735   0.800   0.634   5.826  0.1353  0.0636 -0.1606
  136OSM   H13A14736   0.837   0.586   5.737 -0.9161  1.0534 -1.1495
  136OSM   H13B14737   0.864   0.617   5.912 -0.6750  0.1459  0.4641
  136OSM   H13C14738   0.805   0.741   5.810  0.2352  0.6607  3.0850
  136OSM    C1214739   0.595   0.664   5.978 -0.2449 -0.1587 -0.5241
  136OSM   H12A14740   0.627   0.623   6.073  0.0648 -0.1980 -0.6443
  136OSM   H12B14741   0.488   0.649   5.977 -0.4093  0.7545  0.6096
  136OSM    C1114742   0.611   0.817   5.984  0.2913  0.2200  0.1627
  136OSM   H11A14743   0.531   0.864   6.045 -1.2184 -1.7607 -0.1968
  136OSM   H11B14744   0.603   0.860   5.882  2.4797  0.8322  0.2105
  136OSM      P14745   0.795   1.002   6.027  0.4765  0.0466 -0.1848
  136OSM    O1314746   0.937   0.993   6.005  0.2908 -0.4977 -0.0207
  136OSM    O1414747   0.715   1.084   5.929 -0.0532  0.5346 -0.2631
  136OSM    O1114748   0.761   1.063   6.171 -0.3371 -0.0891 -0.4136
  136OSM    O1214749   0.743   0.852   6.028 -0.2120 -0.2057 -0.2371
  136OSM    C1S14750   0.675   1.003   6.269 -0.6921  0.7507  0.0521
  136OSM    H1S14751   0.705   0.897   6.264  0.5608  1.1295 -0.7648
  136OSM    H1T14752   0.573   1.014   6.225 -1.3452  0.2882  1.3864
  136OSM     NF14753   0.605   0.994   6.504 -0.1210 -0.0234 -0.1470
  136OSM    HNF14754   0.541   1.048   6.557 -0.2231 -0.3394  0.0592
  136OSM    C2S14755   0.689   1.060   6.409 -0.7264  0.0209  0.2040
  136OSM    H2S14756   0.794   1.042   6.439 -0.1081 -0.1984 -1.9745
  136OSM    C3S14757   0.674   1.221   6.405 -0.6489  0.6473  0.3789
  136OSM    H3S14758   0.568   1.245   6.383 -2.3410 -1.0278  5.3226
  136OSM     O314759   0.751   1.284   6.300  0.0802 -0.4536  0.3573
  136OSM    HO314760   0.769   1.210   6.241 -2.6818  0.5247 -1.9653
  136OSM    C4S14761   0.701   1.280   6.544 -0.1016  0.3657 -0.2606
  136OSM    H4S14762   0.608   1.322   6.585 -0.7145 -0.8153 -0.3996
  136OSM    C5S14763   0.818   1.290   6.611  0.9156  0.4634 -0.7752
  136OSM    H5S14764   0.901   1.224   6.579 -0.0745 -0.3989 -1.6357
  136OSM    C6S14765   0.829   1.353   6.747 -0.1970  0.6942  0.0420
  136OSM    H6S14766   0.870   1.455   6.733 -0.1200  1.2605  3.5042
  136OSM    H6T14767   0.911   1.299   6.801  2.5394  2.1054 -2.4468
  136OSM    C7S14768   0.705   1.367   6.846  0.1404 -0.0178  0.1139
  136OSM    H7S14769   0.674   1.262   6.868  1.9043 -0.6438 -0.2222
  136OSM    H7T14770   0.619   1.415   6.796 -0.5850 -1.2213  0.1735
  136OSM    C8S14771   0.747   1.442   6.972 -0.4111  0.3905 -0.5261
  136OSM    H8S14772   0.665   1.513   7.000 -0.4861  0.4788 -0.9569
  136OSM    H8T14773   0.834   1.506   6.947  0.2592 -0.3799 -0.1860
  136OSM    C9S14774   0.778   1.360   7.093  0.7130  0.3571 -0.7235
  136OSM    H9S14775   0.872   1.302   7.086 -0.1099 -1.1171  0.1418
  136OSM    H9T14776   0.702   1.282   7.113  1.4357 -0.0828  0.3601
  136OSM   C10S14777   0.778   1.453   7.216  0.1377 -0.3486  0.1864
  136OSM   H10S14778   0.700   1.532   7.218  1.3720  0.9108  2.8431
  136OSM   H10T14779   0.871   1.510   7.200 -0.3765  0.4594  0.0494
  136OSM   C11S14780   0.776   1.393   7.351 -0.4488  0.8297 -0.5150
  136OSM   H11S14781   0.870   1.339   7.375 -1.1075  0.7107  2.1354
  136OSM   H11T14782   0.691   1.321   7.353 -1.3788  1.9009  0.3860
  136OSM   C12S14783   0.755   1.489   7.468  0.2075  0.1647 -0.2010
  136OSM   H12S14784   0.657   1.540   7.453  0.2240  0.0594 -0.6781
  136OSM   H12T14785   0.835   1.565   7.453 -0.0443  0.2290 -1.3037
  136OSM   C13S14786   0.763   1.423   7.604  0.0983 -0.2930  0.2545
  136OSM   H13S14787   0.674   1.361   7.629  0.4438 -0.9515 -0.1365
  136OSM   H13T14788   0.770   1.511   7.671  1.0858  0.2336 -0.5166
  136OSM   C14S14789   0.893   1.339   7.626  0.1428  0.3283  0.2213
  136OSM   H14S14790   0.979   1.409   7.618 -0.9968  2.1336  2.4301
  136OSM   H14T14791   0.907   1.262   7.547  3.5859  2.9868 -2.0228
  136OSM   C15S14792   0.886   1.275   7.761  0.2117  0.4897  0.8334
  136OSM   H15S14793   0.794   1.212   7.762 -0.0843  0.8511 -0.8463
  136OSM   H15T14794   0.875   1.352   7.840 -0.4913 -2.0219  3.3757
  136OSM   C16S14795   1.017   1.195   7.784  0.2503  0.3617 -0.2111
  136OSM   H16S14796   1.108   1.245   7.744  2.7807 -1.9768  2.1518
  136OSM   H16T14797   1.017   1.102   7.723 -1.2050 -0.0950  0.4258
  136OSM   C17S14798   1.040   1.175   7.934  0.1804  0.3455 -0.2889
  136OSM   H17S14799   1.098   1.262   7.971 -0.0158  1.8595 -3.2274
  136OSM   H17T14800   1.107   1.087   7.927  3.7170  2.8844 -0.6684
  136OSM   C18S14801   0.916   1.140   8.027 -0.1489  0.5008  1.0433
  136OSM   H18S14802   0.945   1.071   8.109 -1.0871  1.0701  1.8824
  136OSM   H18T14803   0.842   1.090   7.960  0.6792  1.3329 -0.5399
  136OSM   H18U14804   0.869   1.234   8.065 -0.9203 -0.0952  1.6103
  136OSM    C1F14805   0.613   0.869   6.551  0.2127 -0.1775  0.7296
  136OSM     OF14806   0.677   0.780   6.498 -0.0872  0.4108 -0.1123
  136OSM    C2F14807   0.532   0.831   6.667 -0.0038 -0.2295 -0.4082
  136OSM    H2F14808   0.427   0.831   6.631  0.0739  0.0765 -0.6386
  136OSM    H2G14809   0.537   0.896   6.757 -2.3333 -1.1803  0.4961
  136OSM    C3F14810   0.552   0.691   6.730  0.5321 -0.1204 -0.5386
  136OSM    H3F14811   0.658   0.664   6.750  0.1461 -1.6039 -0.3894
  136OSM    H3G14812   0.513   0.614   6.660  1.0611 -0.2044 -0.7393
  136OSM    C4F14813   0.485   0.672   6.866 -0.6871  0.5468  0.1013
  136OSM    H4F14814   0.459   0.564   6.877  0.1039  0.5141  2.0858
  136OSM    H4G14815   0.395   0.735   6.880 -0.6717  0.2948  1.4521
  136OSM    C5F14816   0.569   0.718   6.989  0.0730 -0.0240  0.3881
  136OSM    H5F14817   0.585   0.828   6.986  1.2888 -0.1813  0.5585
  136OSM    H5G14818   0.671   0.674   6.987 -0.6163 -1.7107  0.9402
  136OSM    C6F14819   0.511   0.701   7.130 -0.9371  0.6418  0.2618
  136OSM    H6F14820   0.587   0.732   7.205  0.4680  2.1443 -1.6995
  136OSM    H6G14821   0.499   0.591   7.143  2.2524  0.0479 -1.0168
  136OSM    C7F14822   0.374   0.759   7.159  0.2682 -0.7042 -0.6321
  136OSM    H7F14823   0.298   0.687   7.121  1.1642 -2.4044  0.7241
  136OSM    H7G14824   0.380   0.858   7.108 -1.3186 -1.0966 -1.6636
  136OSM    C8F14825   0.354   0.789   7.310  0.0454  0.7812 -0.0779
  136OSM    H8F14826   0.266   0.857   7.316 -0.0995  0.7634 -1.5241
  136OSM    H8G14827   0.438   0.858   7.334  0.4155 -0.3021  1.9887
  136OSM    C9F14828   0.351   0.668   7.402  0.0897  0.0399 -0.7057
  136OSM    H9F14829   0.358   0.572   7.348 -1.2568  0.4959 -1.7385
  136OSM   C10F14830   0.325   0.675   7.532 -0.0548 -0.4509 -0.0602
  136OSM   H10F14831   0.319   0.582   7.589 -2.9112 -0.4725 -0.2693
  136OSM   C11F14832   0.290   0.800   7.611 -0.2339 -0.0847  0.0125
  136OSM   H11F14833   0.294   0.895   7.552  3.2588  0.4088  0.8357
  136OSM   H11G14834   0.361   0.814   7.695 -0.7216  0.7089  0.3057
  136OSM   C12F14835   0.159   0.783   7.681 -0.7999 -0.1733  0.0070
  136OSM   H12F14836   0.151   0.690   7.741  0.0037  0.3461  0.9528
  136OSM   H12G14837   0.080   0.791   7.603 -0.4064  1.4496 -0.2699
  136OSM   C13F14838   0.127   0.905   7.772 -0.5101  0.1808  0.3354
  136OSM   H13F14839   0.023   0.944   7.776  0.4251  2.8092  2.9226
  136OSM   H13G14840   0.190   0.991   7.739 -0.2123  0.4592  1.6029
  136OSM   C14F14841   0.171   0.892   7.917 -0.1675  0.1957  0.1258
  136OSM   H14F14842   0.174   0.989   7.970  0.8831 -1.1737  2.7471
  136OSM   H14G14843   0.274   0.850   7.922 -0.8826 -1.9000 -1.1031
  136OSM   C15F14844   0.081   0.807   8.013 -0.6762 -0.2621 -0.2530
  136OSM   H15F14845   0.095   0.699   7.992  1.9556 -0.1392  0.4930
  136OSM   H15G14846  -0.026   0.828   7.993 -0.9680 -0.2422  1.2145
  136OSM   C16F14847   0.104   0.831   8.166  0.6222 -0.8224 -0.1179
  136OSM   H16F14848   0.000   0.831   8.207  0.9929  0.2094  0.8730
  136OSM   H16G14849   0.133   0.937   8.179  0.4111 -0.7121 -0.5246
  136OSM   C17F14850   0.205   0.747   8.245 -0.1520 -0.0992  0.3086
  136OSM   H17F14851   0.213   0.795   8.345  2.6898  1.8327 -0.7122
  136OSM   H17G14852   0.309   0.764   8.207 -0.5783  1.2680 -0.3304
  136OSM   C18F14853   0.167   0.601   8.270  0.5612  0.1454 -0.1399
  136OSM   H18F14854   0.161   0.531   8.183  0.1090 -1.7734  1.3617
  136OSM   H18G14855   0.068   0.595   8.320  1.0243  0.9203  0.8890
  136OSM   H18H14856   0.244   0.557   8.336  0.5447 -2.2613 -1.5789
  137OSM      N14857   3.680   5.283   6.502  1.1018 -0.1217  0.1701
  137OSM    C1514858   3.634   5.426   6.482  0.4021 -0.0820  0.1471
  137OSM   H15A14859   3.660   5.461   6.383 -1.0042 -0.7333 -0.4742
  137OSM   H15B14860   3.674   5.495   6.556  0.7693  2.0485 -1.9017
  137OSM   H15C14861   3.526   5.419   6.480  0.4255 -0.4522 -1.7644
  137OSM    C1414862   3.607   5.218   6.612 -0.0719 -0.0000 -0.0401
  137OSM   H14A14863   3.501   5.231   6.597 -0.8745 -0.7962  3.9337
  137OSM   H14B14864   3.620   5.280   6.698 -0.8602  1.3355 -0.8521
  137OSM   H14C14865   3.622   5.112   6.628 -0.5701  0.0117  0.5278
  137OSM    C1314866   3.622   5.215   6.375  0.0357 -0.2349  0.2819
  137OSM   H13A14867   3.515   5.216   6.384  0.0894  0.6194  0.9172
  137OSM   H13B14868   3.649   5.111   6.364 -1.0758 -0.6277  1.0448
  137OSM   H13C14869   3.653   5.267   6.286 -3.1387  1.4607  0.0629
  137OSM    C1214870   3.831   5.276   6.520 -0.6125  0.0962  0.0669
  137OSM   H12A14871   3.869   5.335   6.438  0.0358  1.1041  1.0817
  137OSM   H12B14872   3.860   5.172   6.519  2.0495  0.7246  1.9875
  137OSM    C1114873   3.897   5.346   6.644 -0.2913 -0.0787  0.2886
  137OSM   H11A14874   3.996   5.300   6.660  0.2726  1.3873  1.2529
  137OSM   H11B14875   3.835   5.330   6.735  0.2933  0.1111  0.7279
  137OSM      P14876   4.012   5.534   6.501 -0.0825  0.2230 -0.4154
  137OSM    O1314877   4.073   5.420   6.431  0.2738  0.0053  0.1742
  137OSM    O1414878   3.944   5.639   6.419 -0.4907  0.0591 -0.0470
  137OSM    O1114879   4.116   5.594   6.593  0.0077 -0.4367  0.6012
  137OSM    O1214880   3.908   5.485   6.605  0.4852  0.3293 -1.3053
  137OSM    C1S14881   4.089   5.706   6.670 -0.1915  0.2438  0.3317
  137OSM    H1S14882   4.039   5.790   6.618 -0.1741  0.8442  1.2642
  137OSM    H1T14883   4.186   5.744   6.708  0.6422  0.2819 -1.6871
  137OSM     NF14884   3.994   5.808   6.863  0.4034 -0.8609  0.1914
  137OSM    HNF14885   4.038   5.836   6.948 -0.3327  0.9500  0.0087
  137OSM    C2S14886   4.022   5.683   6.807 -0.3447 -0.6463 -0.0909
  137OSM    H2S14887   3.925   5.633   6.787  0.0325 -0.9376 -1.2454
  137OSM    C3S14888   4.111   5.590   6.895 -0.4043  0.4214  0.1420
  137OSM    H3S14889   4.212   5.634   6.908  0.7713 -2.1903  0.5420
  137OSM     O314890   4.142   5.460   6.844 -0.1473  0.2264  0.3617
  137OSM    HO314891   4.122   5.465   6.751 -1.1998  3.5439  0.6437
  137OSM    C4S14892   4.036   5.558   7.030 -0.2281  0.2273 -0.2145
  137OSM    H4S14893   3.929   5.536   7.027  0.2428 -2.5101  0.6444
  137OSM    C5S14894   4.105   5.560   7.149  0.4592 -0.0239  0.5441
  137OSM    H5S14895   4.210   5.593   7.149  0.2785  0.6729 -1.1662
  137OSM    C6S14896   4.035   5.536   7.279 -0.5932  0.5178 -0.1739
  137OSM    H6S14897   3.952   5.463   7.267 -2.4329  2.7014 -1.5817
  137OSM    H6T14898   3.997   5.633   7.320 -0.3190  0.7777 -0.5346
  137OSM    C7S14899   4.126   5.480   7.393 -0.0249  0.2578 -0.5988
  137OSM    H7S14900   4.224   5.533   7.396  0.4025 -0.5442  1.9928
  137OSM    H7T14901   4.153   5.376   7.365  0.2593  0.5447 -1.4280
  137OSM    C8S14902   4.049   5.489   7.527 -0.2012 -0.2039  0.6506
  137OSM    H8S14903   4.005   5.591   7.538 -1.8490 -0.8390  0.2272
  137OSM    H8T14904   4.116   5.479   7.614  0.4796  0.3972  0.2144
  137OSM    C9S14905   3.952   5.368   7.550 -0.9764  0.6119  0.3446
  137OSM    H9S14906   4.006   5.271   7.542 -0.9042  0.4877  2.0778
  137OSM    H9T14907   3.877   5.376   7.468  1.9374 -0.1526 -2.6138
  137OSM   C10S14908   3.901   5.387   7.699 -1.1106 -0.3038  0.7092
  137OSM   H10S14909   3.808   5.448   7.694  0.7251  2.6597  0.3865
  137OSM   H10T14910   3.979   5.435   7.762 -0.4120 -1.1919  0.5402
  137OSM   C11S14911   3.858   5.262   7.774  0.4459 -0.5414 -0.1976
  137OSM   H11S14912   3.946   5.204   7.811 -0.5270 -1.0253  1.4584
  137OSM   H11T14913   3.783   5.194   7.727  0.1547 -1.3235  1.3280
  137OSM   C12S14914   3.798   5.304   7.906  0.4043  0.1759  0.3917
  137OSM   H12S14915   3.722   5.379   7.875  0.3431 -0.5580 -1.3370
  137OSM   H12T14916   3.867   5.369   7.965  1.9821 -1.7990  0.8376
  137OSM   C13S14917   3.743   5.181   7.987 -0.7074  0.1902 -0.3668
  137OSM   H13S14918   3.821   5.102   7.987 -2.5098 -1.6658 -1.1186
  137OSM   H13T14919   3.655   5.128   7.946 -0.4812 -0.6402  0.1957
  137OSM   C14S14920   3.708   5.215   8.132  0.2213 -0.8878 -0.5992
  137OSM   H14S14921   3.643   5.305   8.131  0.6443 -0.4382  2.4316
  137OSM   H14T14922   3.796   5.253   8.189 -1.1868  2.1060 -0.2297
  137OSM   C15S14923   3.630   5.101   8.211  0.2455  0.0767  0.4933
  137OSM   H15S14924   3.679   5.004   8.184  2.9493  1.6125 -0.4673
  137OSM   H15T14925   3.532   5.096   8.159  0.1347  1.3441  0.5545
  137OSM   C16S14926   3.620   5.112   8.360 -0.0607  0.3320  0.2752
  137OSM   H16S14927   3.560   5.203   8.379  0.9804  1.3567 -1.1485
  137OSM   H16T14928   3.719   5.132   8.406  0.6542  0.3936 -1.2528
  137OSM   C17S14929   3.533   4.998   8.419 -0.2894 -0.0998 -0.0155
  137OSM   H17S14930   3.581   4.898   8.433 -1.6456 -0.8869 -0.7119
  137OSM   H17T14931   3.450   4.979   8.347  0.5852 -3.0340 -0.4133
  137OSM   C18S14932   3.480   5.035   8.560  0.1329  0.0843  0.4371
  137OSM   H18S14933   3.391   5.102   8.552 -0.2085 -0.5450 -1.9678
  137OSM   H18T14934   3.564   5.084   8.612 -0.0204 -0.7750  1.5270
  137OSM   H18U14935   3.450   4.946   8.619  2.6816 -0.4625  1.0198
  137OSM    C1F14936   3.896   5.890   6.811 -0.4612  0.3374 -0.0596
  137OSM     OF14937   3.819   5.849   6.721 -0.6842  0.4218  0.2807
  137OSM    C2F14938   3.896   6.029   6.862 -0.2397  0.0945  0.1108
  137OSM    H2F14939   3.951   6.095   6.791  1.1140  0.3865  1.3828
  137OSM    H2G14940   3.942   6.030   6.963 -1.5303 -0.1451  0.7228
  137OSM    C3F14941   3.752   6.083   6.875  0.1724 -0.3254 -0.0780
  137OSM    H3F14942   3.689   6.011   6.932  2.2800 -1.7801  0.5357
  137OSM    H3G14943   3.712   6.098   6.772 -0.3766 -0.6619  0.0775
  137OSM    C4F14944   3.741   6.217   6.939 -0.0625  0.4889  0.4071
  137OSM    H4F14945   3.636   6.249   6.923  0.0463  1.0043  0.6916
  137OSM    H4G14946   3.796   6.295   6.881 -0.3715 -0.7941 -1.7526
  137OSM    C5F14947   3.786   6.219   7.084 -0.0753 -0.0097 -0.1189
  137OSM    H5F14948   3.896   6.220   7.075 -0.1291 -0.6018 -0.9788
  137OSM    H5G14949   3.750   6.126   7.133 -3.0772 -0.6073 -3.0945
  137OSM    C6F14950   3.725   6.329   7.173 -0.4095  0.4198  0.6180
  137OSM    H6F14951   3.616   6.312   7.184 -0.1291 -2.6059 -0.2476
  137OSM    H6G14952   3.744   6.422   7.115 -0.1816  0.4486  0.7368
  137OSM    C7F14953   3.790   6.333   7.314  0.3804  1.0759 -0.0869
  137OSM    H7F14954   3.898   6.337   7.288  0.1466 -3.0704 -2.6627
  137OSM    H7G14955   3.772   6.230   7.353 -1.4008  1.6874  0.7958
  137OSM    C8F14956   3.746   6.437   7.418  0.0871 -0.4096 -1.4178
  137OSM    H8F14957   3.771   6.541   7.388 -1.8730  0.9345  1.2321
  137OSM    H8G14958   3.799   6.409   7.512 -2.8507 -3.4309 -0.4548
  137OSM    C9F14959   3.598   6.436   7.439 -0.1402 -0.2594  0.7175
  137OSM    H9F14960   3.543   6.463   7.348  0.1615  1.0996  0.9183
  137OSM   C10F14961   3.535   6.403   7.554 -0.0565 -0.5156  0.3565
  137OSM   H10F14962   3.430   6.433   7.565  0.1078  0.3627 -0.3673
  137OSM   C11F14963   3.595   6.352   7.680 -0.6407  0.0839 -0.3031
  137OSM   H11F14964   3.698   6.313   7.664  0.0381  1.3816  0.7133
  137OSM   H11G14965   3.531   6.264   7.706 -0.5734 -0.4127 -1.7446
  137OSM   C12F14966   3.586   6.449   7.811  0.3192 -0.8273  0.1767
  137OSM   H12F14967   3.487   6.500   7.805 -0.0715 -1.6765 -1.0941
  137OSM   H12G14968   3.666   6.525   7.798 -1.7332  1.2897 -0.7698
  137OSM   C13F14969   3.595   6.385   7.942  0.0586  0.3740  0.1953
  137OSM   H13F14970   3.524   6.299   7.938  0.1511  0.2048  1.5980
  137OSM   H13G14971   3.568   6.447   8.030  0.1444 -1.5378  1.6479
  137OSM   C14F14972   3.739   6.331   7.965 -0.2737 -0.5793  0.7161
  137OSM   H14F14973   3.751   6.243   7.898  0.8252  0.1475 -0.0683
  137OSM   H14G14974   3.738   6.289   8.069 -0.8830  0.0680  0.9776
  137OSM   C15F14975   3.857   6.423   7.935 -0.3060  0.0128 -0.2255
  137OSM   H15F14976   3.840   6.517   7.991 -1.0408 -0.2670  0.0255
  137OSM   H15G14977   3.857   6.443   7.825 -0.0284  1.8946  0.0705
  137OSM   C16F14978   3.995   6.365   7.980 -0.2777  0.0957  0.1713
  137OSM   H16F14979   3.994   6.331   8.086  0.1301  2.0920  0.8459
  137OSM   H16G14980   4.062   6.452   7.965 -1.9294  1.4188  0.1994
  137OSM   C17F14981   4.041   6.250   7.889  0.2790 -0.0597 -0.6289
  137OSM   H17F14982   3.959   6.177   7.872 -0.4092  0.9128 -1.6406
  137OSM   H17G14983   4.119   6.195   7.945 -0.1134 -0.1756 -0.1880
  137OSM   C18F14984   4.102   6.286   7.756 -0.2082  0.7202 -0.1203
  137OSM   H18F14985   4.170   6.212   7.708 -0.7936  0.3480 -0.3892
  137OSM   H18G14986   4.143   6.389   7.769  0.9935  0.0404  1.8499
  137OSM   H18H14987   4.025   6.298   7.676  0.0683  1.3373 -0.3002
  138OSM      N14988   4.927   2.160   6.048  0.3905  0.0470  0.7664
  138OSM    C1514989   4.956   2.257   5.943 -0.1136  0.2230 -0.4747
  138OSM   H15A14990   5.052   2.240   5.897  0.3132  0.8077  0.1841
  138OSM   H15B14991   4.969   2.356   5.984  1.7380  0.5061 -1.5960
  138OSM   H15C14992   4.879   2.264   5.867  0.2843 -3.0665 -1.3384
  138OSM    C1414993   4.815   2.209   6.134  0.3923 -0.2341 -0.3148
  138OSM   H14A14994   4.727   2.225   6.074 -0.0410  0.3218  0.4437
  138OSM   H14B14995   4.845   2.301   6.182  1.5606  0.3112 -1.9626
  138OSM   H14C14996   4.795   2.133   6.208  2.6754 -2.1645 -1.5497
  138OSM    C1314997   4.875   2.035   5.985 -0.0260  0.0227  0.1803
  138OSM   H13A14998   4.940   1.974   5.925 -1.0846 -3.3473  2.1418
  138OSM   H13B14999   4.794   2.061   5.918 -0.5536  1.7905  1.4114
  138OSM   H13C15000   4.819   1.982   6.062 -1.3786  0.4448 -0.4780
  138OSM    C1215001   5.045   2.139   6.133 -0.4982 -0.4299 -0.8989
  138OSM   H12A15002   5.029   2.053   6.196  0.2901 -0.2150 -0.3857
  138OSM   H12B15003   5.067   2.231   6.187 -1.2171  0.4368 -2.0398
  138OSM    C1115004   5.180   2.092   6.063  1.2881 -0.2377 -0.4813
  138OSM   H11A15005   5.261   2.106   6.138  0.8294  3.1217 -0.4630
  138OSM   H11B15006   5.208   2.153   5.975  1.7906 -1.0747 -0.9164
  138OSM      P15007   5.168   1.842   6.121  0.0897 -0.1664  0.1095
  138OSM    O1315008   5.116   1.723   6.054 -0.2182  0.3715 -0.0933
  138OSM    O1415009   5.309   1.829   6.170 -0.4583 -0.8479  0.2692
  138OSM    O1115010   5.084   1.880   6.245 -0.2075 -0.2145 -0.3373
  138OSM    O1215011   5.151   1.958   6.020  0.2146 -0.3863 -0.2985
  138OSM    C1S15012   5.075   1.775   6.346  0.0008  1.3443 -0.8927
  138OSM    H1S15013   5.130   1.681   6.326  0.1394  1.1845  0.1917
  138OSM    H1T15014   4.967   1.748   6.350 -0.3377  2.7126 -0.0418
  138OSM     NF15015   5.087   1.726   6.590 -0.6324  0.0338  0.2503
  138OSM    HNF15016   5.004   1.742   6.643 -0.1698  0.7635  0.7816
  138OSM    C2S15017   5.110   1.828   6.489  0.0264  0.2262 -0.5101
  138OSM    H2S15018   5.215   1.862   6.485 -0.7629  2.9927  0.0350
  138OSM    C3S15019   5.026   1.956   6.531  0.2702 -0.4979  0.2185
  138OSM    H3S15020   4.922   1.923   6.549  0.3101 -0.0699  1.3409
  138OSM     O315021   5.018   2.053   6.425 -0.2788 -0.5752 -0.0195
  138OSM    HO315022   5.052   2.008   6.347  0.0780 -0.6557  0.1809
  138OSM    C4S15023   5.086   2.025   6.648  0.0290  0.5678  0.8066
  138OSM    H4S15024   5.190   2.060   6.635 -0.1191  0.7500  0.1228
  138OSM    C5S15025   5.035   2.031   6.768 -0.2529  0.1241 -0.1092
  138OSM    H5S15026   4.934   1.989   6.783 -1.4638  2.8131 -0.1868
  138OSM    C6S15027   5.094   2.094   6.891  0.0124  0.1442  0.7535
  138OSM    H6S15028   5.052   2.196   6.903 -0.3423  0.2535 -1.1512
  138OSM    H6T15029   5.204   2.108   6.885  0.0348 -0.7153 -1.8587
  138OSM    C7S15030   5.066   2.018   7.021 -0.3287  0.0184  0.7288
  138OSM    H7S15031   5.120   1.922   7.004  0.3006  0.3524  0.8108
  138OSM    H7T15032   4.958   1.993   7.022  0.0799 -1.9543  0.3197
  138OSM    C8S15033   5.111   2.091   7.140 -0.0709 -0.0157 -0.1758
  138OSM    H8S15034   5.085   2.199   7.141 -0.5417 -0.0877 -1.9208
  138OSM    H8T15035   5.222   2.091   7.145 -0.0986  0.8417  1.1791
  138OSM    C9S15036   5.051   2.036   7.266  0.5467  0.4083  0.0272
  138OSM    H9S15037   5.078   1.929   7.277  0.0938  0.3243  0.3441
  138OSM    H9T15038   4.940   2.027   7.262  0.4430  1.5733 -0.0298
  138OSM   C10S15039   5.098   2.107   7.389 -0.3579  0.1091 -0.2049
  138OSM   H10S15040   5.102   2.217   7.377 -0.9159  0.1849  0.2468
  138OSM   H10T15041   5.199   2.077   7.423 -0.0075  1.6584  0.2021
  138OSM   C11S15042   5.020   2.075   7.509  0.1261 -0.1548 -0.3404
  138OSM   H11S15043   5.028   1.965   7.518  0.5015 -0.2846 -2.0210
  138OSM   H11T15044   4.913   2.104   7.495 -1.0126 -3.0824  1.3807
  138OSM   C12S15045   5.066   2.150   7.633 -0.0728  0.0586 -0.9292
  138OSM   H12S15046   5.060   2.261   7.627 -1.2409  0.4961  3.8695
  138OSM   H12T15047   5.172   2.121   7.646 -0.9242 -2.2435  1.9869
  138OSM   C13S15048   4.989   2.110   7.762 -0.4044  0.0920 -0.3899
  138OSM   H13S15049   5.005   2.002   7.781  2.6987  0.1084 -2.4262
  138OSM   H13T15050   4.881   2.133   7.748 -0.4545  1.0837  1.2664
  138OSM   C14S15051   5.048   2.184   7.884 -0.0629  0.3689 -0.0916
  138OSM   H14S15052   5.038   2.293   7.863  1.5834  0.8482  1.3579
  138OSM   H14T15053   5.156   2.166   7.905 -0.2905 -0.1006  0.7006
  138OSM   C15S15054   4.958   2.161   8.003 -0.2552 -0.1140  0.6646
  138OSM   H15S15055   4.954   2.053   8.029  2.1377 -0.6801 -0.9657
  138OSM   H15T15056   4.856   2.190   7.971  1.0339  5.1427  0.5021
  138OSM   C16S15057   4.998   2.233   8.128  0.5491 -0.0829  0.0146
  138OSM   H16S15058   5.028   2.336   8.100 -0.5459  0.3000  0.1889
  138OSM   H16T15059   5.084   2.183   8.179  0.1839 -1.3523 -0.5757
  138OSM   C17S15060   4.880   2.250   8.226 -0.4609 -0.3149 -0.5422
  138OSM   H17S15061   4.871   2.149   8.271  2.6147 -0.6414 -0.4976
  138OSM   H17T15062   4.799   2.276   8.155 -0.7486 -3.0932 -1.3542
  138OSM   C18S15063   4.898   2.353   8.337 -1.1331 -0.8316 -0.0061
  138OSM   H18S15064   4.893   2.453   8.290 -1.7452 -0.7244  0.2837
  138OSM   H18T15065   4.997   2.342   8.386  0.2980  1.2843 -2.2337
  138OSM   H18U15066   4.824   2.360   8.420 -0.0116  2.1941  0.8685
  138OSM    C1F15067   5.167   1.620   6.602 -0.5952  0.4561  0.5659
  138OSM     OF15068   5.277   1.618   6.547 -0.1628 -0.7866 -0.2205
  138OSM    C2F15069   5.122   1.505   6.684  0.2917 -1.1484 -0.1400
  138OSM    H2F15070   5.126   1.411   6.625 -1.5286 -1.1486 -0.3218
  138OSM    H2G15071   5.014   1.511   6.709  0.4187  0.6887  0.0934
  138OSM    C3F15072   5.205   1.493   6.814 -0.2212 -0.0054  0.1823
  138OSM    H3F15073   5.314   1.501   6.793 -0.1265  0.0410  0.6788
  138OSM    H3G15074   5.192   1.392   6.860  2.8498 -0.0051  1.2513
  138OSM    C4F15075   5.172   1.598   6.935 -0.2769  0.3730 -0.0697
  138OSM    H4F15076   5.070   1.570   6.970 -0.5224  1.7480  0.3866
  138OSM    H4G15077   5.161   1.700   6.893  2.0560 -0.1925 -2.3501
  138OSM    C5F15078   5.273   1.582   7.049  0.3042  0.1782 -1.0045
  138OSM    H5F15079   5.363   1.641   7.020  0.3558  0.5600 -0.0945
  138OSM    H5G15080   5.305   1.477   7.060  1.4190  0.4647 -1.4033
  138OSM    C6F15081   5.211   1.644   7.179  0.6010 -0.0902  0.2003
  138OSM    H6F15082   5.113   1.593   7.195 -0.1496 -0.0179 -3.2553
  138OSM    H6G15083   5.197   1.753   7.163  0.9893  0.0772  0.9398
  138OSM    C7F15084   5.298   1.625   7.305 -0.1941 -0.8956 -0.7353
  138OSM    H7F15085   5.402   1.651   7.273 -0.2090  0.2219  0.0770
  138OSM    H7G15086   5.284   1.521   7.341 -1.5855 -0.3053  0.5350
  138OSM    C8F15087   5.276   1.724   7.421 -0.0230  0.0499 -0.4070
  138OSM    H8F15088   5.278   1.828   7.382  1.2664 -0.1214 -0.8371
  138OSM    H8G15089   5.359   1.717   7.495 -0.7841  2.5788  0.7739
  138OSM    C9F15090   5.139   1.690   7.482 -0.3627 -0.1960  0.1996
  138OSM    H9F15091   5.054   1.671   7.415 -0.0234 -2.0049  0.2278
  138OSM   C10F15092   5.121   1.672   7.610 -0.3278 -0.5823 -0.0925
  138OSM   H10F15093   5.022   1.654   7.655  0.5906 -1.5046  1.6852
  138OSM   C11F15094   5.233   1.685   7.718  0.0382  0.9347 -0.0161
  138OSM   H11F15095   5.284   1.782   7.701 -1.6055  1.8574  0.1046
  138OSM   H11G15096   5.301   1.597   7.707 -2.9585 -1.6367  0.3494
  138OSM   C12F15097   5.161   1.689   7.860 -0.7873  0.1442  0.0744
  138OSM   H12F15098   5.091   1.604   7.868 -0.8324  0.2214  0.4952
  138OSM   H12G15099   5.096   1.778   7.871 -4.3234 -2.3373  0.9094
  138OSM   C13F15100   5.263   1.680   7.974 -0.3903 -0.1678 -0.1846
  138OSM   H13F15101   5.347   1.751   7.959  0.8877 -1.6397 -0.2742
  138OSM   H13G15102   5.304   1.578   7.959  1.8989  0.9224 -2.0038
  138OSM   C14F15103   5.209   1.686   8.120  0.2216  0.3003 -0.4292
  138OSM   H14F15104   5.292   1.666   8.191 -1.1904 -0.3411  1.1117
  138OSM   H14G15105   5.125   1.616   8.142 -1.2297  1.9234 -0.5508
  138OSM   C15F15106   5.157   1.822   8.171  0.1434 -0.0699  0.3486
  138OSM   H15F15107   5.066   1.843   8.111  0.1340  1.1430  0.7688
  138OSM   H15G15108   5.229   1.904   8.152  0.1161  0.1004  0.9552
  138OSM   C16F15109   5.112   1.806   8.319 -0.0308  0.0344  0.0039
  138OSM   H16F15110   5.208   1.789   8.371 -0.0631  1.5421  0.6000
  138OSM   H16G15111   5.048   1.715   8.327 -0.5222  0.4717  1.1404
  138OSM   C17F15112   5.042   1.930   8.369 -0.2749  0.1094 -0.1316
  138OSM   H17F15113   4.956   1.957   8.304  0.3681 -1.5053 -1.7467
  138OSM   H17G15114   5.115   2.014   8.364  1.3488 -1.2225  0.2517
  138OSM   C18F15115   5.002   1.926   8.510  0.5977  0.2779 -0.3696
  138OSM   H18F15116   4.939   1.836   8.527 -0.2489  1.2689  2.1810
  138OSM   H18G15117   4.932   2.009   8.534  0.0735  0.3644 -2.0628
  138OSM   H18H15118   5.085   1.921   8.584 -1.1303 -2.1705  1.6021
  139OSM      N15119   4.341   3.373   5.941 -0.0161 -0.0630  0.6240
  139OSM    C1515120   4.339   3.276   6.061  0.1769  0.5139  0.8112
  139OSM   H15A15121   4.248   3.221   6.043 -1.4912  3.0416  1.0065
  139OSM   H15B15122   4.327   3.329   6.155  0.0797  1.2349  0.3970
  139OSM   H15C15123   4.430   3.220   6.069  0.0060  0.3520  1.7126
  139OSM    C1415124   4.455   3.469   5.972 -0.0011  0.1714  0.1428
  139OSM   H14A15125   4.435   3.534   6.056 -0.5483 -0.7151  0.7068
  139OSM   H14B15126   4.492   3.528   5.890  0.4891  1.6091  1.3504
  139OSM   H14C15127   4.538   3.408   6.005  0.5723  1.1854  0.6354
  139OSM    C1315128   4.379   3.292   5.812  0.6304 -0.5243  0.2141
  139OSM   H13A15129   4.313   3.207   5.802  0.2119 -0.3194  1.1140
  139OSM   H13B15130   4.480   3.254   5.813  0.8720  0.0153 -1.3998
  139OSM   H13C15131   4.353   3.360   5.733 -1.6828 -1.2324  0.2953
  139OSM    C1215132   4.214   3.437   5.951  0.1401 -0.2601  0.3749
  139OSM   H12A15133   4.200   3.512   5.874 -1.9828 -1.1329 -0.1827
  139OSM   H12B15134   4.208   3.488   6.046  3.1290  1.6504 -0.3197
  139OSM    C1115135   4.088   3.362   5.914 -0.2959  0.5343  0.1693
  139OSM   H11A15136   4.105   3.296   5.825 -2.6589  0.3596 -0.2169
  139OSM   H11B15137   4.014   3.441   5.890 -0.5226  0.6699  1.2742
  139OSM      P15138   3.959   3.357   6.141  0.5700 -0.1224  0.2722
  139OSM    O1315139   3.979   3.505   6.148 -0.2170 -0.3597 -0.1761
  139OSM    O1415140   3.815   3.321   6.133 -0.4141  0.1441  0.2598
  139OSM    O1115141   4.021   3.294   6.267  0.3874 -0.6126  0.4066
  139OSM    O1215142   4.052   3.287   6.030  0.3655  0.0564  0.1963
  139OSM    C1S15143   4.049   3.156   6.265 -0.3615  0.4120 -0.2495
  139OSM    H1S15144   4.143   3.131   6.211 -0.7907 -1.9013 -0.0329
  139OSM    H1T15145   3.970   3.092   6.221 -0.6542  1.2740 -1.0140
  139OSM     NF15146   4.145   2.974   6.403 -0.2045 -0.8106 -0.2767
  139OSM    HNF15147   4.091   2.897   6.435  0.4939 -1.7180 -1.2283
  139OSM    C2S15148   4.080   3.105   6.415  0.7537 -0.4320 -0.3090
  139OSM    H2S15149   4.152   3.176   6.460  2.0743 -1.5252 -0.5800
  139OSM    C3S15150   3.950   3.104   6.503  0.2468  0.2224  0.0592
  139OSM    H3S15151   3.866   3.050   6.455  1.7310 -0.3667 -2.0297
  139OSM     O315152   3.895   3.235   6.519 -0.5968 -0.6145 -0.6358
  139OSM    HO315153   3.955   3.293   6.472  1.0076 -1.4511  0.2743
  139OSM    C4S15154   3.978   3.029   6.636 -0.0663 -0.3359 -1.1673
  139OSM    H4S15155   3.945   2.924   6.639 -2.5991  0.4194  0.0341
  139OSM    C5S15156   4.023   3.083   6.751 -0.2104 -0.8490  0.2495
  139OSM    H5S15157   4.055   3.189   6.753  0.0034 -0.9022  2.9403
  139OSM    C6S15158   4.059   3.005   6.876 -1.0063 -0.6852  0.1570
  139OSM    H6S15159   4.067   2.896   6.856 -0.0043 -0.6162  0.1349
  139OSM    H6T15160   3.969   3.025   6.938  0.5629  1.9993  1.7362
  139OSM    C7S15161   4.185   3.068   6.943 -0.2228 -0.2081  0.9088
  139OSM    H7S15162   4.195   3.179   6.941 -1.0142 -0.1290  0.9719
  139OSM    H7T15163   4.265   3.031   6.876 -0.4611  1.0189 -0.0859
  139OSM    C8S15164   4.199   3.017   7.084 -1.1811  0.0729 -0.2855
  139OSM    H8S15165   4.294   3.065   7.116 -0.6758 -0.7364 -0.5409
  139OSM    H8T15166   4.196   2.906   7.075 -0.3639 -0.0063  0.3417
  139OSM    C9S15167   4.091   3.082   7.176 -0.2665  0.6697 -0.6765
  139OSM    H9S15168   4.028   2.992   7.194 -0.6542  0.8486 -1.1221
  139OSM    H9T15169   4.029   3.166   7.137 -1.3801 -0.3317 -1.1214
  139OSM   C10S15170   4.145   3.138   7.311  0.3969  0.0431  0.0447
  139OSM   H10S15171   4.185   3.241   7.299 -1.5869  0.8543 -0.1003
  139OSM   H10T15172   4.236   3.080   7.338  1.7652  2.3365  0.6524
  139OSM   C11S15173   4.040   3.139   7.426 -0.0090 -0.9169 -0.1766
  139OSM   H11S15174   3.966   3.056   7.416 -1.0980  0.1566 -1.3063
  139OSM   H11T15175   3.971   3.226   7.426  1.4248  0.2626 -0.5398
  139OSM   C12S15176   4.109   3.142   7.568  0.0860  0.5081  0.6075
  139OSM   H12S15177   4.170   3.234   7.583 -0.8533  1.6943 -2.0801
  139OSM   H12T15178   4.188   3.065   7.570 -0.5402 -0.1442  0.6220
  139OSM   C13S15179   3.997   3.122   7.672 -0.1546  0.4918 -0.0852
  139OSM   H13S15180   3.939   3.030   7.653  0.3734 -0.3150  1.9504
  139OSM   H13T15181   3.918   3.200   7.666 -2.7603 -1.9571  0.6536
  139OSM   C14S15182   4.057   3.109   7.815 -0.0700 -0.3778  0.3436
  139OSM   H14S15183   4.097   3.211   7.831  3.2178 -1.4939 -0.1301
  139OSM   H14T15184   4.143   3.039   7.815 -0.5964 -1.0852  2.0256
  139OSM   C15S15185   3.962   3.070   7.927  0.1468 -0.4539  0.6575
  139OSM   H15S15186   3.969   2.959   7.922  3.2026 -0.2778 -1.4358
  139OSM   H15T15187   3.860   3.113   7.917  0.6323  1.1024  2.0317
  139OSM   C16S15188   4.000   3.127   8.067 -0.1088 -0.2599  0.1108
  139OSM   H16S15189   4.004   3.237   8.055  2.9193 -0.2463  0.6599
  139OSM   H16T15190   4.103   3.091   8.086 -0.5167 -1.1212  0.7475
  139OSM   C17S15191   3.909   3.088   8.185  0.9132  0.0171 -0.1564
  139OSM   H17S15192   3.964   3.127   8.273  0.6003  5.3405 -1.9590
  139OSM   H17T15193   3.905   2.978   8.175 -1.7163  0.2109 -2.2922
  139OSM   C18S15194   3.762   3.142   8.182  0.4068 -0.4018 -0.5596
  139OSM   H18S15195   3.704   3.088   8.260  0.1026 -3.0354 -2.4744
  139OSM   H18T15196   3.704   3.114   8.091  1.3146  0.8155 -1.5501
  139OSM   H18U15197   3.748   3.246   8.218 -0.6514 -0.5136 -0.6180
  139OSM    C1F15198   4.275   2.962   6.359  0.5330  0.1037 -0.2378
  139OSM     OF15199   4.340   3.063   6.337  0.3757 -0.7402  0.2015
  139OSM    C2F15200   4.333   2.820   6.347  0.2998 -0.0791  0.5383
  139OSM    H2F15201   4.442   2.819   6.328 -0.0552 -2.0186 -1.7655
  139OSM    H2G15202   4.293   2.773   6.255  0.6278 -1.1889  0.9477
  139OSM    C3F15203   4.314   2.725   6.460  0.4445  0.1026 -1.0346
  139OSM    H3F15204   4.344   2.621   6.434 -0.5678 -0.5334  0.2288
  139OSM    H3G15205   4.205   2.707   6.465  0.5190 -0.6383 -1.7858
  139OSM    C4F15206   4.358   2.771   6.604  0.0687  0.5742  0.3471
  139OSM    H4F15207   4.332   2.878   6.624  4.3333  1.5794  1.5566
  139OSM    H4G15208   4.468   2.760   6.596 -0.1885 -1.0998 -1.6031
  139OSM    C5F15209   4.327   2.684   6.729  1.3334 -0.2756  0.3557
  139OSM    H5F15210   4.347   2.579   6.697  2.5354 -0.3986  1.4299
  139OSM    H5G15211   4.218   2.690   6.748  1.5137 -2.1699  2.3843
  139OSM    C6F15212   4.422   2.720   6.844 -0.3276  0.5925 -1.0868
  139OSM    H6F15213   4.406   2.828   6.865 -1.4829 -0.2188  2.9387
  139OSM    H6G15214   4.529   2.702   6.818  0.8102  1.9822  2.1540
  139OSM    C7F15215   4.365   2.652   6.975  0.4842  0.1059  0.1322
  139OSM    H7F15216   4.365   2.545   6.945 -0.6006  1.0331 -3.7550
  139OSM    H7G15217   4.261   2.688   6.988 -0.1209 -1.3217 -0.5376
  139OSM    C8F15218   4.451   2.681   7.096 -0.2812  0.0941 -0.3824
  139OSM    H8F15219   4.444   2.791   7.108 -1.0139  0.1177 -1.0056
  139OSM    H8G15220   4.556   2.654   7.072 -0.0475 -1.0616  1.6825
  139OSM    C9F15221   4.406   2.607   7.219  0.0643  0.7895 -0.2561
  139OSM    H9F15222   4.421   2.498   7.219 -4.0708  0.0170 -1.6034
  139OSM   C10F15223   4.360   2.659   7.337 -0.0355 -0.5812 -0.2084
  139OSM   H10F15224   4.334   2.594   7.422  0.3237  1.6420  1.7006
  139OSM   C11F15225   4.350   2.808   7.364 -0.1194  0.0384 -0.0725
  139OSM   H11F15226   4.242   2.833   7.353  0.4148  1.9718 -1.5368
  139OSM   H11G15227   4.400   2.875   7.291  0.1774 -0.0314  0.0640
  139OSM   C12F15228   4.404   2.846   7.502 -0.4231  0.3353 -0.1571
  139OSM   H12F15229   4.401   2.957   7.512 -0.4575  0.5312 -2.0482
  139OSM   H12G15230   4.515   2.836   7.509 -0.3851  1.2141  0.6740
  139OSM   C13F15231   4.337   2.787   7.625  0.1920  0.4637 -0.0363
  139OSM   H13F15232   4.384   2.687   7.638  0.8715  0.7987  0.1386
  139OSM   H13G15233   4.228   2.775   7.609  0.4138 -0.0182 -1.3137
  139OSM   C14F15234   4.364   2.865   7.758 -0.0053  0.1501  0.7230
  139OSM   H14F15235   4.317   2.965   7.746  0.3704  0.3691  1.0413
  139OSM   H14G15236   4.472   2.885   7.779  0.9319 -3.1225 -0.4796
  139OSM   C15F15237   4.291   2.792   7.871 -0.2335 -0.3040  0.1431
  139OSM   H15F15238   4.322   2.686   7.863  2.3780  0.1605  2.4337
  139OSM   H15G15239   4.183   2.789   7.844 -0.1932  0.5959 -0.1462
  139OSM   C16F15240   4.311   2.848   8.017  0.4969  0.1221  0.1658
  139OSM   H16F15241   4.319   2.959   8.010 -0.7267  0.5659  3.7500
  139OSM   H16G15242   4.411   2.827   8.061  0.4996  2.1443  1.2386
  139OSM   C17F15243   4.195   2.797   8.111  0.1981 -0.0907  0.6644
  139OSM   H17F15244   4.199   2.686   8.104 -1.4595 -0.0941 -1.0770
  139OSM   H17G15245   4.093   2.823   8.074  0.6237  0.9438  0.1814
  139OSM   C18F15246   4.221   2.846   8.253  0.3827  1.1284 -0.1115
  139OSM   H18F15247   4.159   2.788   8.325  1.0516  2.8206  1.8959
  139OSM   H18G15248   4.185   2.949   8.276  1.0508  1.0992  1.1554
  139OSM   H18H15249   4.328   2.826   8.272  0.6811  2.4542 -0.2962
  140OSM      N15250   4.820   4.906   6.281  0.0308  0.4837  0.4757
  140OSM    C1515251   4.835   4.759   6.299 -0.3230  0.1184  0.7506
  140OSM   H15A15252   4.926   4.736   6.350  0.4548 -0.0388 -0.6458
  140OSM   H15B15253   4.839   4.695   6.212 -0.8387 -1.0023  1.5290
  140OSM   H15C15254   4.756   4.717   6.360  0.1767  0.2223  1.4756
  140OSM    C1415255   4.935   4.963   6.206 -0.0601  0.3583 -0.1573
  140OSM   H14A15256   4.933   4.931   6.103 -0.7750 -0.7232  0.1772
  140OSM   H14B15257   5.028   4.935   6.253 -1.0881 -0.9643  1.1968
  140OSM   H14C15258   4.946   5.070   6.199 -0.6548  0.4370  0.0829
  140OSM    C1315259   4.698   4.912   6.198  0.4573 -0.8843  0.8724
  140OSM   H13A15260   4.697   5.006   6.145  1.9059 -1.8364 -0.9717
  140OSM   H13B15261   4.609   4.911   6.259 -1.5056 -3.5895 -1.7166
  140OSM   H13C15262   4.687   4.830   6.128 -0.9516  0.3557 -0.4419
  140OSM    C1215263   4.798   4.974   6.416  0.4605  0.6139  0.0890
  140OSM   H12A15264   4.800   5.081   6.397  0.0121  0.6509  0.2293
  140OSM   H12B15265   4.881   4.961   6.484  1.9708 -1.4665 -1.9995
  140OSM    C1115266   4.666   4.940   6.484  0.2764 -0.8838 -0.0944
  140OSM   H11A15267   4.676   4.956   6.594 -2.3836  1.7687 -0.0991
  140OSM   H11B15268   4.637   4.833   6.477  0.4251 -0.9083 -0.3634
  140OSM      P15269   4.537   5.165   6.499  0.0232  0.0826  0.4015
  140OSM    O1315270   4.670   5.240   6.499  0.6798 -0.3491  0.3151
  140OSM    O1415271   4.422   5.219   6.426  0.5053 -0.6329  0.5163
  140OSM    O1115272   4.492   5.135   6.651 -0.4524  0.3494  0.4871
  140OSM    O1215273   4.556   5.021   6.440  0.3174  0.5258  0.1035
  140OSM    C1S15274   4.357   5.167   6.707 -0.4783  0.3732  0.3668
  140OSM    H1S15275   4.279   5.108   6.656  0.1380  2.1096 -2.8390
  140OSM    H1T15276   4.333   5.275   6.696 -0.7151  0.1665 -1.3103
  140OSM     NF15277   4.208   5.169   6.905  0.0055 -0.1695  0.4738
  140OSM    HNF15278   4.182   5.262   6.930  1.3875  1.3131 -2.9693
  140OSM    C2S15279   4.347   5.153   6.865  0.9746 -0.1029  0.4330
  140OSM    H2S15280   4.372   5.046   6.880 -0.6431 -0.4255  1.0678
  140OSM    C3S15281   4.442   5.247   6.930 -0.1687  0.1361 -0.2350
  140OSM    H3S15282   4.395   5.347   6.934  1.5980  0.9750  1.0517
  140OSM     O315283   4.575   5.265   6.884 -0.1958  0.1953  0.4967
  140OSM    HO315284   4.570   5.233   6.794  0.0978  0.1520  0.4953
  140OSM    C4S15285   4.439   5.214   7.077  0.0947 -0.2593 -0.2127
  140OSM    H4S15286   4.370   5.280   7.131 -0.4181 -0.0646 -1.0866
  140OSM    C5S15287   4.510   5.117   7.139 -0.7944  0.1042 -0.2408
  140OSM    H5S15288   4.578   5.050   7.085 -0.6603  0.6651 -0.7735
  140OSM    C6S15289   4.503   5.099   7.286  0.5110  0.2602  0.4679
  140OSM    H6S15290   4.606   5.107   7.328  0.3337 -1.3361  1.2859
  140OSM    H6T15291   4.468   4.997   7.312 -1.2898  0.4867 -0.8772
  140OSM    C7S15292   4.432   5.192   7.385 -0.8997  0.5541  0.4051
  140OSM    H7S15293   4.326   5.194   7.351 -0.8720  2.8293  0.3254
  140OSM    H7T15294   4.481   5.291   7.379  0.3877 -0.1134 -0.7504
  140OSM    C8S15295   4.439   5.135   7.530 -0.1594 -0.7258  0.0602
  140OSM    H8S15296   4.547   5.129   7.556  0.3150  2.8040 -0.5316
  140OSM    H8T15297   4.394   5.034   7.527 -0.3924 -0.5974 -1.8352
  140OSM    C9S15298   4.365   5.224   7.624  0.1243  0.6275 -0.1921
  140OSM    H9S15299   4.267   5.241   7.574  0.0495  2.2219  0.4626
  140OSM    H9T15300   4.411   5.322   7.649 -1.7523  1.2853  0.7979
  140OSM   C10S15301   4.331   5.166   7.763  0.4353  0.5578 -0.0690
  140OSM   H10S15302   4.413   5.105   7.805 -1.1637 -0.7420  1.2846
  140OSM   H10T15303   4.241   5.102   7.751 -0.1659  1.2242  0.8021
  140OSM   C11S15304   4.290   5.272   7.870 -0.3589 -0.2596  0.3844
  140OSM   H11S15305   4.184   5.295   7.845 -0.1376  1.6182  1.0767
  140OSM   H11T15306   4.333   5.368   7.835 -0.8109 -1.2057 -3.2006
  140OSM   C12S15307   4.295   5.237   8.017 -0.7637 -0.3995 -1.0235
  140OSM   H12S15308   4.268   5.320   8.086  0.9914 -0.2552 -0.4486
  140OSM   H12T15309   4.400   5.207   8.039  0.4511  2.6431 -2.1461
  140OSM   C13S15310   4.210   5.115   8.055 -0.4945 -0.0871  0.6871
  140OSM   H13S15311   4.258   5.017   8.036 -1.2112 -0.4841  0.9010
  140OSM   H13T15312   4.119   5.121   7.992  0.0391 -1.2378 -0.2245
  140OSM   C14S15313   4.161   5.123   8.198 -0.4963  0.0808 -0.4251
  140OSM   H14S15314   4.112   5.214   8.238 -1.7028 -1.4964  1.8981
  140OSM   H14T15315   4.255   5.138   8.254  0.3781 -0.2733 -1.7412
  140OSM   C15S15316   4.073   5.000   8.235  0.7336 -0.2380 -0.0636
  140OSM   H15S15317   4.128   4.906   8.213  0.9113  0.3693 -2.5399
  140OSM   H15T15318   3.981   4.988   8.174 -0.3294 -1.3519  1.6572
  140OSM   C16S15319   4.025   5.014   8.371  0.3309  0.4088 -0.1566
  140OSM   H16S15320   3.981   5.117   8.374 -0.9144 -0.0304 -1.8297
  140OSM   H16T15321   4.108   5.001   8.443 -1.6500 -2.4798  1.8168
  140OSM   C17S15322   3.916   4.917   8.412  0.0892 -0.5119 -0.0449
  140OSM   H17S15323   3.956   4.814   8.395  3.1990  0.8053 -1.5813
  140OSM   H17T15324   3.829   4.930   8.345  1.6302  0.0834 -2.0149
  140OSM   C18S15325   3.873   4.939   8.560 -0.3936  0.3939  0.2610
  140OSM   H18S15326   3.793   4.867   8.587  0.7449 -1.0791 -0.1346
  140OSM   H18T15327   3.847   5.046   8.573  0.8576  0.9967 -1.7959
  140OSM   H18U15328   3.966   4.920   8.619  0.9805 -1.1034 -2.2282
  140OSM    C1F15329   4.115   5.075   6.885  0.2198 -0.4675  0.5290
  140OSM     OF15330   4.134   4.978   6.814  0.1387 -0.1948  0.8823
  140OSM    C2F15331   3.981   5.095   6.950  0.2388 -0.5751 -0.4186
  140OSM    H2F15332   3.902   5.053   6.884 -1.3541  1.4850  0.0472
  140OSM    H2G15333   3.966   5.205   6.956  2.7713 -0.2283  0.8508
  140OSM    C3F15334   3.967   5.044   7.093  0.7827  0.4361  0.3419
  140OSM    H3F15335   3.999   4.937   7.093  0.9802  0.4243 -2.3960
  140OSM    H3G15336   3.861   5.043   7.125  0.0920 -0.9610 -1.7604
  140OSM    C4F15337   4.056   5.103   7.200 -0.4469 -0.3736 -0.4169
  140OSM    H4F15338   4.018   5.207   7.204  0.2864 -0.0941 -0.5398
  140OSM    H4G15339   4.163   5.093   7.171 -0.5341  0.2360 -0.9648
  140OSM    C5F15340   4.041   5.039   7.345 -0.2822  0.7425 -0.1351
  140OSM    H5F15341   4.066   5.108   7.428 -0.4745 -0.2292  0.7506
  140OSM    H5G15342   4.112   4.954   7.352 -1.6829 -0.8042 -2.8282
  140OSM    C6F15343   3.906   4.982   7.381  0.3573  0.1820  1.1462
  140OSM    H6F15344   3.893   4.889   7.321  1.3981 -0.4507  1.8513
  140OSM    H6G15345   3.826   5.055   7.357  0.5016 -0.3501 -1.2043
  140OSM    C7F15346   3.900   4.965   7.535  0.1434 -0.4221 -0.4293
  140OSM    H7F15347   3.951   5.047   7.589  0.9648  0.1143 -1.9668
  140OSM    H7G15348   3.963   4.874   7.549  1.7686  0.2846 -2.6914
  140OSM    C8F15349   3.755   4.937   7.583  0.0750 -0.3451 -0.0321
  140OSM    H8F15350   3.694   5.030   7.584  0.4613 -0.0864  0.0654
  140OSM    H8G15351   3.764   4.914   7.691 -1.4816 -1.6474 -0.1569
  140OSM    C9F15352   3.681   4.825   7.514  0.1239  0.7188  0.3131
  140OSM    H9F15353   3.702   4.827   7.406 -0.1786 -3.2532  0.0375
  140OSM   C10F15354   3.636   4.713   7.564  0.2943  0.4794 -0.7022
  140OSM   H10F15355   3.601   4.626   7.506 -0.7668 -2.8151  4.2572
  140OSM   C11F15356   3.649   4.684   7.709 -0.3325  0.4250 -0.3767
  140OSM   H11F15357   3.722   4.744   7.767 -1.5243  1.2356  0.3490
  140OSM   H11G15358   3.669   4.576   7.721  0.1864  0.1554 -2.9736
  140OSM   C12F15359   3.513   4.703   7.780 -0.0174  0.5809 -0.6859
  140OSM   H12F15360   3.445   4.625   7.740 -0.9946  1.5152 -0.8884
  140OSM   H12G15361   3.473   4.802   7.749  0.5626  0.5391 -1.5861
  140OSM   C13F15362   3.516   4.693   7.932 -0.5855  0.5362 -0.5497
  140OSM   H13F15363   3.591   4.760   7.979 -0.1933 -0.8217  0.8470
  140OSM   H13G15364   3.552   4.591   7.955 -0.8902  0.5906  0.1794
  140OSM   C14F15365   3.380   4.704   8.003 -0.8764  0.2677  0.3830
  140OSM   H14F15366   3.295   4.640   7.971 -0.7948 -0.9750  2.4750
  140OSM   H14G15367   3.350   4.810   7.988  3.8789  1.7792 -0.0410
  140OSM   C15F15368   3.398   4.684   8.155 -0.9048  0.0354  0.3637
  140OSM   H15F15369   3.494   4.729   8.185  0.6335 -2.2876 -0.7552
  140OSM   H15G15370   3.392   4.574   8.172  1.0578 -0.4090 -1.4604
  140OSM   C16F15371   3.277   4.740   8.239 -0.4250  0.5421  0.2335
  140OSM   H16F15372   3.201   4.777   8.168  0.8069 -1.6722 -2.4526
  140OSM   H16G15373   3.313   4.829   8.295 -1.0277  1.3817 -0.6850
  140OSM   C17F15374   3.215   4.626   8.325  0.6659  0.6183  0.2148
  140OSM   H17F15375   3.301   4.592   8.385  1.1538 -0.2703 -0.9552
  140OSM   H17G15376   3.188   4.544   8.254 -1.2075  0.3827  1.1242
  140OSM   C18F15377   3.100   4.675   8.411  0.2782  0.9129  0.6737
  140OSM   H18F15378   3.068   4.588   8.471  0.1428 -0.9428 -1.9286
  140OSM   H18G15379   3.020   4.713   8.344  1.4561 -1.6354 -2.4197
  140OSM   H18H15380   3.125   4.758   8.480  0.8142 -0.1040  1.7316
  141OSM      N15381   3.779   6.223   6.375  0.0598 -0.7541 -0.2819
  141OSM    C1515382   3.808   6.378   6.406 -0.1715  0.0852 -0.1096
  141OSM   H15A15383   3.716   6.419   6.445 -0.5883 -2.7196  2.1217
  141OSM   H15B15384   3.841   6.424   6.314  1.6902  1.7419  1.3088
  141OSM   H15C15385   3.878   6.391   6.486 -1.0055 -1.0486  0.8434
  141OSM    C1415386   3.905   6.163   6.320 -0.0142 -0.6020  0.8376
  141OSM   H14A15387   3.918   6.192   6.217 -1.4939  0.2123  0.8551
  141OSM   H14B15388   3.901   6.055   6.314  1.8219 -0.6361 -0.6901
  141OSM   H14C15389   3.990   6.187   6.381 -0.6522  0.7642  1.2270
  141OSM    C1315390   3.743   6.160   6.506  0.1546 -0.7581 -0.4966
  141OSM   H13A15391   3.825   6.169   6.575 -1.7374 -0.3187  1.8597
  141OSM   H13B15392   3.735   6.052   6.501  1.1023 -0.8832  0.4799
  141OSM   H13C15393   3.653   6.202   6.548  0.7807 -0.9811  1.1274
  141OSM    C1215394   3.665   6.221   6.270 -0.7868 -0.9089 -0.5174
  141OSM   H12A15395   3.679   6.119   6.238  0.3747 -1.4729  1.5335
  141OSM   H12B15396   3.702   6.281   6.188 -0.3203 -2.1061 -1.2060
  141OSM    C1115397   3.525   6.264   6.304  0.1930 -0.0325  0.3586
  141OSM   H11A15398   3.467   6.249   6.210  1.0203 -4.0180  0.2863
  141OSM   H11B15399   3.524   6.370   6.338  2.6527  0.1502  0.0383
  141OSM      P15400   3.395   6.046   6.382  0.2901 -0.2405  0.1736
  141OSM    O1315401   3.250   6.057   6.398  0.1639  0.3934 -0.1098
  141OSM    O1415402   3.443   5.994   6.251 -1.0784 -0.0506 -0.4032
  141OSM    O1115403   3.457   5.958   6.493 -0.1419 -0.6700 -0.1931
  141OSM    O1215404   3.460   6.191   6.413  0.3031 -0.3878 -0.2467
  141OSM    C1S15405   3.423   5.987   6.630  0.2663 -0.5264  0.0142
  141OSM    H1S15406   3.396   6.093   6.651 -0.5050 -0.3199 -1.8112
  141OSM    H1T15407   3.509   5.963   6.695 -1.7640  0.9431  3.5505
  141OSM     NF15408   3.298   5.920   6.834 -0.2372  0.3422 -0.8364
  141OSM    HNF15409   3.324   5.837   6.883 -2.5093 -0.7369 -1.3428
  141OSM    C2S15410   3.307   5.903   6.690 -0.3247 -0.3411  0.2020
  141OSM    H2S15411   3.207   5.931   6.650 -0.3444  0.1371  0.5716
  141OSM    C3S15412   3.328   5.754   6.656  1.0362 -0.7409  0.4664
  141OSM    H3S15413   3.427   5.728   6.699  1.3331 -1.5051 -0.6416
  141OSM     O315414   3.329   5.724   6.514  0.1982  0.5590  0.6858
  141OSM    HO315415   3.389   5.790   6.478  0.2098  0.3178  0.2517
  141OSM    C4S15416   3.224   5.681   6.718 -0.2265 -0.0808 -0.5470
  141OSM    H4S15417   3.252   5.626   6.809 -0.7368 -4.0575 -2.5935
  141OSM    C5S15418   3.095   5.672   6.670  0.1295 -0.1379 -0.6270
  141OSM    H5S15419   3.072   5.722   6.574  0.5931 -0.1424 -0.7420
  141OSM    C6S15420   2.978   5.601   6.738  0.2204 -0.3359 -0.3243
  141OSM    H6S15421   2.952   5.514   6.674 -2.6955 -2.1405  2.9925
  141OSM    H6T15422   2.892   5.670   6.743 -0.2204 -0.8358 -0.9687
  141OSM    C7S15423   3.004   5.536   6.879  0.2947  0.4649  0.0116
  141OSM    H7S15424   3.102   5.484   6.879 -0.4805 -1.0771 -1.4466
  141OSM    H7T15425   2.924   5.462   6.897 -0.9667  0.5288 -4.3005
  141OSM    C8S15426   2.997   5.637   6.993 -0.3257 -0.6692  0.3792
  141OSM    H8S15427   2.909   5.702   7.012 -1.7535 -2.3663 -0.1595
  141OSM    H8T15428   3.086   5.701   6.975 -1.8297  0.6342 -3.6719
  141OSM    C9S15429   3.005   5.570   7.129 -0.1608  0.5192  0.0844
  141OSM    H9S15430   3.084   5.493   7.122  1.4792  2.1446  0.0234
  141OSM    H9T15431   2.909   5.513   7.138  0.8432 -1.0441  1.5215
  141OSM   C10S15432   3.041   5.667   7.248 -0.3251  0.1822 -0.4783
  141OSM   H10S15433   2.963   5.745   7.242  0.3114  0.8784  0.1492
  141OSM   H10T15434   3.137   5.714   7.216 -0.0562 -1.8930 -3.1700
  141OSM   C11S15435   3.062   5.602   7.381 -0.8770  0.5211 -0.3207
  141OSM   H11S15436   3.144   5.527   7.381  0.3541  1.8179 -0.0460
  141OSM   H11T15437   2.967   5.545   7.393 -0.4671 -0.2708 -0.8160
  141OSM   C12S15438   3.077   5.692   7.508  0.4351 -0.3011  0.0117
  141OSM   H12S15439   2.986   5.755   7.508  2.3041  2.5664  0.6745
  141OSM   H12T15440   3.164   5.761   7.509 -1.4437  2.1689 -0.1854
  141OSM   C13S15441   3.090   5.608   7.640  0.6499 -0.1753  0.2541
  141OSM   H13S15442   3.183   5.547   7.637  0.2380 -0.8052  0.1018
  141OSM   H13T15443   3.009   5.532   7.649  0.5696  0.1888  4.6655
  141OSM   C14S15444   3.082   5.699   7.763 -0.0715 -0.1366  0.2848
  141OSM   H14S15445   3.001   5.774   7.751 -1.0825 -1.2175  0.2289
  141OSM   H14T15446   3.181   5.744   7.786 -0.0226 -0.3216  0.4330
  141OSM   C15S15447   3.057   5.608   7.885 -0.2259 -0.3721  0.5272
  141OSM   H15S15448   3.142   5.537   7.896  0.3469  0.5607  2.5699
  141OSM   H15T15449   2.966   5.544   7.875 -1.4183  1.4205 -0.6507
  141OSM   C16S15450   3.043   5.690   8.020  0.4366  0.3164  0.5763
  141OSM   H16S15451   2.960   5.763   8.022  0.2597  0.1089  1.0887
  141OSM   H16T15452   3.130   5.756   8.040  0.0625 -0.0318  4.0938
  141OSM   C17S15453   3.032   5.581   8.130  0.5017 -0.1512  0.7473
  141OSM   H17S15454   3.137   5.544   8.132  0.4481 -0.6634 -2.1545
  141OSM   H17T15455   2.965   5.499   8.098 -0.9306  1.1499  0.2820
  141OSM   C18S15456   2.990   5.639   8.269 -0.0968  0.1486 -0.1387
  141OSM   H18S15457   2.897   5.698   8.261 -1.1431 -1.0077  2.4168
  141OSM   H18T15458   3.072   5.696   8.318 -1.7049  1.8937  0.6329
  141OSM   H18U15459   2.965   5.549   8.330 -1.9021 -0.4892 -1.7117
  141OSM    C1F15460   3.256   6.028   6.893 -0.5001  0.3176 -0.2747
  141OSM     OF15461   3.216   6.115   6.823  0.2063  0.2398  0.0909
  141OSM    C2F15462   3.277   6.046   7.042 -0.1154  0.0832  0.2056
  141OSM    H2F15463   3.372   6.005   7.082  0.6481 -0.5066 -2.0961
  141OSM    H2G15464   3.197   5.992   7.098  0.4307 -0.3876  0.5407
  141OSM    C3F15465   3.272   6.195   7.084 -0.2637 -0.5084 -0.8486
  141OSM    H3F15466   3.164   6.217   7.066 -0.3115  1.6772  1.5456
  141OSM    H3G15467   3.341   6.258   7.025  0.6171  0.3974  1.0723
  141OSM    C4F15468   3.304   6.213   7.231  0.0180  0.9723  0.1153
  141OSM    H4F15469   3.319   6.322   7.248 -2.1924  2.3774 -5.0298
  141OSM    H4G15470   3.391   6.149   7.256 -0.2982 -0.3831 -2.0183
  141OSM    C5F15471   3.191   6.174   7.325 -0.3367  0.3652 -0.4747
  141OSM    H5F15472   3.188   6.062   7.324 -0.1787  0.3602 -0.4088
  141OSM    H5G15473   3.093   6.197   7.278 -0.9856 -1.9979 -0.4311
  141OSM    C6F15474   3.212   6.224   7.469 -0.3078 -0.5822  0.4863
  141OSM    H6F15475   3.212   6.335   7.471  0.6962 -0.5775  0.8827
  141OSM    H6G15476   3.319   6.199   7.488  0.4122 -0.8452 -3.1142
  141OSM    C7F15477   3.132   6.153   7.580 -0.4191  0.1086  0.1724
  141OSM    H7F15478   3.105   6.048   7.553  1.0515 -0.4269  0.6776
  141OSM    H7G15479   3.029   6.194   7.587 -1.3708 -2.1074  0.1762
  141OSM    C8F15480   3.196   6.146   7.718  0.2564 -0.4107  0.8777
  141OSM    H8F15481   3.284   6.080   7.700 -0.6908 -1.6635  0.6954
  141OSM    H8G15482   3.122   6.088   7.777 -0.3913  0.8005  1.2784
  141OSM    C9F15483   3.233   6.280   7.774  0.4465 -0.3855  0.4093
  141OSM    H9F15484   3.314   6.334   7.724  1.3970 -0.5000  1.7620
  141OSM   C10F15485   3.168   6.344   7.875 -0.6054  0.2826  0.1429
  141OSM   H10F15486   3.204   6.440   7.913 -1.2491 -0.4519  2.7997
  141OSM   C11F15487   3.054   6.308   7.962 -0.1362 -0.2783  0.0463
  141OSM   H11F15488   3.002   6.226   7.909 -1.5482  0.2631  0.5425
  141OSM   H11G15489   2.990   6.397   7.978 -1.7845 -1.4179  0.0482
  141OSM   C12F15490   3.065   6.257   8.111  0.3763  0.2173  0.1961
  141OSM   H12F15491   2.964   6.237   8.153  0.2228  0.3626 -0.0971
  141OSM   H12G15492   3.108   6.343   8.167  0.5037  1.1185 -1.2161
  141OSM   C13F15493   3.152   6.130   8.124 -0.5035 -0.1390 -0.9279
  141OSM   H13F15494   3.257   6.169   8.121 -1.6877  3.4110 -1.4809
  141OSM   H13G15495   3.119   6.069   8.038 -1.5921  1.4764 -1.7235
  141OSM   C14F15496   3.130   6.057   8.260  0.0128 -0.0033 -0.1389
  141OSM   H14F15497   3.026   6.025   8.283  0.6027 -0.5555  2.0264
  141OSM   H14G15498   3.150   6.138   8.334  0.3371  0.1248 -0.3618
  141OSM   C15F15499   3.226   5.940   8.285 -0.4906  0.5650  0.6177
  141OSM   H15F15500   3.325   5.968   8.241 -0.6463 -1.3766 -1.1243
  141OSM   H15G15501   3.196   5.858   8.216  0.2253  0.7381  0.0881
  141OSM   C16F15502   3.253   5.884   8.430  0.7100  0.2255  0.4209
  141OSM   H16F15503   3.321   5.797   8.417  0.6956  0.1922  0.5630
  141OSM   H16G15504   3.151   5.848   8.456 -0.1425  1.2669 -1.3303
  141OSM   C17F15505   3.308   5.986   8.528 -0.3983  0.0707  0.3113
  141OSM   H17F15506   3.310   5.942   8.630  1.3329  0.3275  0.4200
  141OSM   H17G15507   3.235   6.070   8.519 -1.0996 -0.4540  0.9364
  141OSM   C18F15508   3.447   6.049   8.508  0.0198  0.7750  0.6931
  141OSM   H18F15509   3.455   6.140   8.572  0.9100  0.8064  0.5568
  141OSM   H18G15510   3.475   6.087   8.407  0.6159 -0.5558  0.3329
  141OSM   H18H15511   3.522   5.977   8.547  0.2948 -0.1364 -1.3975
  142OSM      N15512   4.094   2.480   6.040  0.4666  0.4173 -0.6952
  142OSM    C1515513   4.052   2.401   5.923  0.7016  0.1382  0.7228
  142OSM   H15A15514   4.100   2.305   5.933  0.6406  0.1056  0.7026
  142OSM   H15B15515   4.083   2.454   5.834  1.2457  1.1677  1.4946
  142OSM   H15C15516   3.945   2.396   5.932  0.6490 -1.8164 -0.4041
  142OSM    C1415517   4.242   2.466   6.059  0.2038 -0.1097 -0.2791
  142OSM   H14A15518   4.279   2.547   6.120 -1.1315  0.1930  0.1632
  142OSM   H14B15519   4.287   2.464   5.961  1.2846 -0.3177  0.2116
  142OSM   H14C15520   4.267   2.375   6.112 -2.3151 -0.5698  0.2840
  142OSM    C1315521   4.054   2.619   6.010  0.1355 -0.2312  1.0082
  142OSM   H13A15522   3.949   2.620   5.983  0.7379 -0.4072 -1.6104
  142OSM   H13B15523   4.105   2.650   5.919 -2.4412  0.2566 -0.3732
  142OSM   H13C15524   4.068   2.684   6.094  1.8207  0.0295  0.5573
  142OSM    C1215525   4.017   2.430   6.161 -0.5713  0.1503 -0.5617
  142OSM   H12A15526   4.019   2.322   6.165 -0.5530  0.0776 -1.9703
  142OSM   H12B15527   3.912   2.456   6.150  0.4539  4.4593 -2.1935
  142OSM    C1115528   4.069   2.488   6.294 -0.8961 -0.3199 -0.5198
  142OSM   H11A15529   4.176   2.478   6.323 -1.3024  1.1009  1.6987
  142OSM   H11B15530   4.024   2.443   6.384 -1.5351 -0.5217 -0.9326
  142OSM      P15531   3.888   2.669   6.330 -0.0128  0.3936  0.2792
  142OSM    O1315532   3.887   2.812   6.366  0.1912  0.2848  0.0799
  142OSM    O1415533   3.806   2.627   6.214 -0.5777  0.2490 -0.1659
  142OSM    O1115534   3.855   2.593   6.463 -0.0371 -0.7965  0.3232
  142OSM    O1215535   4.031   2.628   6.305  0.1383 -0.4755 -0.4915
  142OSM    C1S15536   3.916   2.624   6.589  0.1246  0.2338  1.1341
  142OSM    H1S15537   3.882   2.723   6.627  0.1524  0.5988  0.2171
  142OSM    H1T15538   4.026   2.613   6.584  0.1177  0.5187  0.2178
  142OSM     NF15539   3.915   2.547   6.827 -0.1612  1.0360  0.1483
  142OSM    HNF15540   3.971   2.470   6.859 -1.0047  0.4470  0.2402
  142OSM    C2S15541   3.858   2.519   6.694 -0.0526  0.6098  0.6911
  142OSM    H2S15542   3.747   2.530   6.701 -0.0665  0.2673  1.0573
  142OSM    C3S15543   3.890   2.378   6.640 -0.3116 -0.2316 -0.4106
  142OSM    H3S15544   4.000   2.371   6.636 -0.3419 -2.2690  0.6740
  142OSM     O315545   3.851   2.330   6.519  0.0615 -0.0427 -0.1094
  142OSM    HO315546   3.828   2.411   6.472 -0.4977 -0.8186 -1.2041
  142OSM    C4S15547   3.836   2.280   6.739 -0.4167  0.3235  0.3525
  142OSM    H4S15548   3.730   2.297   6.764 -0.5022  1.0730 -0.4636
  142OSM    C5S15549   3.909   2.179   6.795  0.0350 -0.4607 -0.2652
  142OSM    H5S15550   4.013   2.169   6.761 -0.3838  0.0377 -1.7338
  142OSM    C6S15551   3.872   2.082   6.898  0.2607  0.2868 -0.1165
  142OSM    H6S15552   3.893   1.979   6.862  2.0194 -0.2923  2.2462
  142OSM    H6T15553   3.766   2.097   6.928 -0.4350  0.6205 -2.5745
  142OSM    C7S15554   3.958   2.116   7.022  0.9415 -0.3994 -0.8761
  142OSM    H7S15555   3.934   2.220   7.053  1.2777 -0.5996  0.0598
  142OSM    H7T15556   4.069   2.115   7.016  1.1463 -0.6230  1.8907
  142OSM    C8S15557   3.921   2.032   7.146 -0.2077 -0.1861 -0.1606
  142OSM    H8S15558   3.947   1.926   7.129  0.3147 -0.2159  0.7831
  142OSM    H8T15559   3.810   2.036   7.152 -0.1175  0.7176  1.1837
  142OSM    C9S15560   4.005   2.084   7.263  0.1568  0.1979  0.1204
  142OSM    H9S15561   3.991   2.192   7.287  0.4416  0.0898  0.7916
  142OSM    H9T15562   4.113   2.072   7.242  0.1645  1.6436 -0.8355
  142OSM   C10S15563   3.964   2.011   7.402 -0.3993 -0.2520  0.1212
  142OSM   H10S15564   3.973   1.901   7.387  0.0558 -0.4234  1.5178
  142OSM   H10T15565   3.859   2.032   7.429  0.0700  1.7087  0.5406
  142OSM   C11S15566   4.060   2.056   7.515  0.6571  0.5974 -0.1376
  142OSM   H11S15567   4.059   2.167   7.521 -0.7024  0.5980  0.0842
  142OSM   H11T15568   4.166   2.027   7.499  1.0042  2.0077 -0.4885
  142OSM   C12S15569   4.021   1.989   7.651 -0.6657  0.3510 -0.3421
  142OSM   H12S15570   4.065   1.887   7.658 -0.9666  0.0574 -2.2979
  142OSM   H12T15571   3.910   1.987   7.656 -0.8303  0.0131 -2.8499
  142OSM   C13S15572   4.087   2.055   7.770 -1.1075 -0.0388  0.3037
  142OSM   H13S15573   4.062   2.163   7.767  2.2199  0.8569  0.4352
  142OSM   H13T15574   4.197   2.053   7.754 -0.8634  1.5647  1.5991
  142OSM   C14S15575   4.063   1.980   7.900  0.2621 -0.7906  0.0993
  142OSM   H14S15576   4.156   1.926   7.926  0.6144 -1.2473 -1.9148
  142OSM   H14T15577   3.982   1.904   7.889 -1.1146  0.6560 -0.0906
  142OSM   C15S15578   4.014   2.065   8.018  0.7403 -0.0808 -0.6428
  142OSM   H15S15579   3.920   2.113   7.984  0.3621 -0.1680  0.2305
  142OSM   H15T15580   4.086   2.145   8.045  1.2488 -0.3295 -1.2549
  142OSM   C16S15581   3.986   1.979   8.147 -0.5773  1.0820 -0.8316
  142OSM   H16S15582   3.946   1.879   8.119  0.7395 -0.3437  1.9155
  142OSM   H16T15583   3.912   2.045   8.198 -0.5964  0.7443 -0.4158
  142OSM   C17S15584   4.117   1.949   8.225  0.9646  0.2006 -0.3179
  142OSM   H17S15585   4.166   2.049   8.220  0.5987  0.3465 -3.0682
  142OSM   H17T15586   4.175   1.863   8.186 -0.7442 -0.8166 -0.7174
  142OSM   C18S15587   4.090   1.927   8.378 -0.2923  0.5584  0.2207
  142OSM   H18S15588   4.191   1.935   8.424 -0.1015  2.3342 -0.4437
  142OSM   H18T15589   4.039   1.832   8.408  1.9138 -0.6278  0.4238
  142OSM   H18U15590   4.036   2.011   8.427  0.5365 -0.4219  3.0391
  142OSM    C1F15591   3.906   2.662   6.899 -0.0218 -0.6172  0.2009
  142OSM     OF15592   3.846   2.758   6.850  0.0967 -0.7385  0.7350
  142OSM    C2F15593   3.956   2.672   7.039 -0.0295  0.0567 -0.1691
  142OSM    H2F15594   3.872   2.725   7.090 -0.0455  0.9382 -1.0940
  142OSM    H2G15595   4.049   2.733   7.039  2.0700 -2.8908 -1.9177
  142OSM    C3F15596   3.981   2.538   7.126  0.3426  0.0019  0.2950
  142OSM    H3F15597   4.069   2.494   7.075  1.1418  1.3178  0.4799
  142OSM    H3G15598   3.892   2.472   7.126  0.6489 -0.4419  1.3799
  142OSM    C4F15599   4.009   2.580   7.274  0.1975  0.5611 -0.4011
  142OSM    H4F15600   3.918   2.632   7.311  1.1996  2.6679 -0.7167
  142OSM    H4G15601   4.099   2.645   7.279  0.4214  0.2113  0.1256
  142OSM    C5F15602   4.032   2.459   7.367 -0.4589 -0.3706  0.2627
  142OSM    H5F15603   4.125   2.411   7.328 -1.0624 -1.7120  0.3979
  142OSM    H5G15604   3.943   2.393   7.356  0.2417 -1.8022  2.4904
  142OSM    C6F15605   4.051   2.505   7.512  0.0284  0.0552 -0.1070
  142OSM    H6F15606   4.133   2.581   7.517  0.2705 -0.2389  0.4135
  142OSM    H6G15607   4.089   2.414   7.563 -2.8981  0.6110  3.3903
  142OSM    C7F15608   3.935   2.573   7.578  0.5072 -0.1585  1.0878
  142OSM    H7F15609   3.840   2.519   7.563  0.7646 -0.0076 -1.5116
  142OSM    H7G15610   3.926   2.672   7.529 -0.3966 -0.2462  1.0702
  142OSM    C8F15611   3.936   2.595   7.730 -0.1626 -0.0302  0.2612
  142OSM    H8F15612   3.843   2.650   7.758 -0.3032 -0.7032  1.1780
  142OSM    H8G15613   4.030   2.652   7.747  1.6087 -1.9986 -2.2145
  142OSM    C9F15614   3.947   2.469   7.810 -0.2207  0.9993 -0.0820
  142OSM    H9F15615   3.958   2.382   7.743 -2.5939  2.1940 -2.2096
  142OSM   C10F15616   3.933   2.453   7.943  0.4629 -0.1653 -0.1802
  142OSM   H10F15617   3.939   2.353   7.989  1.7817 -0.0048  0.0353
  142OSM   C11F15618   3.901   2.563   8.044 -0.8806 -0.4320  0.2512
  142OSM   H11F15619   3.903   2.662   7.995 -0.3498 -0.4761  0.1699
  142OSM   H11G15620   3.976   2.569   8.126 -0.4723 -0.0913 -0.1436
  142OSM   C12F15621   3.765   2.560   8.104  0.0964  0.6777 -0.5637
  142OSM   H12F15622   3.739   2.470   8.164  0.8225  0.5425 -0.4318
  142OSM   H12G15623   3.701   2.572   8.015 -0.3681  0.9170 -0.2031
  142OSM   C13F15624   3.736   2.686   8.174  0.1764 -0.6013 -0.0323
  142OSM   H13F15625   3.626   2.697   8.159  0.3748 -1.6476 -3.0436
  142OSM   H13G15626   3.773   2.781   8.128 -1.2698  0.0370  0.0574
  142OSM   C14F15627   3.787   2.683   8.314 -0.0204 -0.3097  0.0846
  142OSM   H14F15628   3.895   2.659   8.309 -0.1327 -0.5876 -2.0057
  142OSM   H14G15629   3.739   2.596   8.363  0.6545 -0.2905  0.8018
  142OSM   C15F15630   3.755   2.816   8.387  0.6409  0.5220  0.3442
  142OSM   H15F15631   3.646   2.835   8.385  0.1601 -2.0341 -0.5577
  142OSM   H15G15632   3.804   2.892   8.323 -0.8228 -0.5581 -2.1912
  142OSM   C16F15633   3.814   2.824   8.527 -0.1424  0.2753 -0.6620
  142OSM   H16F15634   3.925   2.817   8.518 -0.1452 -1.7276  0.3605
  142OSM   H16G15635   3.784   2.737   8.589 -1.6680  1.3921  0.2490
  142OSM   C17F15636   3.776   2.955   8.589  0.5027  0.6996  0.8469
  142OSM   H17F15637   3.666   2.971   8.580  0.1087 -2.2570 -0.8899
  142OSM   H17G15638   3.835   3.025   8.526  0.1616  0.1112 -0.1596
  142OSM   C18F15639   3.813   2.964   8.734 -0.2146 -0.2231 -0.1054
  142OSM   H18F15640   3.761   2.883   8.790  1.5262  0.5860  2.9171
  142OSM   H18G15641   3.776   3.064   8.766 -0.3408 -0.3558  0.1625
  142OSM   H18H15642   3.921   2.953   8.754 -0.4495  0.0429  1.4658
  143OSM      N15643   1.259   4.464   6.239 -0.5382 -0.2141 -0.2616
  143OSM    C1515644   1.327   4.333   6.272 -0.0519  0.1261  0.9027
  143OSM   H15A15645   1.361   4.274   6.188 -1.9118 -0.2015  0.3309
  143OSM   H15B15646   1.255   4.275   6.328 -2.3381  1.2635 -0.6833
  143OSM   H15C15647   1.408   4.344   6.342  1.9701 -2.5404 -0.8157
  143OSM    C1415648   1.359   4.556   6.179 -0.8900 -0.4942  0.3466
  143OSM   H14A15649   1.437   4.578   6.251  0.1685  3.3403 -1.7113
  143OSM   H14B15650   1.323   4.655   6.153  0.4585 -0.5020 -1.8479
  143OSM   H14C15651   1.414   4.522   6.092 -0.5484 -0.1752  0.4336
  143OSM    C1315652   1.142   4.430   6.144  0.2325  0.2460 -0.2651
  143OSM   H13A15653   1.100   4.522   6.107  1.9901  1.2619  0.1764
  143OSM   H13B15654   1.065   4.368   6.189  2.6550 -2.4978  0.4560
  143OSM   H13C15655   1.176   4.380   6.055 -0.9057  0.5946 -0.9162
  143OSM    C1215656   1.198   4.530   6.363  0.0138 -0.2927  0.1644
  143OSM   H12A15657   1.133   4.607   6.326  1.0856  0.7585  0.4115
  143OSM   H12B15658   1.271   4.582   6.423  0.1402 -0.8940  0.5421
  143OSM    C1115659   1.121   4.440   6.459  0.1441  0.0718 -0.0633
  143OSM   H11A15660   1.119   4.494   6.556  2.1114 -2.5435  1.5693
  143OSM   H11B15661   1.178   4.348   6.481 -1.2400 -0.9914 -0.7569
  143OSM      P15662   0.871   4.484   6.460  0.5228 -0.0098  0.1677
  143OSM    O1315663   0.883   4.627   6.409  0.5389  0.0060  0.3915
  143OSM    O1415664   0.745   4.409   6.420 -0.1027  0.1659 -0.0107
  143OSM    O1115665   0.878   4.492   6.617 -0.1650 -0.5716 -0.2012
  143OSM    O1215666   0.991   4.404   6.408 -0.3753 -0.4383 -0.4003
  143OSM    C1S15667   0.763   4.542   6.690  0.3524 -0.3383  0.2119
  143OSM    H1S15668   0.678   4.481   6.653  2.8830 -3.2323 -1.3242
  143OSM    H1T15669   0.749   4.650   6.667 -0.0057 -0.5488 -0.5645
  143OSM     NF15670   0.662   4.537   6.918 -0.6198 -0.0987 -0.3907
  143OSM    HNF15671   0.653   4.620   6.974 -3.1351 -0.3244 -0.3262
  143OSM    C2S15672   0.788   4.518   6.842  0.4952  0.4703 -0.2890
  143OSM    H2S15673   0.821   4.414   6.865 -0.1494  0.6399  1.6601
  143OSM    C3S15674   0.899   4.606   6.885 -0.3213  0.2410  0.2462
  143OSM    H3S15675   0.895   4.708   6.840  1.3549 -0.2288 -1.0945
  143OSM     O315676   1.019   4.551   6.836  0.1142 -0.7253  0.2664
  143OSM    HO315677   0.983   4.510   6.757 -2.2805 -2.3044  2.0540
  143OSM    C4S15678   0.905   4.617   7.035  0.0006 -0.3603  0.0385
  143OSM    H4S15679   0.914   4.515   7.077 -2.3093 -1.7552 -2.4593
  143OSM    C5S15680   0.933   4.734   7.096  0.3842  1.0066  0.6345
  143OSM    H5S15681   0.947   4.824   7.035 -0.5117  0.7126 -0.0179
  143OSM    C6S15682   0.944   4.749   7.242  0.4729 -0.4546 -0.1646
  143OSM    H6S15683   0.872   4.824   7.281  0.7350  0.0970 -0.7266
  143OSM    H6T15684   1.050   4.780   7.254  0.0657  2.3478 -2.7829
  143OSM    C7S15685   0.928   4.621   7.321  0.1470 -0.1388  0.0664
  143OSM    H7S15686   0.996   4.539   7.288 -1.7658 -1.2594 -1.3130
  143OSM    H7T15687   0.823   4.585   7.312 -0.5723  2.1987 -1.7459
  143OSM    C8S15688   0.949   4.631   7.471 -0.7509 -0.5002 -0.3819
  143OSM    H8S15689   0.871   4.698   7.513  1.3670 -0.4023  3.8722
  143OSM    H8T15690   1.046   4.679   7.493 -0.3127 -1.4411 -0.2321
  143OSM    C9S15691   0.931   4.498   7.550 -1.1302 -0.3001 -0.5771
  143OSM    H9S15692   1.002   4.429   7.501  1.3398  2.7579 -1.6200
  143OSM    H9T15693   0.827   4.459   7.549 -2.2678  2.0870  3.1348
  143OSM   C10S15694   0.985   4.505   7.699 -0.6209  0.8130  0.1226
  143OSM   H10S15695   1.075   4.570   7.702 -0.0305  0.0081  0.4068
  143OSM   H10T15696   1.020   4.404   7.730  1.1567  0.3804 -2.9251
  143OSM   C11S15697   0.884   4.547   7.805 -0.1392  0.4042 -0.1836
  143OSM   H11S15698   0.794   4.484   7.794  1.0862 -1.4099 -0.1881
  143OSM   H11T15699   0.851   4.652   7.786 -2.4163  0.0632  1.6025
  143OSM   C12S15700   0.932   4.529   7.953  0.1126  0.2292 -0.8663
  143OSM   H12S15701   0.970   4.435   7.997 -0.0122  0.5311 -0.1070
  143OSM   H12T15702   0.841   4.549   8.012  1.7665  4.1196  0.6741
  143OSM   C13S15703   1.024   4.641   7.994 -0.1582 -0.0919  0.0602
  143OSM   H13S15704   0.976   4.738   7.969  2.3061  0.7030 -1.8515
  143OSM   H13T15705   1.118   4.639   7.936  0.7043 -1.6090  1.4055
  143OSM   C14S15706   1.054   4.657   8.140  0.6600 -0.2742  1.0735
  143OSM   H14S15707   1.123   4.743   8.152 -0.0050  0.6200 -1.1353
  143OSM   H14T15708   1.113   4.574   8.184  3.1241  1.2064  0.7185
  143OSM   C15S15709   0.945   4.696   8.242  0.0139 -0.8178  0.2658
  143OSM   H15S15710   0.880   4.608   8.261  1.2327 -1.8367 -0.1838
  143OSM   H15T15711   0.888   4.787   8.211 -1.1736 -0.7386  2.4975
  143OSM   C16S15712   1.000   4.748   8.382  0.3818  0.0896 -0.3039
  143OSM   H16S15713   1.082   4.823   8.390 -2.4909  3.4452 -0.1357
  143OSM   H16T15714   1.029   4.654   8.435  0.7706  0.6973  0.5938
  143OSM   C17S15715   0.897   4.814   8.475  0.3037 -1.1552 -0.5547
  143OSM   H17S15716   0.881   4.921   8.449  2.7188 -1.1607 -2.4205
  143OSM   H17T15717   0.953   4.826   8.570 -0.2405  2.0532 -0.5138
  143OSM   C18S15718   0.766   4.741   8.489  0.0948 -0.4900 -0.9506
  143OSM   H18S15719   0.694   4.791   8.557 -0.0250 -1.4292 -0.3553
  143OSM   H18T15720   0.769   4.639   8.535 -0.9793  0.2398  0.8296
  143OSM   H18U15721   0.718   4.722   8.391  2.2378 -2.0914 -1.7732
  143OSM    C1F15722   0.557   4.451   6.914 -1.0319 -0.4383  0.6446
  143OSM     OF15723   0.545   4.376   6.819 -0.8188  0.9170  0.4711
  143OSM    C2F15724   0.454   4.451   7.023 -0.2056 -0.3147 -0.0822
  143OSM    H2F15725   0.378   4.375   6.995  1.8232 -2.3810 -0.2980
  143OSM    H2G15726   0.412   4.553   7.039 -1.3224 -0.6304 -0.8569
  143OSM    C3F15727   0.525   4.401   7.147 -0.3391 -0.1587  0.6988
  143OSM    H3F15728   0.612   4.467   7.168 -0.8154  0.8624 -0.4306
  143OSM    H3G15729   0.575   4.303   7.134  2.0215  0.8634  1.5156
  143OSM    C4F15730   0.431   4.391   7.266 -0.2319 -0.8991 -0.1164
  143OSM    H4F15731   0.346   4.328   7.232  0.0176 -0.9021 -0.7671
  143OSM    H4G15732   0.400   4.488   7.311 -0.9261 -1.6404  1.0541
  143OSM    C5F15733   0.493   4.299   7.375 -0.0329  0.1861  0.6448
  143OSM    H5F15734   0.589   4.345   7.406  0.3968 -0.0161 -0.3526
  143OSM    H5G15735   0.512   4.198   7.333  0.0961  0.4838 -0.0235
  143OSM    C6F15736   0.403   4.291   7.496  0.0699 -0.1244  0.0986
  143OSM    H6F15737   0.304   4.249   7.471  0.1621 -0.7539  0.7768
  143OSM    H6G15738   0.366   4.386   7.539 -1.3312 -0.1524 -0.9829
  143OSM    C7F15739   0.470   4.222   7.610 -0.7020  0.0910 -0.3410
  143OSM    H7F15740   0.547   4.291   7.650  0.3863 -0.3364 -1.6386
  143OSM    H7G15741   0.514   4.132   7.562 -1.3437  0.3246 -1.4012
  143OSM    C8F15742   0.374   4.163   7.718  0.5170  0.1071 -0.6461
  143OSM    H8F15743   0.427   4.077   7.763 -0.1002  0.9011  1.7142
  143OSM    H8G15744   0.283   4.122   7.669  0.4759 -0.0217 -0.4613
  143OSM    C9F15745   0.338   4.260   7.831  0.3438  0.0465  0.2404
  143OSM    H9F15746   0.241   4.311   7.821 -0.3555 -0.9624  1.6298
  143OSM   C10F15747   0.422   4.307   7.925  0.3505  0.1293  0.5377
  143OSM   H10F15748   0.394   4.389   7.992  1.3167  0.2900  0.7638
  143OSM   C11F15749   0.561   4.268   7.966  0.3576 -0.7940 -0.7648
  143OSM   H11F15750   0.628   4.343   7.918 -0.6911  1.4875  1.0795
  143OSM   H11G15751   0.591   4.165   7.940 -0.0005 -0.9328 -0.6289
  143OSM   C12F15752   0.586   4.265   8.122  0.1896  0.7946 -0.5823
  143OSM   H12F15753   0.545   4.168   8.159 -0.1094  1.3764  0.6374
  143OSM   H12G15754   0.538   4.349   8.175  1.1725  1.9871 -1.5221
  143OSM   C13F15755   0.733   4.247   8.162 -0.3292  0.5602  0.3695
  143OSM   H13F15756   0.794   4.334   8.128 -0.2239 -0.4385 -2.2309
  143OSM   H13G15757   0.776   4.157   8.113  0.6814  0.5135  1.3011
  143OSM   C14F15758   0.758   4.228   8.313  0.2093 -0.3084  0.6413
  143OSM   H14F15759   0.684   4.146   8.325  0.9296 -1.4602 -2.0340
  143OSM   H14G15760   0.727   4.320   8.368 -2.4909 -1.4319  1.1479
  143OSM   C15F15761   0.896   4.173   8.346 -1.1088  0.3785  0.4697
  143OSM   H15F15762   0.910   4.072   8.302 -2.7428 -0.2071  1.2171
  143OSM   H15G15763   0.932   4.167   8.451 -0.3306 -0.1637  0.1760
  143OSM   C16F15764   1.001   4.270   8.293 -0.0305  0.0664  0.5797
  143OSM   H16F15765   0.972   4.375   8.315 -2.8013 -0.0636 -1.9556
  143OSM   H16G15766   1.014   4.254   8.184 -2.7856 -1.9958  0.4579
  143OSM   C17F15767   1.139   4.255   8.356  0.4004  0.0553 -0.2114
  143OSM   H17F15768   1.177   4.151   8.341 -1.8635 -0.9312  0.3348
  143OSM   H17G15769   1.128   4.257   8.467 -0.4061 -2.1239 -0.1921
  143OSM   C18F15770   1.250   4.357   8.317 -0.4536 -0.9290  0.6767
  143OSM   H18F15771   1.261   4.350   8.206  2.6243 -0.4039  0.8618
  143OSM   H18G15772   1.344   4.321   8.364 -0.8416 -3.8704 -0.5313
  143OSM   H18H15773   1.205   4.458   8.330  0.6214 -0.3101 -0.2304
  144OSM      N15774   5.711   2.666   6.275  0.4121 -0.2887 -0.1845
  144OSM    C1515775   5.825   2.723   6.193 -0.7063  0.1778 -0.3695
  144OSM   H15A15776   5.802   2.822   6.158 -2.0846  0.0351  0.0845
  144OSM   H15B15777   5.851   2.668   6.104  0.4214  1.3131 -0.7691
  144OSM   H15C15778   5.915   2.718   6.254  1.0349  0.6979 -2.7612
  144OSM    C1415779   5.752   2.531   6.322  0.0408  0.5465 -0.0692
  144OSM   H14A15780   5.671   2.495   6.384 -0.1390 -1.6948 -1.4799
  144OSM   H14B15781   5.845   2.510   6.373 -0.2184  0.2948  0.3061
  144OSM   H14C15782   5.731   2.459   6.245 -0.5919  0.4888  0.1539
  144OSM    C1315783   5.688   2.754   6.395  0.1655  0.2844 -0.0311
  144OSM   H13A15784   5.634   2.708   6.477  1.0176 -2.0519 -0.7204
  144OSM   H13B15785   5.623   2.837   6.370  0.4269 -0.0352 -1.8441
  144OSM   H13C15786   5.780   2.797   6.431  1.3783 -0.6645 -1.8598
  144OSM    C1215787   5.580   2.662   6.200 -0.1490 -0.1649  0.3524
  144OSM   H12A15788   5.597   2.626   6.099 -1.7557 -1.1602  0.4069
  144OSM   H12B15789   5.558   2.768   6.189  1.6664  0.1927 -0.2237
  144OSM    C1115790   5.467   2.587   6.258 -0.4764  0.5302 -0.2110
  144OSM   H11A15791   5.372   2.602   6.202 -0.5652 -0.0119 -0.2097
  144OSM   H11B15792   5.434   2.638   6.351  0.8137  1.8455 -0.4329
  144OSM      P15793   5.415   2.351   6.361  0.1892  0.1415  0.0290
  144OSM    O1315794   5.281   2.325   6.301  0.4559  0.3502  0.1626
  144OSM    O1415795   5.501   2.237   6.400 -0.1569  0.6625  0.1165
  144OSM    O1115796   5.383   2.420   6.497  0.4594 -0.4985  0.2226
  144OSM    O1215797   5.496   2.449   6.269 -0.1379 -0.1110  0.0822
  144OSM    C1S15798   5.486   2.464   6.579 -0.6981  0.1148 -0.6600
  144OSM    H1S15799   5.539   2.549   6.530 -0.0903  0.2543  0.2021
  144OSM    H1T15800   5.560   2.387   6.608 -0.4675  0.3388 -0.6424
  144OSM     NF15801   5.541   2.576   6.787  0.8276  0.7034 -0.2137
  144OSM    HNF15802   5.592   2.524   6.855  0.5611 -1.8791 -1.8525
  144OSM    C2S15803   5.436   2.513   6.716  0.0059  0.4584 -0.2226
  144OSM    H2S15804   5.359   2.589   6.692 -0.2726  0.0170 -0.7567
  144OSM    C3S15805   5.362   2.388   6.789 -0.7268  0.1848 -0.1616
  144OSM    H3S15806   5.436   2.312   6.820 -2.0022 -0.7391  0.7408
  144OSM     O315807   5.270   2.310   6.717  0.2712 -0.3811  0.2470
  144OSM    HO315808   5.290   2.339   6.628  2.6981  1.4232  1.2673
  144OSM    C4S15809   5.294   2.438   6.915 -0.5961 -0.3279  0.1882
  144OSM    H4S15810   5.226   2.518   6.883  0.3152  0.1715 -0.5581
  144OSM    C5S15811   5.333   2.411   7.039 -0.0608  0.5885  0.5163
  144OSM    H5S15812   5.403   2.327   7.049 -0.5739 -0.0477 -0.9776
  144OSM    C6S15813   5.252   2.468   7.151 -0.4653 -0.7013  0.2267
  144OSM    H6S15814   5.155   2.413   7.154 -1.9963  1.7837 -0.1558
  144OSM    H6T15815   5.221   2.574   7.138 -2.3062 -1.0888  1.0943
  144OSM    C7S15816   5.318   2.453   7.288 -0.2947  0.0769  0.0446
  144OSM    H7S15817   5.414   2.509   7.294  0.2505 -0.9764  2.3288
  144OSM    H7T15818   5.344   2.347   7.306  1.1384 -0.1068 -2.5933
  144OSM    C8S15819   5.232   2.507   7.400  0.2996 -0.4175 -0.5941
  144OSM    H8S15820   5.161   2.432   7.440 -0.2997  1.6384  2.5935
  144OSM    H8T15821   5.174   2.595   7.365  0.3976  0.6341  1.6830
  144OSM    C9S15822   5.317   2.555   7.519 -0.4186  0.5297 -0.1306
  144OSM    H9S15823   5.380   2.645   7.502  2.2098 -1.1700  0.1133
  144OSM    H9T15824   5.392   2.474   7.531 -0.4230  0.5061 -0.2640
  144OSM   C10S15825   5.231   2.550   7.649  0.5114  0.1632 -0.2450
  144OSM   H10S15826   5.184   2.450   7.656 -1.1719  0.9456  0.1266
  144OSM   H10T15827   5.154   2.630   7.642  1.5562  1.0799 -1.8092
  144OSM   C11S15828   5.323   2.566   7.774  0.0073  0.3351  0.1268
  144OSM   H11S15829   5.356   2.671   7.788  0.6520 -0.0410  1.7440
  144OSM   H11T15830   5.416   2.505   7.765 -0.5145 -0.6983  1.3987
  144OSM   C12S15831   5.258   2.524   7.904  0.3454 -0.2837  0.2874
  144OSM   H12S15832   5.224   2.418   7.903  0.0587 -0.1988 -1.2964
  144OSM   H12T15833   5.170   2.591   7.910 -0.3704 -1.2923  1.8595
  144OSM   C13S15834   5.347   2.545   8.028 -0.3639 -0.0619 -0.2572
  144OSM   H13S15835   5.386   2.648   8.041 -0.8277  0.0755  0.0914
  144OSM   H13T15836   5.432   2.474   8.031  0.6492  1.0852 -0.9921
  144OSM   C14S15837   5.265   2.500   8.158  0.5899 -0.4757 -0.0419
  144OSM   H14S15838   5.246   2.390   8.163 -1.9901 -0.2078 -2.0589
  144OSM   H14T15839   5.166   2.549   8.153  0.4100 -0.8773 -4.6700
  144OSM   C15S15840   5.340   2.537   8.284  0.2609 -0.1720 -0.2902
  144OSM   H15S15841   5.368   2.645   8.285  2.0187 -0.5928  0.6997
  144OSM   H15T15842   5.437   2.485   8.294  1.2350  1.4459 -0.9563
  144OSM   C16S15843   5.259   2.508   8.408  0.1002 -0.0734  0.8666
  144OSM   H16S15844   5.228   2.401   8.407 -0.9141  0.1521 -1.5939
  144OSM   H16T15845   5.157   2.553   8.401 -0.4140 -1.3555 -0.4554
  144OSM   C17S15846   5.341   2.532   8.534 -0.1710 -0.5677 -0.8652
  144OSM   H17S15847   5.364   2.640   8.544 -0.1947 -0.4132 -2.2848
  144OSM   H17T15848   5.436   2.475   8.545  0.1672  0.3927  2.4520
  144OSM   C18S15849   5.255   2.503   8.662 -0.2723 -0.6045  0.0827
  144OSM   H18S15850   5.168   2.572   8.664  1.4343  1.7587 -1.2060
  144OSM   H18T15851   5.325   2.520   8.747 -0.2277 -2.4664  0.4445
  144OSM   H18U15852   5.228   2.395   8.659 -0.3613 -0.5854  0.2219
  144OSM    C1F15853   5.589   2.697   6.753  0.7050  0.4625 -0.3347
  144OSM     OF15854   5.541   2.758   6.658  0.1131 -0.5771  0.1471
  144OSM    C2F15855   5.696   2.760   6.829 -0.0462 -0.1812 -0.2783
  144OSM    H2F15856   5.736   2.696   6.911  1.1281  1.4537  0.4801
  144OSM    H2G15857   5.653   2.851   6.876 -3.2164 -2.2648  1.1534
  144OSM    C3F15858   5.816   2.798   6.742  0.4412 -0.0226 -0.1850
  144OSM    H3F15859   5.777   2.854   6.654 -3.0102  2.9294  2.8393
  144OSM    H3G15860   5.864   2.704   6.708  3.4504  1.1362  0.5327
  144OSM    C4F15861   5.916   2.889   6.809  0.2068 -0.0369 -0.3815
  144OSM    H4F15862   6.010   2.899   6.752 -0.0415  3.2324 -0.3774
  144OSM    H4G15863   5.949   2.830   6.898  0.4058  2.4493  1.2803
  144OSM    C5F15864   5.866   3.028   6.857  0.1082  0.0829  0.3910
  144OSM    H5F15865   5.784   3.005   6.928 -0.1951  0.0406  0.0297
  144OSM    H5G15866   5.827   3.091   6.774 -0.6098  1.5139  1.7626
  144OSM    C6F15867   5.966   3.116   6.926  0.0734  0.1546  0.6018
  144OSM    H6F15868   6.062   3.106   6.870  0.2761  0.9989  0.7776
  144OSM    H6G15869   5.997   3.068   7.021 -0.8968 -0.7569  0.4795
  144OSM    C7F15870   5.920   3.259   6.945  0.0530  0.0198 -0.2009
  144OSM    H7F15871   5.845   3.259   7.027  0.6342 -4.1183  0.5447
  144OSM    H7G15872   5.873   3.294   6.850 -2.4508 -1.6181  0.3199
  144OSM    C8F15873   6.034   3.358   6.981 -0.0995  0.4882  0.1195
  144OSM    H8F15874   6.100   3.369   6.892  1.6347 -3.0451  0.8024
  144OSM    H8G15875   6.089   3.306   7.063 -0.0145  1.4000  0.6564
  144OSM    C9F15876   5.996   3.497   7.030  0.0285 -0.2552  0.7808
  144OSM    H9F15877   5.943   3.551   6.950  0.4217  1.9215  1.9233
  144OSM   C10F15878   6.018   3.557   7.145  0.4086  0.0618  0.0392
  144OSM   H10F15879   6.003   3.666   7.150 -2.6792 -0.3278  2.3019
  144OSM   C11F15880   6.088   3.504   7.272  0.1008  0.5229  0.0604
  144OSM   H11F15881   6.196   3.507   7.246  0.6893 -0.2869  2.2019
  144OSM   H11G15882   6.060   3.397   7.286  1.7818  0.3026  2.2872
  144OSM   C12F15883   6.059   3.582   7.396  0.1583  0.1580  0.2804
  144OSM   H12F15884   5.954   3.572   7.431  0.3370  3.9071  2.4784
  144OSM   H12G15885   6.083   3.690   7.384  1.2128 -0.3191 -2.9455
  144OSM   C13F15886   6.139   3.510   7.503  0.2483 -0.0423 -0.4167
  144OSM   H13F15887   6.244   3.509   7.468  1.2880 -0.3325  2.4596
  144OSM   H13G15888   6.104   3.405   7.510 -0.0785  0.1530  1.0946
  144OSM   C14F15889   6.131   3.568   7.641 -0.2787 -0.3534  0.3858
  144OSM   H14F15890   6.109   3.677   7.630  0.0220 -0.1842  1.3546
  144OSM   H14G15891   6.227   3.564   7.698 -1.1030 -0.8163  1.7966
  144OSM   C15F15892   6.013   3.517   7.724  0.1199  0.5981  0.3820
  144OSM   H15F15893   6.050   3.415   7.748  0.9695  0.5026 -1.2332
  144OSM   H15G15894   5.920   3.513   7.663 -0.0793  2.4109  0.5348
  144OSM   C16F15895   5.994   3.603   7.849 -0.0217  0.7482  0.0136
  144OSM   H16F15896   5.981   3.708   7.817 -0.7847  0.3660 -0.9853
  144OSM   H16G15897   6.088   3.598   7.907 -0.0675  3.1316  0.3834
  144OSM   C17F15898   5.882   3.549   7.951 -0.3669 -0.6516 -0.0410
  144OSM   H17F15899   5.909   3.444   7.973  2.6096 -0.7994 -3.4262
  144OSM   H17G15900   5.783   3.544   7.900  0.0653 -0.6587 -0.8911
  144OSM   C18F15901   5.862   3.641   8.078 -0.3391  0.3334 -0.1383
  144OSM   H18F15902   5.798   3.726   8.045  1.7631  1.3705 -1.8104
  144OSM   H18G15903   5.961   3.689   8.095  0.0920 -0.7172  0.3818
  144OSM   H18H15904   5.812   3.590   8.164  0.8513 -0.9336 -0.1654
  145SAPE     N15905   4.705   5.425  10.678 -0.1325 -0.1235 -0.2389
  145SAPE   HN115906   4.716   5.518  10.721 -0.8745 -0.2752  0.2861
  145SAPE   HN215907   4.797   5.396  10.637  0.7182  0.8298  0.9366
  145SAPE   HN315908   4.628   5.427  10.608  0.4907  0.3715 -0.9238
  145SAPE   C1215909   4.669   5.316  10.776  0.0389 -0.2078  0.4499
  145SAPE  H12A15910   4.558   5.320  10.779  0.0617  0.4678  0.3583
  145SAPE  H12B15911   4.720   5.330  10.873 -1.3052 -0.4478  1.2275
  145SAPE   C1115912   4.687   5.173  10.715 -0.0259  0.0583  0.7725
  145SAPE  H11A15913   4.646   5.097  10.785 -0.1013 -1.2169 -0.6102
  145SAPE  H11B15914   4.794   5.151  10.698 -0.6423 -1.5781 -1.3051
  145SAPE     P15915   4.495   5.077  10.571 -0.0486 -0.3269  0.3053
  145SAPE   O1315916   4.399   5.097  10.682 -0.4089  0.6720 -0.1934
  145SAPE   O1415917   4.432   5.077  10.441  0.0883  0.1637 -0.2486
  145SAPE   O1215918   4.625   5.171  10.582  0.2393  1.0778  0.3626
  145SAPE   O1115919   4.564   4.939  10.595  0.3958  0.4969 -0.2767
  145SAPE    C115920   4.659   4.863  10.525 -0.8876  0.2815  0.3391
  145SAPE    HA15921   4.730   4.928  10.471  0.0420 -0.7162  0.3192
  145SAPE    HB15922   4.737   4.820  10.591  0.9513  0.9232 -1.3486
  145SAPE    C215923   4.592   4.754  10.439 -0.6269  0.5580  0.2414
  145SAPE    HS15924   4.673   4.686  10.404 -1.4377 -0.3083  0.0128
  145SAPE   O2115925   4.519   4.808  10.327 -0.3728  0.1309 -0.3597
  145SAPE   C2115926   4.597   4.846  10.222  0.4272  0.5062 -0.1780
  145SAPE   O2215927   4.716   4.813  10.208 -0.0933 -0.1705 -0.7673
  145SAPE   C2215928   4.521   4.924  10.115 -0.0332 -0.2359 -0.3809
  145SAPE   H2R15929   4.464   5.007  10.161 -2.3941 -1.0230 -1.7154
  145SAPE   H2S15930   4.600   4.975  10.055 -0.5394  0.1674 -0.7109
  145SAPE    C315931   4.487   4.667  10.522  0.7198 -0.3952  0.6204
  145SAPE    HX15932   4.399   4.724  10.559 -0.3743  1.1873 -3.7475
  145SAPE    HY15933   4.545   4.634  10.611  0.3722 -0.3179  0.8777
  145SAPE   O3115934   4.437   4.554  10.451 -0.3592 -0.4842  0.1801
  145SAPE   C3115935   4.326   4.561  10.383 -0.2173 -0.6400  0.0492
  145SAPE   O3215936   4.246   4.661  10.375 -0.0133  0.6473 -0.1391
  145SAPE   C3215937   4.299   4.426  10.327  0.5774 -0.6048 -0.1478
  145SAPE   H2X15938   4.197   4.433  10.283  0.6412  0.1441 -0.1932
  145SAPE   H2Y15939   4.300   4.347  10.404 -1.3013  0.3122  0.8814
  145SAPE   C2315940   4.431   4.847  10.010  0.1382 -0.1055  0.2965
  145SAPE   H3R15941   4.332   4.819  10.053 -1.0368  0.4250 -1.8984
  145SAPE   H3S15942   4.475   4.749   9.983 -2.2284 -1.5927  1.4563
  145SAPE   C2415943   4.412   4.934   9.885 -0.4027  0.0215 -0.2065
  145SAPE   H4R15944   4.498   4.932   9.814 -0.2781  1.7648 -0.1385
  145SAPE   H4S15945   4.389   5.038   9.916 -0.4112 -0.7826  2.6806
  145SAPE   C2515946   4.278   4.906   9.815 -0.3883 -0.1509 -0.1088
  145SAPE   H5R15947   4.186   4.933   9.869 -0.1434  1.7002 -0.5568
  145SAPE   C2615948   4.272   4.854   9.691 -0.5048  0.1960  0.2699
  145SAPE   H6R15949   4.174   4.834   9.645 -1.1469 -1.3079  2.1587
  145SAPE   C2715950   4.390   4.808   9.612 -0.5651 -0.1721 -0.5842
  145SAPE   H7R15951   4.469   4.886   9.621 -0.9885  0.3326 -1.1499
  145SAPE   H7S15952   4.371   4.810   9.503 -1.3404  2.0417 -0.4653
  145SAPE   C2815953   4.441   4.674   9.665  1.0658  0.0789 -0.7975
  145SAPE   H8R15954   4.433   4.661   9.774 -0.9124  0.4724 -0.8589
  145SAPE   C2915955   4.490   4.565   9.602 -0.3465 -1.2635 -0.0421
  145SAPE   H9R15956   4.494   4.470   9.657  0.0638 -0.7482  0.8526
  145SAPE  C21015957   4.516   4.553   9.456 -0.1877 -0.4756 -0.7234
  145SAPE  H10R15958   4.557   4.653   9.432 -0.6255  0.0701  0.7080
  145SAPE  H10S15959   4.419   4.553   9.403 -0.6179  0.1065  0.0485
  145SAPE  C21115960   4.614   4.440   9.431 -0.0781 -0.0752 -0.1424
  145SAPE  H11R15961   4.702   4.429   9.496 -0.8065  0.5399  0.9789
  145SAPE  C21215962   4.609   4.352   9.331  0.3346  0.5476  0.2374
  145SAPE  H12R15963   4.692   4.280   9.324 -1.0403 -1.1256  0.2317
  145SAPE  C21315964   4.504   4.351   9.225  1.1616  0.4827 -0.0735
  145SAPE  H13R15965   4.551   4.328   9.126  2.6890 -0.0854  0.7470
  145SAPE  H13S15966   4.462   4.453   9.213  0.3796  0.4107  1.7532
  145SAPE  C21415967   4.385   4.258   9.258  0.3758  0.2328  0.2783
  145SAPE  H14R15968   4.404   4.196   9.347 -1.3012 -1.1680 -0.2953
  145SAPE  C21515969   4.279   4.230   9.177 -0.0799  0.1347 -0.6049
  145SAPE  H15R15970   4.206   4.162   9.223 -2.3088  0.8565 -2.8826
  145SAPE  C21615971   4.261   4.290   9.038 -0.3936  0.4561  0.2427
  145SAPE  H16R15972   4.308   4.390   9.028 -0.3492  0.8257  3.2236
  145SAPE  H16S15973   4.154   4.285   9.007 -0.0573  0.2932 -0.9492
  145SAPE  C21715974   4.326   4.203   8.924  0.3641  0.1431 -0.9582
  145SAPE  H17R15975   4.273   4.106   8.917  2.4151 -1.1784  0.4560
  145SAPE  H17S15976   4.434   4.197   8.949 -0.0237  0.6473  1.0101
  145SAPE  C21815977   4.306   4.276   8.799 -0.0524 -0.0033  0.0080
  145SAPE  H18R15978   4.348   4.378   8.815 -0.1863  0.0648 -0.0679
  145SAPE  H18S15979   4.200   4.293   8.768  0.0069 -1.8215 -1.3816
  145SAPE  C21915980   4.377   4.229   8.674 -0.0988  0.2627 -0.7957
  145SAPE  H19R15981   4.332   4.288   8.591  0.2480  1.3922 -0.2114
  145SAPE  H19S15982   4.358   4.123   8.649  0.2222 -0.0700  0.3349
  145SAPE  C22015983   4.523   4.266   8.675 -0.2881  0.3907  0.1246
  145SAPE  H20R15984   4.562   4.193   8.749  0.5610 -0.1466 -0.8308
  145SAPE  H20S15985   4.525   4.374   8.699 -1.5725  0.6302 -0.7814
  145SAPE  H20T15986   4.570   4.247   8.576  0.6681  0.0296  0.6314
  145SAPE   C3315987   4.394   4.387  10.224  0.0014  0.2037  0.4653
  145SAPE   H3X15988   4.394   4.279  10.199  1.3490  0.3291 -0.1948
  145SAPE   H3Y15989   4.494   4.417  10.261 -0.1696 -0.7153  1.7363
  145SAPE   C3415990   4.381   4.475  10.096  0.2788  1.0291  0.2396
  145SAPE   H4X15991   4.392   4.585  10.104  1.9987  1.1637 -2.6963
  145SAPE   H4Y15992   4.288   4.435  10.049  0.7299 -0.0537  0.2232
  145SAPE   C3515993   4.499   4.438   9.998  0.3963 -0.2289  0.3180
  145SAPE   H5X15994   4.481   4.494   9.904  1.6727 -0.5527 -0.1425
  145SAPE   H5Y15995   4.503   4.329   9.973  0.6550  0.2772 -2.0055
  145SAPE   C3615996   4.642   4.489  10.049  0.5349  0.4467 -1.1349
  145SAPE   H6X15997   4.651   4.430  10.143  1.2326 -0.7458 -1.9404
  145SAPE   H6Y15998   4.631   4.595  10.080 -0.1803 -0.6171  2.8539
  145SAPE   C3715999   4.748   4.456   9.948  0.5659 -0.8818 -0.1724
  145SAPE   H7X16000   4.719   4.370   9.885 -1.9786 -0.4209  0.2670
  145SAPE   H7Y16001   4.837   4.427  10.008  2.3115 -0.7678 -2.5698
  145SAPE   C3816002   4.801   4.578   9.867 -0.2386 -0.0604 -0.0855
  145SAPE   H8X16003   4.836   4.661   9.933  4.4819  0.4649 -2.8655
  145SAPE   H8Y16004   4.721   4.618   9.801  0.0549  2.9991  1.2286
  145SAPE   C3916005   4.932   4.560   9.769  0.6793 -1.0627  0.9627
  145SAPE   H9X16006   4.907   4.476   9.700 -0.7654 -0.0676  0.2168
  145SAPE   H9Y16007   5.022   4.538   9.830 -0.9575 -1.6873  3.2705
  145SAPE  C31016008   4.960   4.690   9.693 -0.0993  0.2358  0.2943
  145SAPE  H10X16009   4.989   4.768   9.767 -0.5819  0.6410  0.0641
  145SAPE  H10Y16010   4.867   4.712   9.638  1.3028 -0.1784 -2.4038
  145SAPE  C31116011   5.067   4.681   9.587  0.2357 -0.7851  0.3556
  145SAPE  H11X16012   5.151   4.626   9.634  0.1431 -1.0941  0.1620
  145SAPE  H11Y16013   5.102   4.786   9.574 -0.4403 -0.3455  1.9151
  145SAPE  C31216014   5.032   4.624   9.447  0.0781 -0.1172  0.3408
  145SAPE  H12X16015   5.000   4.518   9.462 -1.4546  0.4391  1.1180
  145SAPE  H12Y16016   5.131   4.627   9.397 -1.2997  1.9108 -2.5693
  145SAPE  C31316017   4.926   4.698   9.369 -1.0802 -0.5325 -0.3054
  145SAPE  H13X16018   4.964   4.801   9.355  0.4395 -1.1863 -1.2435
  145SAPE  H13Y16019   4.831   4.705   9.427 -0.3639 -0.5556  0.9011
  145SAPE  C31416020   4.901   4.647   9.228  0.0087 -0.8544  0.3188
  145SAPE  H14X16021   4.842   4.557   9.256  0.8895 -0.7299  2.8170
  145SAPE  H14Y16022   4.993   4.617   9.174 -0.3594 -1.2775 -0.0808
  145SAPE  C31516023   4.812   4.737   9.154 -0.3982 -0.2648  0.1279
  145SAPE  H15X16024   4.867   4.792   9.074  0.3557  1.4127  1.7039
  145SAPE  H15Y16025   4.749   4.804   9.216 -1.4717 -1.2924  0.1711
  145SAPE  C31616026   4.715   4.650   9.070 -0.0714 -0.1669  0.6064
  145SAPE  H16X16027   4.652   4.585   9.135  1.0794 -0.6492  1.2727
  145SAPE  H16Y16028   4.773   4.579   9.007 -3.0841 -1.2116 -1.1958
  145SAPE  C31716029   4.624   4.733   8.977  0.5437 -0.7385 -0.0284
  145SAPE  H17X16030   4.682   4.786   8.898  0.2936 -0.4544 -0.0241
  145SAPE  H17Y16031   4.559   4.810   9.023 -0.9950 -1.2603 -1.2383
  145SAPE  C31816032   4.523   4.641   8.912 -0.2551  1.0294 -0.0417
  145SAPE  H18X16033   4.455   4.697   8.845  0.1624  1.7918  0.1598
  145SAPE  H18Y16034   4.454   4.605   8.991 -1.3920  1.8593 -0.6254
  145SAPE  H18Z16035   4.573   4.551   8.870 -0.9505  0.0113  1.2258
  146SAPE     N16036   5.891   5.415  11.029  0.5737 -0.2739  0.3147
  146SAPE   HN116037   5.984   5.448  10.995 -1.1091  4.4556 -0.4905
  146SAPE   HN216038   5.867   5.463  11.118  1.9012  1.3915 -0.1633
  146SAPE   HN316039   5.898   5.312  11.037  1.0205 -0.5468 -2.5374
  146SAPE   C1216040   5.797   5.476  10.923 -0.2004  0.3472  0.0566
  146SAPE  H12A16041   5.841   5.464  10.822 -0.6125  0.7838 -0.1765
  146SAPE  H12B16042   5.793   5.584  10.948  1.0709 -0.0687  2.2802
  146SAPE   C1116043   5.655   5.410  10.920 -0.0902 -0.2749 -0.0807
  146SAPE  H11A16044   5.588   5.466  10.851  0.7447  0.5765 -0.2194
  146SAPE  H11B16045   5.610   5.415  11.021  1.3781 -0.3364  0.6095
  146SAPE     P16046   5.655   5.233  10.741  0.2252  0.5346 -0.3607
  146SAPE   O1316047   5.796   5.246  10.700  0.3858 -0.1015 -0.2258
  146SAPE   O1416048   5.594   5.097  10.730 -0.1533  0.0778 -0.0260
  146SAPE   O1216049   5.656   5.269  10.892  0.4294 -0.4644  0.4109
  146SAPE   O1116050   5.563   5.334  10.663  0.7941 -0.4968 -0.4351
  146SAPE    C116051   5.418   5.326  10.677 -0.9057 -0.5733  0.2082
  146SAPE    HA16052   5.386   5.314  10.783 -1.2316 -2.2474 -0.0388
  146SAPE    HB16053   5.383   5.426  10.646 -0.6154 -1.3356 -2.8627
  146SAPE    C216054   5.345   5.223  10.589  0.2909  0.5354 -0.6665
  146SAPE    HS16055   5.360   5.123  10.637  0.3624  0.3989 -0.9722
  146SAPE   O2116056   5.387   5.232  10.456  0.2634 -0.0413  0.3573
  146SAPE   C2116057   5.369   5.121  10.380  0.5078  0.5935 -0.0101
  146SAPE   O2216058   5.325   5.009  10.406 -0.5575  0.1832 -0.2802
  146SAPE   C2216059   5.415   5.159  10.238 -0.1527  0.6428  0.1291
  146SAPE   H2R16060   5.483   5.247  10.241 -0.8520  1.1886  0.1986
  146SAPE   H2S16061   5.484   5.079  10.206  1.7094  1.3090  2.1475
  146SAPE    C316062   5.197   5.260  10.593  0.0535  0.3004  0.3086
  146SAPE    HX16063   5.158   5.256  10.697  0.9895  1.3237  0.7248
  146SAPE    HY16064   5.144   5.181  10.536 -1.3060 -0.0589  1.9808
  146SAPE   O3116065   5.172   5.388  10.535  0.7491 -0.5146 -0.1600
  146SAPE   C3116066   5.067   5.458  10.561 -0.5708 -0.3244 -0.2792
  146SAPE   O3216067   4.971   5.425  10.624 -0.9701 -0.3164  0.4415
  146SAPE   C3216068   5.070   5.599  10.494  0.0339  0.6287 -0.7752
  146SAPE   H2X16069   5.120   5.652  10.578 -0.5016  0.5030 -0.3669
  146SAPE   H2Y16070   4.968   5.641  10.482  0.6643  1.7485 -2.4566
  146SAPE   C2316071   5.301   5.175  10.137  0.5042  0.1907 -0.4333
  146SAPE   H3R16072   5.208   5.145  10.191  2.4104 -0.1347  2.9348
  146SAPE   H3S16073   5.325   5.106  10.053 -1.1357 -1.2053  0.1848
  146SAPE   C2416074   5.281   5.312  10.066  0.3322  0.5115  0.1311
  146SAPE   H4R16075   5.299   5.391  10.142  2.0004 -0.9903  1.3757
  146SAPE   H4S16076   5.175   5.323  10.034 -0.1212  1.4708  1.8243
  146SAPE   C2516077   5.369   5.336   9.947 -0.1112 -0.2183 -0.4276
  146SAPE   H5R16078   5.468   5.370   9.983 -0.3909 -1.9364  2.2104
  146SAPE   C2616079   5.331   5.342   9.820 -0.1285  1.0947 -0.3107
  146SAPE   H6R16080   5.401   5.361   9.737 -0.3115 -1.0876 -1.0132
  146SAPE   C2716081   5.193   5.316   9.764  0.3886  0.2380  0.7018
  146SAPE   H7R16082   5.187   5.360   9.662  0.0714 -1.7679 -0.1815
  146SAPE   H7S16083   5.110   5.359   9.823 -0.8390 -1.6459  0.4112
  146SAPE   C2816084   5.176   5.170   9.741 -0.0001  0.1799  0.3146
  146SAPE   H8R16085   5.183   5.105   9.829 -1.9375 -2.5525 -1.3730
  146SAPE   C2916086   5.158   5.104   9.625 -0.9398  0.1042  0.5405
  146SAPE   H9R16087   5.172   4.995   9.625 -3.1687 -0.2699 -1.1044
  146SAPE  C21016088   5.152   5.158   9.485 -0.4758  0.7991  0.4677
  146SAPE  H10R16089   5.077   5.239   9.476  1.1663  2.2176 -1.7954
  146SAPE  H10S16090   5.115   5.075   9.422  0.8186  1.0487 -0.6709
  146SAPE  C21116091   5.281   5.218   9.423  0.5953 -0.3814 -0.0431
  146SAPE  H11R16092   5.381   5.206   9.468 -0.1124  1.9154  2.4001
  146SAPE  C21216093   5.271   5.300   9.315 -0.8689 -0.0236  0.0065
  146SAPE  H12R16094   5.365   5.333   9.269 -1.7054 -0.8050 -2.4067
  146SAPE  C21316095   5.145   5.341   9.240 -0.6816 -0.1910  0.6439
  146SAPE  H13R16096   5.126   5.449   9.257  0.4824  0.1791 -0.2730
  146SAPE  H13S16097   5.056   5.293   9.287 -0.0470 -1.9297  0.1597
  146SAPE  C21416098   5.156   5.300   9.102 -0.2917 -0.0706  0.2893
  146SAPE  H14R16099   5.236   5.347   9.042 -0.2129 -0.1000  0.3722
  146SAPE  C21516100   5.075   5.217   9.041 -0.0218 -0.0798  0.0469
  146SAPE  H15R16101   5.097   5.207   8.934  0.0765 -0.9039  0.1404
  146SAPE  C21616102   4.955   5.136   9.088 -0.1744 -0.3927  0.4931
  146SAPE  H16R16103   4.941   5.166   9.194  1.4633 -0.2620  0.6885
  146SAPE  H16S16104   4.975   5.027   9.079 -1.6438 -0.7344  1.0941
  146SAPE  C21716105   4.829   5.173   9.002  0.1140 -0.1670  0.2178
  146SAPE  H17R16106   4.807   5.281   8.990 -1.2418 -0.3309  0.9879
  146SAPE  H17S16107   4.742   5.129   9.056 -0.0296 -1.9254 -1.3412
  146SAPE  C21816108   4.829   5.118   8.855 -0.3474  0.2529 -1.1436
  146SAPE  H18R16109   4.869   5.014   8.852 -2.6415 -0.7367  0.0751
  146SAPE  H18S16110   4.890   5.182   8.789  2.2288 -0.7204  0.1689
  146SAPE  C21916111   4.683   5.113   8.801 -0.5518  0.1095 -0.3805
  146SAPE  H19R16112   4.619   5.194   8.842 -1.8635 -1.0822 -0.0065
  146SAPE  H19S16113   4.636   5.015   8.827  1.0774 -1.1440 -1.9062
  146SAPE  C22016114   4.680   5.131   8.646  0.3730  0.2250 -0.1563
  146SAPE  H20R16115   4.711   5.236   8.624  1.5559 -0.1630 -0.4584
  146SAPE  H20S16116   4.580   5.110   8.605 -0.1592 -1.9000  1.9798
  146SAPE  H20T16117   4.755   5.065   8.596 -1.6656 -1.5556 -0.9874
  146SAPE   C3316118   5.156   5.618  10.368  0.5735  0.4865  0.3196
  146SAPE   H3X16119   5.253   5.564  10.364  0.4513  0.3234 -0.8493
  146SAPE   H3Y16120   5.186   5.725  10.367  1.0911  0.3997  2.4161
  146SAPE   C3416121   5.068   5.596  10.241  0.3448  0.0239  0.5317
  146SAPE   H4X16122   4.969   5.634  10.275 -0.6935 -1.6048 -0.5328
  146SAPE   H4Y16123   5.052   5.490  10.212 -1.2978  0.2541  0.4872
  146SAPE   C3516124   5.128   5.665  10.115  0.1903 -0.7011  0.5417
  146SAPE   H5X16125   5.229   5.622  10.101  1.3438  1.8784  0.4014
  146SAPE   H5Y16126   5.140   5.773  10.137 -2.9301  0.0309 -0.7819
  146SAPE   C3616127   5.053   5.644   9.983 -0.7273  0.3224  0.2184
  146SAPE   H6X16128   4.943   5.655   9.997 -0.5888  0.4336  1.2811
  146SAPE   H6Y16129   5.061   5.536   9.958 -0.9480 -0.3093  2.6429
  146SAPE   C3716130   5.105   5.728   9.865  0.1835  0.1253  0.3891
  146SAPE   H7X16131   5.216   5.726   9.858  0.2081 -0.0219  0.8107
  146SAPE   H7Y16132   5.063   5.829   9.882 -0.9584 -0.1539 -0.6035
  146SAPE   C3816133   5.056   5.685   9.725  0.3655  0.1598  0.7412
  146SAPE   H8X16134   4.946   5.666   9.724  0.3907 -0.0018 -0.5631
  146SAPE   H8Y16135   5.091   5.586   9.688 -1.3233 -1.0482  2.1661
  146SAPE   C3916136   5.084   5.803   9.632 -0.3026 -0.6199  0.2790
  146SAPE   H9X16137   5.191   5.830   9.628 -0.4798  0.1117  0.2611
  146SAPE   H9Y16138   5.022   5.891   9.660  0.7909  0.1483  0.3676
  146SAPE  C31016139   5.033   5.767   9.496  0.0703  0.0736 -1.1909
  146SAPE  H10X16140   4.936   5.715   9.509  0.0223  0.1886 -1.0769
  146SAPE  H10Y16141   5.105   5.692   9.459  0.6345 -0.8933  1.5906
  146SAPE  C31116142   5.034   5.879   9.388  0.3453  0.1210  0.0305
  146SAPE  H11X16143   5.132   5.926   9.366  0.1075 -0.8421 -3.7305
  146SAPE  H11Y16144   4.972   5.966   9.419 -0.1973 -0.1512 -0.2754
  146SAPE  C31216145   4.986   5.820   9.258  0.6621 -0.7706  0.6967
  146SAPE  H12X16146   4.878   5.795   9.272 -0.2438  0.5827 -2.7937
  146SAPE  H12Y16147   5.030   5.724   9.226 -1.5168 -2.6140  2.8269
  146SAPE  C31316148   4.986   5.940   9.153  0.8544  0.2595 -0.0918
  146SAPE  H13X16149   5.093   5.967   9.141  0.9126  1.0044  1.7869
  146SAPE  H13Y16150   4.949   6.027   9.210  1.5326  2.0534 -2.2422
  146SAPE  C31416151   4.919   5.920   9.018  0.1939  0.1206  0.0490
  146SAPE  H14X16152   4.812   5.902   9.041  0.3175  1.2990  1.7392
  146SAPE  H14Y16153   4.974   5.840   8.964  0.4647 -0.5034  1.2246
  146SAPE  C31516154   4.927   6.041   8.920  0.2856  0.0416 -0.1696
  146SAPE  H15X16155   5.025   6.088   8.939  0.0223  0.6278 -0.2373
  146SAPE  H15Y16156   4.852   6.121   8.938 -0.6623 -0.5348 -1.3707
  146SAPE  C31616157   4.916   6.014   8.767 -0.8731 -0.4451  0.3171
  146SAPE  H16X16158   4.845   5.929   8.754 -0.8318 -0.2882 -1.1935
  146SAPE  H16Y16159   5.010   5.967   8.731 -1.7015 -1.9420  0.0353
  146SAPE  C31716160   4.861   6.141   8.691 -0.0186  0.4132 -0.4263
  146SAPE  H17X16161   4.921   6.231   8.717  1.1473 -0.4574 -0.0166
  146SAPE  H17Y16162   4.758   6.144   8.733  0.4140 -2.2358  1.0103
  146SAPE  C31816163   4.838   6.121   8.544  0.0561  0.0362  0.0793
  146SAPE  H18X16164   4.767   6.194   8.500  0.3725  1.9027  2.4800
  146SAPE  H18Y16165   4.798   6.020   8.517 -0.3377 -0.6488  2.8806
  146SAPE  H18Z16166   4.932   6.136   8.488 -0.4099 -0.5150 -0.8872
  147SAPE     N16167   4.663   0.460  10.809 -0.5936  0.6183  0.7244
  147SAPE   HN116168   4.560   0.450  10.815 -0.5324 -0.9588 -0.4055
  147SAPE   HN216169   4.681   0.563  10.817 -2.9458  1.1099  0.4478
  147SAPE   HN316170   4.687   0.442  10.709  1.2516  0.7902  1.1151
  147SAPE   C1216171   4.737   0.370  10.900 -0.6722 -0.2535  0.6025
  147SAPE  H12A16172   4.721   0.265  10.868  1.7918 -0.9446  1.4242
  147SAPE  H12B16173   4.698   0.379  11.004 -1.9402 -4.1327  0.6222
  147SAPE   C1116174   4.888   0.398  10.890  0.6120  0.9954 -0.1066
  147SAPE  H11A16175   4.911   0.369  10.784  0.6762  0.5138  0.0329
  147SAPE  H11B16176   4.945   0.335  10.962  1.7939  3.3724  1.1374
  147SAPE     P16177   5.054   0.606  10.899  0.3904  0.2494 -0.3064
  147SAPE   O1316178   5.033   0.754  10.930 -0.1474  0.0912 -0.2844
  147SAPE   O1416179   5.146   0.523  10.989  0.0256  0.2282 -0.3627
  147SAPE   O1216180   4.917   0.536  10.911 -0.3199 -0.1488  0.5809
  147SAPE   O1116181   5.093   0.578  10.738 -0.1801 -0.6982  0.0002
  147SAPE    C116182   5.020   0.671  10.656 -0.1797 -0.1533  0.6026
  147SAPE    HA16183   4.925   0.625  10.622  0.0752  0.3722 -0.9259
  147SAPE    HB16184   4.987   0.767  10.703  0.5405 -0.2169  1.2486
  147SAPE    C216185   5.084   0.715  10.519 -0.5168  0.6195  0.1404
  147SAPE    HS16186   4.997   0.743  10.454  0.8170 -0.7624 -2.3871
  147SAPE   O2116187   5.161   0.608  10.469 -0.5665 -0.1868  0.6502
  147SAPE   C2116188   5.101   0.500  10.430  0.2726  0.5691 -0.1800
  147SAPE   O2216189   4.983   0.484  10.413  0.1932  0.1523  0.1628
  147SAPE   C2216190   5.218   0.410  10.391 -0.6627  1.4692  0.7762
  147SAPE   H2R16191   5.274   0.460  10.309  2.1658 -0.8255  1.1665
  147SAPE   H2S16192   5.288   0.406  10.477 -0.6127 -1.0771  0.6799
  147SAPE    C316193   5.181   0.840  10.521 -0.2895  0.6786 -0.2328
  147SAPE    HX16194   5.229   0.855  10.422  0.0483 -0.7114 -0.2916
  147SAPE    HY16195   5.260   0.810  10.593 -1.1513 -2.5324 -0.5005
  147SAPE   O3116196   5.112   0.958  10.564  0.3970  0.0240  0.3543
  147SAPE   C3116197   5.185   1.063  10.588  0.1085  0.3565  0.5716
  147SAPE   O3216198   5.305   1.084  10.581  0.0683  0.3384 -0.0286
  147SAPE   C3216199   5.089   1.177  10.624 -0.0678 -0.0031 -0.0293
  147SAPE   H2X16200   5.123   1.220  10.720  1.5016  0.1430 -0.6041
  147SAPE   H2Y16201   4.985   1.139  10.634 -0.3504  0.6113 -0.5644
  147SAPE   C2316202   5.183   0.258  10.365 -0.2301  0.5583 -0.4076
  147SAPE   H3R16203   5.113   0.227  10.445  0.4294 -2.6623 -0.9512
  147SAPE   H3S16204   5.268   0.189  10.386 -2.0281 -1.5708  0.1998
  147SAPE   C2416205   5.126   0.244  10.225 -0.8146  0.3305  0.5149
  147SAPE   H4R16206   5.043   0.317  10.223 -0.4011  0.7892 -0.3866
  147SAPE   H4S16207   5.088   0.141  10.206 -2.1573  0.9421 -0.2945
  147SAPE   C2516208   5.215   0.286  10.113 -0.6550 -0.3738 -0.0897
  147SAPE   H5R16209   5.301   0.217  10.109 -0.0139  0.3200  1.1099
  147SAPE   C2616210   5.212   0.400  10.034 -0.5195 -0.0955 -0.1359
  147SAPE   H6R16211   5.292   0.433   9.966 -1.3614  2.9660  0.2249
  147SAPE   C2716212   5.101   0.500  10.026  1.0161  0.3766  0.1926
  147SAPE   H7R16213   5.134   0.592   9.974 -0.2249  1.3619  1.0555
  147SAPE   H7S16214   5.062   0.526  10.127  1.9054  0.8204  0.4319
  147SAPE   C2816215   4.993   0.442   9.936 -0.3843  0.1514  0.1641
  147SAPE   H8R16216   4.914   0.387   9.989 -2.3498 -0.0788 -2.8078
  147SAPE   C2916217   5.001   0.427   9.803 -0.4716 -0.1556 -0.4277
  147SAPE   H9R16218   4.916   0.392   9.742 -0.9735  0.7202 -0.2522
  147SAPE  C21016219   5.114   0.472   9.712  0.5356 -0.2766 -0.2532
  147SAPE  H10R16220   5.115   0.409   9.620  1.4699 -0.8947  0.1666
  147SAPE  H10S16221   5.207   0.458   9.771 -0.2603 -0.4149  1.0087
  147SAPE  C21116222   5.101   0.615   9.682 -0.0014 -0.4694  0.0828
  147SAPE  H11R16223   5.095   0.686   9.765  2.8163 -0.3596  0.2806
  147SAPE  C21216224   5.095   0.674   9.564  0.5154 -0.0954  0.5390
  147SAPE  H12R16225   5.075   0.782   9.562 -1.1440 -0.3877 -0.2968
  147SAPE  C21316226   5.112   0.611   9.430 -0.2821 -0.1653 -0.4509
  147SAPE  H13R16227   5.185   0.528   9.431 -1.0145 -0.8124  0.1362
  147SAPE  H13S16228   5.137   0.695   9.361 -0.4083 -0.6982 -1.1500
  147SAPE  C21416229   4.981   0.559   9.373 -0.2542  0.7649  0.9538
  147SAPE  H14R16230   4.926   0.494   9.442 -0.4034 -0.7324 -0.5147
  147SAPE  C21516231   4.929   0.571   9.255  0.0188  0.1487  0.1379
  147SAPE  H15R16232   4.826   0.537   9.242  0.5179 -1.1271 -0.7920
  147SAPE  C21616233   4.990   0.629   9.129  0.2154  0.3505  0.5373
  147SAPE  H16R16234   5.013   0.547   9.059 -1.0080 -1.1605  1.8301
  147SAPE  H16S16235   5.092   0.671   9.147  1.5165 -0.8951 -3.1285
  147SAPE  C21716236   4.897   0.737   9.061 -0.6053  0.4175  0.1027
  147SAPE  H17R16237   4.945   0.793   8.978 -0.8629 -1.3976 -1.3352
  147SAPE  H17S16238   4.867   0.807   9.142 -1.4145 -0.3297  0.4690
  147SAPE  C21816239   4.764   0.688   9.011  0.9586  0.3335  1.1670
  147SAPE  H18R16240   4.694   0.765   9.052 -0.5505 -0.8119  0.8107
  147SAPE  H18S16241   4.732   0.592   9.057 -1.8310  0.2341 -0.7387
  147SAPE  C21916242   4.758   0.679   8.855  0.5262 -0.1521  0.1285
  147SAPE  H19R16243   4.837   0.608   8.820 -2.3557 -3.6449  0.1004
  147SAPE  H19S16244   4.778   0.780   8.814  1.1137 -0.7834 -1.2158
  147SAPE  C22016245   4.620   0.628   8.794  0.0169 -0.1459  0.0947
  147SAPE  H20R16246   4.593   0.530   8.839 -1.1023 -0.9866 -2.2603
  147SAPE  H20S16247   4.631   0.602   8.687  2.2230 -0.1626  0.2933
  147SAPE  H20T16248   4.531   0.693   8.811 -0.3597  0.6298 -4.0157
  147SAPE   C3316249   5.093   1.273  10.501  0.0152  0.1203 -0.2265
  147SAPE   H3X16250   5.092   1.211  10.409  1.7091  1.5585 -1.2769
  147SAPE   H3Y16251   5.190   1.327  10.495  0.7684 -0.8414  1.9807
  147SAPE   C3416252   4.981   1.373  10.505  0.4380 -0.7238  0.5913
  147SAPE   H4X16253   5.000   1.437  10.594  2.3069 -0.7238  0.2384
  147SAPE   H4Y16254   4.880   1.327  10.506  1.0541 -2.1544 -0.0544
  147SAPE   C3516255   4.982   1.470  10.383  0.4066  0.6245  0.3074
  147SAPE   H5X16256   5.086   1.509  10.380  1.4050 -1.3661  3.3542
  147SAPE   H5Y16257   4.921   1.556  10.416  1.6589  1.5950  0.1809
  147SAPE   C3616258   4.928   1.406  10.256  0.1446  0.2431  0.1259
  147SAPE   H6X16259   4.820   1.391  10.276 -0.5312  3.4858 -0.6154
  147SAPE   H6Y16260   4.978   1.310  10.230  0.7195  0.5890 -0.0530
  147SAPE   C3716261   4.922   1.491  10.131  0.2661 -0.4582  0.0384
  147SAPE   H7X16262   5.021   1.521  10.089 -1.0264 -0.5197 -3.3646
  147SAPE   H7Y16263   4.865   1.582  10.159 -2.1057 -1.8919  0.1541
  147SAPE   C3816264   4.856   1.427  10.012 -0.0401  0.0042  0.4440
  147SAPE   H8X16265   4.752   1.392  10.025  0.5379 -2.5279 -0.9631
  147SAPE   H8Y16266   4.916   1.334   9.996  1.7375  1.6129 -3.4856
  147SAPE   C3916267   4.861   1.514   9.888  0.1139 -0.5352 -0.8582
  147SAPE   H9X16268   4.968   1.544   9.886 -0.1735  1.4839  3.2660
  147SAPE   H9Y16269   4.797   1.605   9.902 -2.5991 -2.5881  1.2423
  147SAPE  C31016270   4.823   1.439   9.758 -0.1335  0.2614 -0.1001
  147SAPE  H10X16271   4.725   1.388   9.770 -0.2223  0.4657  0.0342
  147SAPE  H10Y16272   4.903   1.363   9.742  1.8033  1.0519  4.3447
  147SAPE  C31116273   4.815   1.538   9.643  0.2087 -0.9800  0.1960
  147SAPE  H11X16274   4.886   1.623   9.646 -1.9342  1.1841 -3.3988
  147SAPE  H11Y16275   4.712   1.579   9.639  1.0091  1.2129  0.9292
  147SAPE  C31216276   4.846   1.469   9.511  0.4102 -0.1912  0.3366
  147SAPE  H12X16277   4.782   1.378   9.519  1.5456 -1.0595 -0.1107
  147SAPE  H12Y16278   4.946   1.419   9.512  0.0963 -0.9220 -1.6720
  147SAPE  C31316279   4.820   1.559   9.392 -0.7121  0.2387 -0.4998
  147SAPE  H13X16280   4.861   1.660   9.411 -2.3599  1.1509 -1.5873
  147SAPE  H13Y16281   4.713   1.574   9.367 -0.3180  1.6245 -1.4506
  147SAPE  C31416282   4.897   1.506   9.276 -0.3761  0.5481  0.3023
  147SAPE  H14X16283   4.909   1.396   9.278 -1.3947  0.4193 -0.2927
  147SAPE  H14Y16284   5.008   1.519   9.281  0.1481 -3.1184  0.9682
  147SAPE  C31516285   4.840   1.551   9.136 -0.0302 -0.0941  0.8026
  147SAPE  H15X16286   4.731   1.568   9.124  0.3228  2.1256  0.2412
  147SAPE  H15Y16287   4.871   1.474   9.062 -1.7687 -0.8371  0.8067
  147SAPE  C31616288   4.904   1.678   9.086 -0.5953 -0.0272 -0.8266
  147SAPE  H16X16289   5.011   1.666   9.115 -1.1309 -1.9040  0.6001
  147SAPE  H16Y16290   4.848   1.763   9.130 -1.6880 -1.0996 -0.0596
  147SAPE  C31716291   4.894   1.694   8.933  1.0797  0.1252 -0.0571
  147SAPE  H17X16292   4.787   1.690   8.904  0.1301 -0.4840  3.1009
  147SAPE  H17Y16293   4.945   1.614   8.875  0.0189 -2.0808  1.9100
  147SAPE  C31816294   4.943   1.833   8.890 -0.2201  0.3878  0.4176
  147SAPE  H18X16295   5.053   1.828   8.906  0.0079 -1.2943 -1.2733
  147SAPE  H18Y16296   4.897   1.913   8.952  0.1758  0.5541  0.4961
  147SAPE  H18Z16297   4.930   1.840   8.779 -1.9181  1.5236  0.6497
  148SAPE     N16298   0.928   4.007  10.843 -0.2285  0.1687  0.0989
  148SAPE   HN116299   0.977   4.077  10.902  0.0150 -0.1094  0.2318
  148SAPE   HN216300   0.975   3.914  10.839 -0.0884  0.2029  0.8754
  148SAPE   HN316301   0.942   4.034  10.743 -1.6962 -1.8348 -0.7136
  148SAPE   C1216302   0.778   3.983  10.876  0.3908  0.2870 -0.0917
  148SAPE  H12A16303   0.720   4.069  10.835 -0.9328 -1.4423 -2.1074
  148SAPE  H12B16304   0.768   3.984  10.987 -2.9423  0.0431 -0.2793
  148SAPE   C1116305   0.718   3.849  10.810 -0.3327 -0.0957  0.4736
  148SAPE  H11A16306   0.778   3.764  10.848 -1.2485  0.5081  3.5116
  148SAPE  H11B16307   0.739   3.869  10.702  1.6604 -0.1192  0.8166
  148SAPE     P16308   0.471   3.816  10.720 -0.1445  0.0829  0.0157
  148SAPE   O1316309   0.509   3.700  10.638  0.4199  0.5304  0.5167
  148SAPE   O1416310   0.332   3.826  10.774 -0.4872  0.3179 -0.2022
  148SAPE   O1216311   0.576   3.824  10.842 -0.2839  0.8804 -0.4329
  148SAPE   O1116312   0.502   3.949  10.638 -0.5108 -0.1124 -0.7929
  148SAPE    C116313   0.424   4.061  10.626  0.2298 -0.2742  0.1532
  148SAPE    HA16314   0.324   4.060  10.675  0.0161 -0.9893 -0.2763
  148SAPE    HB16315   0.476   4.139  10.684  0.6528  1.0982 -1.9443
  148SAPE    C216316   0.398   4.115  10.481 -0.0930 -0.3380 -0.7033
  148SAPE    HS16317   0.315   4.056  10.437 -0.5933  1.1769 -1.8851
  148SAPE   O2116318   0.519   4.101  10.406  0.7112 -0.5551 -0.9492
  148SAPE   C2116319   0.534   3.990  10.340  0.4070  0.0400 -0.9159
  148SAPE   O2216320   0.461   3.894  10.330 -0.3984 -0.7069 -0.0595
  148SAPE   C2216321   0.674   3.998  10.282 -0.2226  0.0461  0.1083
  148SAPE   H2R16322   0.699   4.101  10.248  1.1259  0.6116  2.5578
  148SAPE   H2S16323   0.745   3.974  10.365  0.5124  0.8588 -0.2599
  148SAPE    C316324   0.339   4.262  10.462  0.4244  0.5902 -0.4411
  148SAPE    HX16325   0.418   4.332  10.497 -0.3044  1.7433 -1.0357
  148SAPE    HY16326   0.251   4.278  10.529  0.7418  1.0359 -0.1261
  148SAPE   O3116327   0.297   4.280  10.322 -0.4616 -0.2611  0.0257
  148SAPE   C3116328   0.301   4.404  10.285  0.1810 -0.0528  0.3268
  148SAPE   O3216329   0.347   4.496  10.352 -0.1783  0.1637  0.3283
  148SAPE   C3216330   0.244   4.417  10.143 -0.4850 -0.0617  0.0869
  148SAPE   H2X16331   0.240   4.314  10.102 -1.2159 -0.1094  0.2661
  148SAPE   H2Y16332   0.301   4.500  10.095 -0.8297  0.5265  0.6870
  148SAPE   C2316333   0.705   3.901  10.163  0.7153  0.3356  0.5312
  148SAPE   H3R16334   0.629   3.917  10.083  0.8400 -1.5560 -0.0146
  148SAPE   H3S16335   0.690   3.801  10.209 -0.9548  1.2474  2.1248
  148SAPE   C2416336   0.847   3.902  10.092  0.9326  0.4406 -0.0126
  148SAPE   H4R16337   0.844   3.816  10.021  1.1447  1.3395 -1.1435
  148SAPE   H4S16338   0.922   3.870  10.168 -0.2331 -3.4505 -0.2711
  148SAPE   C2516339   0.880   4.030  10.026  0.7098 -0.2342 -0.5533
  148SAPE   H5R16340   0.875   4.117  10.093 -0.6555 -1.2810  0.7790
  148SAPE   C2616341   0.910   4.057   9.900 -0.6320  0.3479  0.3040
  148SAPE   H6R16342   0.932   4.161   9.871  4.8870 -0.2731  1.2825
  148SAPE   C2716343   0.912   3.953   9.789 -0.3025 -0.1149  0.4430
  148SAPE   H7R16344   0.928   3.846   9.818  0.8021  0.1718  0.9714
  148SAPE   H7S16345   1.004   3.977   9.732  0.5716  1.9100  2.5139
  148SAPE   C2816346   0.791   3.956   9.699  0.3137  0.6183  0.5653
  148SAPE   H8R16347   0.694   3.953   9.750 -0.2095 -0.0749 -0.4336
  148SAPE   C2916348   0.782   3.978   9.568 -0.3580 -0.2426  0.6808
  148SAPE   H9R16349   0.678   3.988   9.533 -0.0595 -1.2109 -0.5843
  148SAPE  C21016350   0.904   4.001   9.477 -0.0107  0.2024 -0.1266
  148SAPE  H10R16351   0.893   3.935   9.387 -2.0027  0.0998  0.1510
  148SAPE  H10S16352   0.992   3.962   9.533  0.2470  2.6830  1.3062
  148SAPE  C21116353   0.926   4.144   9.453 -0.9142 -0.0567 -0.3129
  148SAPE  H11R16354   0.946   4.198   9.547  0.8104  0.7613 -1.0973
  148SAPE  C21216355   0.923   4.197   9.334  0.5319  0.1600  0.4105
  148SAPE  H12R16356   0.938   4.306   9.339 -1.2665  0.4953 -0.4878
  148SAPE  C21316357   0.912   4.133   9.194 -0.3040 -0.3511  0.4008
  148SAPE  H13R16358   0.879   4.211   9.122  1.4687  0.1829  0.1088
  148SAPE  H13S16359   0.838   4.052   9.183  0.1006 -0.9904  2.1907
  148SAPE  C21416360   1.046   4.068   9.161 -0.2795 -0.9144 -0.2491
  148SAPE  H14R16361   1.099   4.026   9.248 -2.5491 -1.6439  0.8791
  148SAPE  C21516362   1.094   4.043   9.039 -0.1564  0.3386 -0.1639
  148SAPE  H15R16363   1.196   4.002   9.037 -0.8326 -1.4851  0.7867
  148SAPE  C21616364   1.022   4.070   8.911 -0.8711 -0.9114  0.5003
  148SAPE  H16R16365   0.917   4.037   8.917 -0.1644 -3.6315 -0.5928
  148SAPE  H16S16366   1.058   4.003   8.830 -1.6871 -0.7849  0.0190
  148SAPE  C21716367   1.041   4.223   8.870 -0.4430  0.1511 -0.2488
  148SAPE  H17R16368   1.144   4.250   8.840 -0.7383  1.7099  0.0356
  148SAPE  H17S16369   1.026   4.289   8.958  4.5297  2.6870 -0.9440
  148SAPE  C21816370   0.952   4.252   8.749 -0.0925 -0.8221  0.2103
  148SAPE  H18R16371   0.843   4.245   8.766 -0.3002  0.1432 -0.6391
  148SAPE  H18S16372   0.965   4.167   8.678 -1.1358 -0.6270 -0.2283
  148SAPE  C21916373   0.979   4.382   8.668  0.2649 -0.0033 -0.3743
  148SAPE  H19R16374   0.933   4.369   8.568 -1.4430  0.0992  0.3626
  148SAPE  H19S16375   1.088   4.403   8.667  0.1370  0.8393  1.0469
  148SAPE  C22016376   0.917   4.496   8.745 -0.4119  0.1036 -0.6790
  148SAPE  H20R16377   0.809   4.475   8.730 -0.2106  1.2112 -4.7278
  148SAPE  H20S16378   0.937   4.595   8.698  0.1764  0.3542  0.0726
  148SAPE  H20T16379   0.957   4.495   8.849  0.2725  0.2732 -0.9332
  148SAPE   C3316380   0.103   4.480  10.127  0.6171 -0.3589 -0.1180
  148SAPE   H3X16381   0.091   4.585  10.160 -0.7794 -0.8793  1.1582
  148SAPE   H3Y16382   0.044   4.419  10.198  1.1117 -1.9583 -1.0122
  148SAPE   C3416383   0.043   4.455   9.989  0.8341 -0.1445 -0.5091
  148SAPE   H4X16384  -0.051   4.513   9.984  1.7372  1.5097  0.5853
  148SAPE   H4Y16385   0.016   4.350   9.966  2.1477 -0.7798  0.6590
  148SAPE   C3516386   0.130   4.516   9.874 -0.0163  0.1736  0.0935
  148SAPE   H5X16387   0.232   4.472   9.881 -0.1960 -0.3388 -0.4139
  148SAPE   H5Y16388   0.150   4.624   9.892 -1.4090  0.7968 -1.8029
  148SAPE   C3616389   0.053   4.506   9.743  0.5383 -0.4676 -0.3430
  148SAPE   H6X16390  -0.051   4.544   9.747  0.3388 -1.0760  0.3814
  148SAPE   H6Y16391   0.050   4.397   9.723  1.5050 -0.8488  1.4165
  148SAPE   C3716392   0.114   4.577   9.618 -0.6139 -0.2652  0.2804
  148SAPE   H7X16393   0.224   4.565   9.617 -0.6354 -0.4489 -0.6426
  148SAPE   H7Y16394   0.090   4.685   9.633  1.1110  0.4206 -1.5502
  148SAPE   C3816395   0.062   4.528   9.475 -0.6469 -0.2570 -0.5105
  148SAPE   H8X16396  -0.049   4.535   9.480 -0.5837  0.5270 -0.1076
  148SAPE   H8Y16397   0.089   4.421   9.470 -1.6948 -0.6792  1.5644
  148SAPE   C3916398   0.130   4.605   9.361 -0.0326  0.6198  0.4289
  148SAPE   H9X16399   0.241   4.598   9.373  0.4588  0.0615 -3.3314
  148SAPE   H9Y16400   0.091   4.709   9.364  1.7927  1.4096 -0.9781
  148SAPE  C31016401   0.107   4.535   9.217  0.3357 -0.7513  0.5235
  148SAPE  H10X16402   0.141   4.606   9.139 -1.5846  0.3367  0.6241
  148SAPE  H10Y16403  -0.002   4.517   9.203  0.1584  0.2871  0.4807
  148SAPE  C31116404   0.176   4.399   9.198  0.3352 -0.2254  0.4764
  148SAPE  H11X16405   0.117   4.318   9.246 -1.6950  0.0640 -1.4153
  148SAPE  H11Y16406   0.269   4.418   9.257 -1.4053  0.6905  3.0970
  148SAPE  C31216407   0.210   4.365   9.053 -0.1791 -0.0546 -0.7922
  148SAPE  H12X16408   0.297   4.295   9.064 -0.0184  0.4823  2.2035
  148SAPE  H12Y16409   0.247   4.458   9.005  0.6269 -0.1667 -0.4084
  148SAPE  C31316410   0.093   4.317   8.974 -0.6613 -0.0407 -0.4474
  148SAPE  H13X16411   0.019   4.398   8.957  1.0728  1.6097 -0.4114
  148SAPE  H13Y16412   0.047   4.240   9.040 -1.1289  0.8444  0.2869
  148SAPE  C31416413   0.128   4.257   8.837  0.2302  0.3978 -0.0094
  148SAPE  H14X16414   0.031   4.228   8.792  0.5398 -0.4939 -0.1174
  148SAPE  H14Y16415   0.199   4.173   8.855  3.9393  3.4808  0.9700
  148SAPE  C31516416   0.199   4.352   8.742 -0.0226  0.8970  0.2738
  148SAPE  H15X16417   0.294   4.401   8.776  1.0142 -0.0689 -1.1311
  148SAPE  H15Y16418   0.132   4.439   8.724  2.2366  3.1726  2.0054
  148SAPE  C31616419   0.213   4.278   8.605  0.2014  0.3422 -0.1519
  148SAPE  H16X16420   0.114   4.248   8.566  0.9851 -1.0507 -1.1690
  148SAPE  H16Y16421   0.279   4.189   8.611 -1.3023 -0.9262 -1.6772
  148SAPE  C31716422   0.279   4.368   8.505 -0.4109 -0.0676  0.2455
  148SAPE  H17X16423   0.271   4.475   8.535 -1.5655  0.3146 -1.3096
  148SAPE  H17Y16424   0.209   4.378   8.419 -1.3759  2.5007  1.2299
  148SAPE  C31816425   0.416   4.323   8.464 -0.6896  0.4201 -0.2941
  148SAPE  H18X16426   0.398   4.246   8.386 -3.7803 -0.1757  0.8741
  148SAPE  H18Y16427   0.477   4.285   8.549 -0.4111  2.6351  0.5465
  148SAPE  H18Z16428   0.474   4.403   8.413  0.1526 -0.4007 -0.6619
  149SAPE     N16429   1.434   6.343  10.960 -0.5973 -0.0398 -0.0211
  149SAPE   HN116430   1.535   6.320  10.963  0.9676  5.3723  2.6637
  149SAPE   HN216431   1.367   6.280  10.912 -0.0453  0.4800 -1.5358
  149SAPE   HN316432   1.427   6.431  10.904 -1.0374 -1.7957 -2.9177
  149SAPE   C1216433   1.399   6.404  11.091  0.4351 -0.1593 -0.0542
  149SAPE  H12A16434   1.482   6.402  11.165 -0.1294 -0.3303  0.5836
  149SAPE  H12B16435   1.319   6.340  11.134 -0.9589  0.5795 -1.4230
  149SAPE   C1116436   1.343   6.545  11.069 -1.1285 -0.1840 -0.4604
  149SAPE  H11A16437   1.423   6.611  11.029 -2.2817  0.7128 -1.3266
  149SAPE  H11B16438   1.314   6.582  11.170  1.5069  0.3940  0.1827
  149SAPE     P16439   1.091   6.575  10.989 -0.3454 -0.1880  0.4004
  149SAPE   O1316440   1.034   6.447  11.037 -0.0035 -0.6373  0.5618
  149SAPE   O1416441   1.067   6.692  11.069  0.8420  0.3128 -0.2063
  149SAPE   O1216442   1.247   6.548  10.967 -0.0031 -0.3532 -0.4497
  149SAPE   O1116443   1.039   6.597  10.834 -0.2335 -0.1510 -0.0717
  149SAPE    C116444   1.120   6.654  10.729 -0.8965 -0.5792 -0.6337
  149SAPE    HA16445   1.227   6.638  10.752 -1.6880 -0.7709  3.8449
  149SAPE    HB16446   1.112   6.601  10.632  0.1814 -0.3299 -0.8704
  149SAPE    C216447   1.092   6.808  10.713 -0.4010  0.1932 -0.1776
  149SAPE    HS16448   1.075   6.841  10.818  0.5718 -0.9960  0.3690
  149SAPE   O2116449   0.971   6.830  10.633 -0.1269 -0.0766 -0.0455
  149SAPE   C2116450   0.907   6.948  10.663 -0.3836  0.8658 -0.3135
  149SAPE   O2216451   0.953   7.029  10.745 -0.2869 -0.3285 -0.4754
  149SAPE   C2216452   0.778   6.947  10.594 -0.3708  0.1071 -0.4120
  149SAPE   H2R16453   0.704   6.911  10.669 -0.1625  1.6965  0.5964
  149SAPE   H2S16454   0.753   7.053  10.571 -3.0654 -0.4953 -0.5920
  149SAPE    C316455   1.215   6.889  10.655  0.4959  0.2291  0.3091
  149SAPE    HX16456   1.289   6.883  10.738 -0.9736  1.7215  1.8082
  149SAPE    HY16457   1.202   6.999  10.657 -0.6621  0.1012  0.0477
  149SAPE   O3116458   1.265   6.846  10.527  0.3759  0.0280 -0.2352
  149SAPE   C3116459   1.224   6.922  10.422 -0.0692  0.2415 -0.4662
  149SAPE   O3216460   1.169   7.030  10.428 -0.4018  0.2956 -0.5247
  149SAPE   C3216461   1.248   6.842  10.297 -0.9226 -0.2472 -0.0680
  149SAPE   H2X16462   1.197   6.744  10.303 -2.3720  0.5540  1.4048
  149SAPE   H2Y16463   1.357   6.819  10.296 -0.9415 -0.3480  0.0890
  149SAPE   C2316464   0.760   6.867  10.467  0.5898 -0.7231 -0.3789
  149SAPE   H3R16465   0.652   6.881  10.443  0.1227  1.8845  2.5948
  149SAPE   H3S16466   0.772   6.759  10.489 -0.7542 -0.4560  2.0530
  149SAPE   C2416467   0.848   6.901  10.348  0.1991 -0.2585  0.2250
  149SAPE   H4R16468   0.807   6.849  10.259  0.1913 -2.5713  1.4982
  149SAPE   H4S16469   0.948   6.851  10.349  0.5745  0.4717  0.1162
  149SAPE   C2516470   0.860   7.045  10.312  0.0696 -0.2166 -0.2805
  149SAPE   H5R16471   0.962   7.083  10.330  0.6711 -1.4909 -0.8280
  149SAPE   C2616472   0.761   7.129  10.266  0.4288 -0.5141  0.8738
  149SAPE   H6R16473   0.778   7.234  10.241  1.1813 -0.6571  0.7344
  149SAPE   C2716474   0.620   7.083  10.239 -0.1687 -0.5915  0.1169
  149SAPE   H7R16475   0.619   6.979  10.199  1.7819 -1.0640  1.1625
  149SAPE   H7S16476   0.586   7.141  10.150  0.4730 -1.3384 -0.6415
  149SAPE   C2816477   0.513   7.093  10.341  0.9691 -0.2634 -0.4935
  149SAPE   H8R16478   0.551   7.102  10.444 -1.4511 -2.9658  0.7634
  149SAPE   C2916479   0.378   7.065  10.325  0.6196  0.3553 -0.1787
  149SAPE   H9R16480   0.313   7.082  10.413  1.8042  0.8404  0.6316
  149SAPE  C21016481   0.299   7.023  10.202 -0.3641  0.2370 -0.1962
  149SAPE  H10R16482   0.296   6.913  10.215  0.6825  0.2885  0.6642
  149SAPE  H10S16483   0.367   7.030  10.114  1.3399  1.1655  1.1170
  149SAPE  C21116484   0.175   7.098  10.174 -0.4719  0.6589  0.0768
  149SAPE  H11R16485   0.123   7.145  10.259  1.0928  1.4480  0.6392
  149SAPE  C21216486   0.125   7.110  10.052  0.3543 -0.6865  0.3834
  149SAPE  H12R16487   0.025   7.155  10.044  0.4204 -0.2748  1.6121
  149SAPE  C21316488   0.171   7.051   9.925 -0.2946  0.0970 -0.0464
  149SAPE  H13R16489   0.094   7.003   9.862 -1.6450  2.7001 -0.4967
  149SAPE  H13S16490   0.243   6.967   9.935  0.9932  0.8139 -2.4962
  149SAPE  C21416491   0.245   7.154   9.843  0.1206  0.8348 -0.7841
  149SAPE  H14R16492   0.288   7.240   9.896  2.7340  0.3900 -2.0349
  149SAPE  C21516493   0.273   7.129   9.715 -0.6057  0.2670  0.3114
  149SAPE  H15R16494   0.319   7.209   9.656  1.7534 -0.3717  1.1980
  149SAPE  C21616495   0.229   7.012   9.632 -0.5494 -1.0599  0.1877
  149SAPE  H16R16496   0.128   7.028   9.588 -0.6726 -0.5943  0.6333
  149SAPE  H16S16497   0.233   6.922   9.697  1.3725 -0.2393  1.2845
  149SAPE  C21716498   0.326   6.970   9.514 -0.1527 -0.3703 -0.8547
  149SAPE  H17R16499   0.267   6.885   9.474 -3.3349  1.6240 -0.7481
  149SAPE  H17S16500   0.421   6.934   9.557 -1.4697 -2.1097  0.7656
  149SAPE  C21816501   0.339   7.077   9.405  0.3095 -0.4465 -0.4025
  149SAPE  H18R16502   0.365   7.179   9.441 -0.9215 -0.1941 -0.1667
  149SAPE  H18S16503   0.232   7.099   9.381  1.4492  2.8659 -3.4108
  149SAPE  C21916504   0.431   7.038   9.288 -0.2871  0.3703  0.5451
  149SAPE  H19R16505   0.378   6.950   9.247  0.9959 -0.2480  0.1688
  149SAPE  H19S16506   0.526   7.009   9.339  0.9134  1.3746 -1.0101
  149SAPE  C22016507   0.462   7.146   9.178 -0.8170  0.2919  0.5734
  149SAPE  H20R16508   0.542   7.215   9.214  0.7510 -1.4055  0.4976
  149SAPE  H20S16509   0.365   7.192   9.149 -0.2161  2.4936  1.8216
  149SAPE  H20T16510   0.491   7.078   9.095 -1.4191 -0.2028  0.7580
  149SAPE   C3316511   1.214   6.912  10.165 -0.8491 -0.1498  0.0627
  149SAPE   H3X16512   1.248   7.018  10.159  3.9040 -1.4596 -0.5806
  149SAPE   H3Y16513   1.104   6.907  10.147 -0.5330 -0.4503 -2.0258
  149SAPE   C3416514   1.282   6.832  10.052 -0.4430 -0.2091 -0.5018
  149SAPE   H4X16515   1.260   6.723  10.038  0.6609 -0.5685  0.4525
  149SAPE   H4Y16516   1.391   6.836  10.068 -0.5695  2.6777  0.0680
  149SAPE   C3516517   1.236   6.899   9.916  0.9873 -0.2828 -0.2638
  149SAPE   H5X16518   1.263   7.006   9.905 -1.1532  0.4422  0.8288
  149SAPE   H5Y16519   1.125   6.898   9.921  1.0009  0.3270  0.3878
  149SAPE   C3616520   1.275   6.817   9.794 -0.1616 -0.6116  0.5096
  149SAPE   H6X16521   1.226   6.718   9.809 -0.0120 -0.7918 -0.1549
  149SAPE   H6Y16522   1.385   6.807   9.797  0.0106  1.0345  0.3297
  149SAPE   C3716523   1.224   6.866   9.654  0.8889 -0.4719 -0.4774
  149SAPE   H7X16524   1.113   6.871   9.660  0.9653 -0.3591  1.2382
  149SAPE   H7Y16525   1.246   6.800   9.568 -1.2393 -1.5163 -0.2747
  149SAPE   C3816526   1.279   7.014   9.623 -0.4529  0.7292  0.2399
  149SAPE   H8X16527   1.390   7.002   9.627 -0.6428 -1.1564  1.0259
  149SAPE   H8Y16528   1.255   7.088   9.702  2.2012 -0.3869  2.2749
  149SAPE   C3916529   1.245   7.058   9.484 -0.4732 -0.0639 -0.8910
  149SAPE   H9X16530   1.295   7.152   9.452  1.2715 -1.2231 -1.7212
  149SAPE   H9Y16531   1.134   7.068   9.487 -0.4141  0.3738  0.7697
  149SAPE  C31016532   1.294   6.970   9.367 -0.4043 -0.0034 -0.2761
  149SAPE  H10X16533   1.232   6.878   9.360  2.4211 -1.9478 -2.5861
  149SAPE  H10Y16534   1.398   6.937   9.391 -1.4318 -2.5750  1.0442
  149SAPE  C31116535   1.297   7.034   9.223  0.8364 -0.1756 -0.2644
  149SAPE  H11X16536   1.371   7.116   9.209  1.0560 -0.6783 -2.3289
  149SAPE  H11Y16537   1.196   7.079   9.210  1.3679  1.4596  0.8671
  149SAPE  C31216538   1.316   6.934   9.118 -0.2903  0.3934  0.7235
  149SAPE  H12X16539   1.248   6.849   9.143 -1.0737  0.2289 -1.7251
  149SAPE  H12Y16540   1.419   6.895   9.123  0.8764  3.2295  0.5205
  149SAPE  C31316541   1.298   6.986   8.980 -0.1221 -0.0985  0.0824
  149SAPE  H13X16542   1.388   7.043   8.948 -0.0956 -0.9884 -1.5450
  149SAPE  H13Y16543   1.215   7.060   8.989  2.2021  2.3830  3.3244
  149SAPE  C31416544   1.276   6.865   8.887  0.1671  0.3986 -1.1461
  149SAPE  H14X16545   1.178   6.819   8.909 -1.2440  3.1135 -1.3147
  149SAPE  H14Y16546   1.347   6.779   8.891 -0.9599 -0.5399 -0.7605
  149SAPE  C31516547   1.256   6.898   8.740 -0.4698  0.0271  0.3948
  149SAPE  H15X16548   1.338   6.962   8.701 -0.5530 -0.0665  0.0646
  149SAPE  H15Y16549   1.164   6.959   8.725 -0.2242  0.4064  0.4231
  149SAPE  C31616550   1.254   6.771   8.655  0.0873 -0.9531 -0.1366
  149SAPE  H16X16551   1.171   6.705   8.688 -0.0556 -0.6386  0.1214
  149SAPE  H16Y16552   1.347   6.710   8.667  0.6409  0.1719  1.6083
  149SAPE  C31716553   1.243   6.803   8.504  0.0726 -0.2531 -0.2605
  149SAPE  H17X16554   1.336   6.851   8.465 -0.2842 -1.0567 -2.2437
  149SAPE  H17Y16555   1.155   6.865   8.474  0.2237 -0.9615 -2.3634
  149SAPE  C31816556   1.241   6.670   8.421 -0.1323  0.0614 -0.3024
  149SAPE  H18X16557   1.251   6.687   8.311  1.5647  0.4031 -0.1192
  149SAPE  H18Y16558   1.136   6.634   8.420 -0.6243  1.4423 -1.2426
  149SAPE  H18Z16559   1.309   6.594   8.465 -1.7598 -0.9463  0.5996
  150SAPE     N16560   3.925   4.572  10.920  0.1122 -0.3529 -0.7053
  150SAPE   HN116561   4.012   4.560  10.975  1.2173 -0.4110 -2.3953
  150SAPE   HN216562   3.854   4.528  10.982  1.9415  0.0700  1.8813
  150SAPE   HN316563   3.917   4.510  10.837 -2.8637 -0.5546 -0.3743
  150SAPE   C1216564   3.899   4.719  10.886 -0.0671  0.4884 -0.3696
  150SAPE  H12A16565   3.981   4.761  10.825  0.1862 -2.5711 -2.3232
  150SAPE  H12B16566   3.888   4.768  10.985  0.1735 -2.7059  1.3823
  150SAPE   C1116567   3.766   4.734  10.806  0.3308  0.2705 -0.8016
  150SAPE  H11A16568   3.781   4.688  10.706  1.3342  2.3188 -1.6425
  150SAPE  H11B16569   3.742   4.840  10.786  0.6337  0.4732 -0.1267
  150SAPE     P16570   3.562   4.741  10.970 -0.1850 -0.2537 -0.3509
  150SAPE   O1316571   3.441   4.650  10.988  0.0325  0.2410 -0.2105
  150SAPE   O1416572   3.636   4.773  11.095  0.4625 -0.2771  0.2646
  150SAPE   O1216573   3.664   4.659  10.876 -0.3437  0.4446 -0.1810
  150SAPE   O1116574   3.529   4.874  10.895  0.0142 -0.8222  0.3501
  150SAPE    C116575   3.415   4.879  10.799 -0.0326  0.0575  0.3783
  150SAPE    HA16576   3.316   4.843  10.836 -0.6704 -0.0748 -1.3820
  150SAPE    HB16577   3.381   4.981  10.770 -3.3322 -0.6378  1.3660
  150SAPE    C216578   3.434   4.797  10.668  0.2501  0.5373 -0.2761
  150SAPE    HS16579   3.456   4.689  10.685 -1.9337 -0.8522 -4.5885
  150SAPE   O2116580   3.553   4.837  10.616 -0.1194  0.1788  0.3018
  150SAPE   C2116581   3.597   4.768  10.520  0.1853 -0.2548 -0.4856
  150SAPE   O2216582   3.564   4.651  10.488  0.1213  0.0167 -0.0572
  150SAPE   C2216583   3.703   4.849  10.451 -0.6149  0.3078  0.2755
  150SAPE   H2R16584   3.726   4.950  10.493 -1.1921  0.4616  0.2319
  150SAPE   H2S16585   3.789   4.780  10.458  1.0972  2.0636 -1.8216
  150SAPE    C316586   3.310   4.814  10.571 -0.3704 -0.6910 -0.2483
  150SAPE    HX16587   3.217   4.780  10.622  0.0428 -0.4864  0.6565
  150SAPE    HY16588   3.325   4.749  10.482 -0.6670  0.9755 -1.5456
  150SAPE   O3116589   3.298   4.953  10.528 -0.1097  0.3195 -0.3869
  150SAPE   C3116590   3.188   4.963  10.444  0.4439  0.2953 -0.1491
  150SAPE   O3216591   3.108   4.873  10.434 -0.3193  0.4061 -0.0165
  150SAPE   C3216592   3.187   5.095  10.370  0.5604 -0.1557  0.3445
  150SAPE   H2X16593   3.293   5.123  10.349  0.9610 -1.6123  0.3148
  150SAPE   H2Y16594   3.138   5.161  10.444  0.0022 -0.7987  0.5534
  150SAPE   C2316595   3.671   4.867  10.299  0.3200 -0.2520 -0.1148
  150SAPE   H3R16596   3.637   4.768  10.261 -1.9393  0.0183  1.0637
  150SAPE   H3S16597   3.759   4.900  10.239 -0.8273  0.9153 -1.2114
  150SAPE   C2416598   3.567   4.974  10.260 -0.8290  0.0152 -0.6783
  150SAPE   H4R16599   3.477   4.960  10.323  0.4336 -1.2103  0.9560
  150SAPE   H4S16600   3.530   4.947  10.159 -2.5014  2.0472 -0.6842
  150SAPE   C2516601   3.619   5.113  10.260 -0.8273 -0.1806 -0.6621
  150SAPE   H5R16602   3.614   5.163  10.358 -1.2805 -1.9417  0.2577
  150SAPE   C2616603   3.673   5.176  10.154  0.8100 -0.1106 -0.2290
  150SAPE   H6R16604   3.712   5.276  10.178  3.7573 -1.6305  2.0601
  150SAPE   C2716605   3.687   5.125  10.017  0.2042  0.8852 -0.1481
  150SAPE   H7R16606   3.701   5.210   9.947  0.4811  2.4622  1.7695
  150SAPE   H7S16607   3.594   5.068   9.992  0.2681 -0.3890  2.2563
  150SAPE   C2816608   3.810   5.038  10.000 -0.8608 -0.2801 -0.0957
  150SAPE   H8R16609   3.795   4.938  10.042  0.9480 -0.7423 -0.4407
  150SAPE   C2916610   3.919   5.067   9.923 -0.2231  0.5241  0.3868
  150SAPE   H9R16611   3.996   4.989   9.919 -0.1458  0.5825  0.7080
  150SAPE  C21016612   3.933   5.196   9.849  0.5232  0.1831 -0.0187
  150SAPE  H10R16613   3.904   5.275   9.922 -0.1235 -2.7871  3.2184
  150SAPE  H10S16614   3.854   5.190   9.771 -1.0170 -2.8557  1.6028
  150SAPE  C21116615   4.068   5.215   9.790  0.2628 -0.1874  0.4399
  150SAPE  H11R16616   4.120   5.123   9.761  1.4177  0.5813 -0.0281
  150SAPE  C21216617   4.128   5.335   9.771  0.0521 -0.6743 -0.3167
  150SAPE  H12R16618   4.217   5.340   9.707 -0.3106  1.2321 -0.7586
  150SAPE  C21316619   4.077   5.465   9.819 -0.0997 -0.6928 -0.7101
  150SAPE  H13R16620   3.970   5.464   9.852  0.4913  0.0734  1.4195
  150SAPE  H13S16621   4.080   5.536   9.734 -0.0616 -1.9374 -1.7728
  150SAPE  C21416622   4.182   5.500   9.922  0.3289 -0.1096 -0.4559
  150SAPE  H14R16623   4.284   5.524   9.885  0.6297 -0.0192  0.4165
  150SAPE  C21516624   4.172   5.510  10.056  0.5298 -0.3578 -0.0708
  150SAPE  H15R16625   4.261   5.531  10.116  0.0554 -0.9777  0.8660
  150SAPE  C21616626   4.048   5.502  10.145 -0.3614 -0.3089 -0.5045
  150SAPE  H16R16627   4.050   5.407  10.202  1.8690  0.1425  0.2911
  150SAPE  H16S16628   3.953   5.505  10.089  0.2302  1.8500 -1.5092
  150SAPE  C21716629   4.033   5.604  10.262  0.0655  0.2459 -0.5981
  150SAPE  H17R16630   4.093   5.565  10.348  2.9900 -0.6276 -2.8369
  150SAPE  H17S16631   3.924   5.601  10.281  0.2963 -0.0181  0.7890
  150SAPE  C21816632   4.090   5.747  10.234  0.2271  0.4307 -0.7726
  150SAPE  H18R16633   4.027   5.783  10.149 -0.2248  1.2809 -0.0989
  150SAPE  H18S16634   4.195   5.753  10.198  0.5522 -0.3972 -0.0139
  150SAPE  C21916635   4.077   5.856  10.352 -0.5289 -0.0239  0.0018
  150SAPE  H19R16636   4.123   5.801  10.437 -0.9878 -0.7331 -0.1961
  150SAPE  H19S16637   3.970   5.867  10.379 -0.5912 -0.7000  0.0464
  150SAPE  C22016638   4.138   5.990  10.335 -0.3389  0.2723 -0.1807
  150SAPE  H20R16639   4.104   6.024  10.235  2.2861 -1.3249 -1.7288
  150SAPE  H20S16640   4.249   5.989  10.337 -0.2711  0.3597 -2.1800
  150SAPE  H20T16641   4.113   6.061  10.417  1.2551 -1.5383  2.0171
  150SAPE   C3316642   3.117   5.091  10.236  0.8243  0.1015  0.0484
  150SAPE   H3X16643   3.136   5.193  10.195 -2.0412  2.0425  3.0431
  150SAPE   H3Y16644   3.013   5.076  10.273  0.1197 -1.2110 -2.2937
  150SAPE   C3416645   3.164   4.998  10.131  0.8473  0.1064 -0.4160
  150SAPE   H4X16646   3.123   4.895  10.141 -2.1773  1.3443  1.3025
  150SAPE   H4Y16647   3.275   5.003  10.131  0.8674 -0.2897 -0.5824
  150SAPE   C3516648   3.118   5.041   9.987  0.0647 -0.2253 -0.7241
  150SAPE   H5X16649   3.166   5.134   9.949  1.1997 -0.6043 -0.2442
  150SAPE   H5Y16650   3.008   5.061   9.982 -0.4435 -2.3657  0.6164
  150SAPE   C3616651   3.146   4.927   9.889 -0.0275 -0.4488 -0.0842
  150SAPE   H6X16652   3.097   4.833   9.920 -1.5710 -0.1643 -1.4862
  150SAPE   H6Y16653   3.253   4.904   9.872 -0.1852 -0.5216 -1.0160
  150SAPE   C3716654   3.097   4.967   9.753  0.1955 -0.1820 -0.2803
  150SAPE   H7X16655   2.989   4.989   9.754  0.2875  0.5807 -2.2952
  150SAPE   H7Y16656   3.096   4.873   9.692  0.5026  0.7102 -1.7209
  150SAPE   C3816657   3.164   5.082   9.677  0.1864  0.3081 -0.0731
  150SAPE   H8X16658   3.270   5.066   9.709 -0.8102  0.9740  4.2627
  150SAPE   H8Y16659   3.131   5.183   9.710  0.0173 -0.1908  1.3358
  150SAPE   C3916660   3.153   5.076   9.520 -0.1740  0.4638 -0.0948
  150SAPE   H9X16661   3.050   5.093   9.483 -0.0565  1.6002  0.0663
  150SAPE   H9Y16662   3.170   4.970   9.493  0.1786  0.8104 -1.2997
  150SAPE  C31016663   3.237   5.175   9.438  0.3535  0.1982  0.3205
  150SAPE  H10X16664   3.341   5.176   9.478 -0.0878 -2.1036  1.6717
  150SAPE  H10Y16665   3.188   5.275   9.436 -1.1904 -0.4597 -3.7989
  150SAPE  C31116666   3.252   5.136   9.289  0.0204 -0.5451  0.7161
  150SAPE  H11X16667   3.303   5.038   9.277  0.6082 -0.1134 -0.4075
  150SAPE  H11Y16668   3.314   5.214   9.241 -1.7183  0.3085 -0.2468
  150SAPE  C31216669   3.115   5.130   9.229 -0.1868 -0.5351  0.4337
  150SAPE  H12X16670   3.053   5.215   9.264  0.7820  0.5073 -0.2997
  150SAPE  H12Y16671   3.048   5.044   9.251 -2.2593  1.4209  2.2248
  150SAPE  C31316672   3.125   5.139   9.067 -0.1342  0.5963 -0.2727
  150SAPE  H13X16673   3.210   5.203   9.035 -0.0795  0.9813  0.6302
  150SAPE  H13Y16674   3.029   5.173   9.023 -0.4955 -1.3691 -1.1477
  150SAPE  C31416675   3.144   4.999   9.003  0.0076  0.6494 -0.3954
  150SAPE  H14X16676   3.056   4.931   9.008 -0.0791  0.8572  1.8884
  150SAPE  H14Y16677   3.228   4.949   9.056 -0.1121  2.5759  1.7209
  150SAPE  C31516678   3.170   5.014   8.853  0.4419 -0.2509  0.0858
  150SAPE  H15X16679   3.275   5.048   8.835  0.5672 -0.4538  0.4329
  150SAPE  H15Y16680   3.095   5.091   8.824  0.6420  0.5065  1.4694
  150SAPE  C31616681   3.166   4.880   8.772 -0.3708 -0.8434  0.2660
  150SAPE  H16X16682   3.195   4.918   8.671 -1.6679  2.9054  1.1319
  150SAPE  H16Y16683   3.064   4.840   8.757 -0.8671  0.2805  0.4951
  150SAPE  C31716684   3.280   4.785   8.815  0.5684 -0.7410 -0.2829
  150SAPE  H17X16685   3.243   4.746   8.913  1.7078  0.2005  0.5525
  150SAPE  H17Y16686   3.382   4.827   8.826  0.6019 -1.0365  0.6303
  150SAPE  C31816687   3.282   4.670   8.716  0.3807 -0.2702  0.3016
  150SAPE  H18X16688   3.320   4.703   8.617  1.5712  0.3551  0.9466
  150SAPE  H18Y16689   3.175   4.640   8.710  0.2313  0.3499 -0.4802
  150SAPE  H18Z16690   3.347   4.589   8.755  1.5119  0.8902  0.9229
  151SAPE     N16691   1.181   1.379  10.681  0.8324  0.1238  0.0392
  151SAPE   HN116692   1.092   1.374  10.627  0.7391  0.4615  0.1564
  151SAPE   HN216693   1.263   1.380  10.616  0.1256  0.3834 -0.8748
  151SAPE   HN316694   1.189   1.305  10.753 -1.5072 -0.8817 -0.6311
  151SAPE   C1216695   1.170   1.503  10.763  0.8146 -0.4472 -0.4960
  151SAPE  H12A16696   1.257   1.511  10.831 -0.4853  0.7051  1.1441
  151SAPE  H12B16697   1.087   1.485  10.835  1.3918  3.0051  1.2921
  151SAPE   C1116698   1.133   1.629  10.684  0.0772 -0.5182  0.3574
  151SAPE  H11A16699   1.227   1.667  10.639  0.0151 -0.3476  0.3689
  151SAPE  H11B16700   1.106   1.706  10.760  0.4378 -1.1328  1.1286
  151SAPE     P16701   0.967   1.733  10.506  0.0507  0.1698 -0.8962
  151SAPE   O1316702   0.841   1.694  10.449  0.2149 -0.0577 -0.7083
  151SAPE   O1416703   0.957   1.849  10.600  0.0836  0.0513  0.3999
  151SAPE   O1216704   1.026   1.617  10.592  0.2590 -0.5505  0.2495
  151SAPE   O1116705   1.073   1.758  10.394 -0.7258  0.1747 -0.3935
  151SAPE    C116706   1.083   1.663  10.290  0.0758  0.2715 -0.0921
  151SAPE    HA16707   1.001   1.588  10.295  0.3585  0.0385  1.8653
  151SAPE    HB16708   1.072   1.718  10.194  0.7469 -1.5328 -1.2675
  151SAPE    C216709   1.220   1.592  10.291  0.6190  0.2231 -0.5217
  151SAPE    HS16710   1.281   1.635  10.374  0.8841 -0.3277 -0.4285
  151SAPE   O2116711   1.288   1.642  10.176 -0.0909 -0.3680 -0.3591
  151SAPE   C2116712   1.412   1.594  10.145  0.4674  0.4659 -0.1105
  151SAPE   O2216713   1.476   1.514  10.212 -0.7031  0.1337  0.6164
  151SAPE   C2216714   1.461   1.651  10.014  0.4772  0.2483 -0.3045
  151SAPE   H2R16715   1.471   1.761  10.029 -0.3497  0.3640 -0.5305
  151SAPE   H2S16716   1.560   1.604   9.997  0.0554 -0.9513  0.4867
  151SAPE    C316717   1.210   1.437  10.304 -0.1526  0.3966  0.2288
  151SAPE    HX16718   1.160   1.422  10.402  1.4497  0.2499  1.0728
  151SAPE    HY16719   1.301   1.374  10.298 -0.8448 -0.4790 -2.3052
  151SAPE   O3116720   1.134   1.390  10.194 -0.1691  0.5828  0.5820
  151SAPE   C3116721   1.042   1.292  10.214 -0.2363 -0.6007 -0.2951
  151SAPE   O3216722   1.009   1.255  10.325 -0.1461 -0.2047 -0.7116
  151SAPE   C3216723   1.003   1.237  10.083 -0.6801 -0.4899  0.1466
  151SAPE   H2X16724   0.966   1.326  10.028  1.8964  0.3596 -0.3438
  151SAPE   H2Y16725   0.924   1.159  10.087 -0.5424 -0.5909  1.1909
  151SAPE   C2316726   1.375   1.612   9.892 -0.4246  0.0099  0.3851
  151SAPE   H3R16727   1.277   1.664   9.898 -0.1888  0.5507 -0.3382
  151SAPE   H3S16728   1.337   1.511   9.918  0.8476 -0.0645  2.0907
  151SAPE   C2416729   1.425   1.647   9.756  0.0236  0.0457 -0.3516
  151SAPE   H4R16730   1.453   1.753   9.740  0.2097 -0.3100 -2.7113
  151SAPE   H4S16731   1.338   1.635   9.688  0.1845  0.8361 -0.7060
  151SAPE   C2516732   1.530   1.550   9.707  0.1711 -0.2918  0.1414
  151SAPE   H5R16733   1.556   1.467   9.774  0.7566  0.0572  0.3539
  151SAPE   C2616734   1.615   1.579   9.602 -0.3921  0.2838  0.1524
  151SAPE   H6R16735   1.692   1.506   9.572  0.7131  1.1894  0.7281
  151SAPE   C2716736   1.609   1.701   9.505 -0.0858 -0.7171 -0.0011
  151SAPE   H7R16737   1.519   1.762   9.526  1.7349  2.8351 -1.6560
  151SAPE   H7S16738   1.601   1.678   9.397 -0.4473  0.6121 -0.2763
  151SAPE   C2816739   1.730   1.792   9.520  0.1851 -0.5760 -0.6812
  151SAPE   H8R16740   1.756   1.807   9.625 -2.0312 -1.0562 -0.0155
  151SAPE   C2916741   1.809   1.846   9.418  0.1770 -0.2053 -0.5316
  151SAPE   H9R16742   1.884   1.921   9.449 -0.2850  0.0606 -0.0446
  151SAPE  C21016743   1.786   1.810   9.273 -0.1988 -0.1895 -0.4762
  151SAPE  H10R16744   1.736   1.711   9.261  1.8952 -1.3242 -0.2654
  151SAPE  H10S16745   1.886   1.787   9.232 -0.5242 -0.2331 -1.2795
  151SAPE  C21116746   1.712   1.916   9.196 -0.4832 -0.8176  0.2917
  151SAPE  H11R16747   1.611   1.946   9.228  0.3412  1.3661  1.0513
  151SAPE  C21216748   1.754   1.974   9.082 -0.0944  0.0472 -0.5275
  151SAPE  H12R16749   1.701   2.058   9.034 -1.8277  0.1109  1.3565
  151SAPE  C21316750   1.879   1.928   9.013  0.4552 -0.6715  0.0470
  151SAPE  H13R16751   1.876   1.818   8.997  1.3684 -0.4882 -1.5688
  151SAPE  H13S16752   1.964   1.944   9.083 -1.0206 -0.4177  1.8682
  151SAPE  C21416753   1.913   1.997   8.885  0.0989 -0.1089  0.2600
  151SAPE  H14R16754   1.931   2.104   8.901  2.0860 -0.5935  1.6869
  151SAPE  C21516755   1.940   1.932   8.769  0.7621 -0.0542  0.0349
  151SAPE  H15R16756   1.984   1.997   8.693 -0.5197  0.6925 -0.0998
  151SAPE  C21616757   1.943   1.777   8.749  0.7562  0.2433  0.5575
  151SAPE  H16R16758   1.973   1.719   8.838 -1.0496 -2.3756 -0.3950
  151SAPE  H16S16759   2.016   1.747   8.671 -1.8195 -0.5123 -1.7405
  151SAPE  C21716760   1.804   1.710   8.719  0.1986 -0.1013  0.2579
  151SAPE  H17R16761   1.736   1.733   8.803  0.1707 -1.5403  0.6625
  151SAPE  H17S16762   1.818   1.600   8.724 -0.6510 -0.4419 -2.8575
  151SAPE  C21816763   1.748   1.756   8.587  0.5770  0.3165 -0.5897
  151SAPE  H18R16764   1.715   1.861   8.605 -1.0395 -0.2220 -0.3015
  151SAPE  H18S16765   1.648   1.711   8.571  0.9482 -1.1419  0.9703
  151SAPE  C21916766   1.836   1.754   8.462  0.3379  0.0257  0.4452
  151SAPE  H19R16767   1.900   1.665   8.446 -0.2569 -0.4723  0.7788
  151SAPE  H19S16768   1.914   1.834   8.464 -0.1976  0.5987 -0.4466
  151SAPE  C22016769   1.756   1.757   8.333  0.1288  1.4840 -0.3760
  151SAPE  H20R16770   1.817   1.760   8.240 -2.2743  1.1866 -2.0693
  151SAPE  H20S16771   1.692   1.848   8.333 -2.7908 -0.4032 -1.6807
  151SAPE  H20T16772   1.694   1.664   8.328  1.6612  0.4986 -2.3321
  151SAPE   C3316773   1.123   1.181  10.000 -0.1780 -0.5248  0.0012
  151SAPE   H3X16774   1.184   1.112  10.063  1.1295 -0.7393 -1.4325
  151SAPE   H3Y16775   1.187   1.265   9.967 -1.3481  0.6027  0.5626
  151SAPE   C3416776   1.078   1.095   9.874 -0.3099  0.3857  0.0725
  151SAPE   H4X16777   0.997   1.026   9.907  1.4786 -1.7180  0.2761
  151SAPE   H4Y16778   1.164   1.037   9.836  0.1173  1.3831 -0.5242
  151SAPE   C3516779   1.031   1.175   9.750 -0.0055 -0.3258 -0.5326
  151SAPE   H5X16780   1.102   1.256   9.725  0.7642 -1.2210 -1.2819
  151SAPE   H5Y16781   0.929   1.208   9.780  0.1331 -0.3189 -0.0549
  151SAPE   C3616782   1.004   1.089   9.628 -0.5554  0.0132  0.3433
  151SAPE   H6X16783   0.946   1.002   9.665 -1.4837 -0.4069 -1.9001
  151SAPE   H6Y16784   1.098   1.045   9.589 -0.8758 -1.2319  0.8945
  151SAPE   C3716785   0.911   1.162   9.520  0.3899  0.1631  0.0657
  151SAPE   H7X16786   0.825   1.200   9.578 -0.3458  0.0585 -0.9337
  151SAPE   H7Y16787   0.864   1.096   9.443 -1.8003  0.7921  0.8088
  151SAPE   C3816788   0.993   1.275   9.442  0.2252  0.2583 -1.0158
  151SAPE   H8X16789   1.045   1.338   9.516  1.5571  1.9062 -3.2516
  151SAPE   H8Y16790   0.934   1.339   9.372 -0.4224 -0.5973 -1.2788
  151SAPE   C3916791   1.089   1.203   9.341 -0.5869 -0.1042 -0.0206
  151SAPE   H9X16792   1.017   1.148   9.277 -1.6729  0.2519  0.8738
  151SAPE   H9Y16793   1.149   1.131   9.402 -1.1004 -2.4325 -2.0789
  151SAPE  C31016794   1.174   1.293   9.258  0.8076 -0.3248  0.4192
  151SAPE  H10X16795   1.107   1.372   9.217  3.1001 -0.1685 -3.5505
  151SAPE  H10Y16796   1.220   1.255   9.164  0.3814  3.1602 -1.3941
  151SAPE  C31116797   1.289   1.365   9.332  0.2152  0.4997 -0.2367
  151SAPE  H11X16798   1.374   1.295   9.331  0.6755  1.0407  0.1286
  151SAPE  H11Y16799   1.263   1.366   9.440  1.9420 -1.9013  0.2677
  151SAPE  C31216800   1.323   1.511   9.287 -0.4119  0.4356 -0.9235
  151SAPE  H12X16801   1.407   1.548   9.350  2.0588 -3.3228 -1.6535
  151SAPE  H12Y16802   1.227   1.562   9.310 -0.6535 -0.6550  0.7037
  151SAPE  C31316803   1.361   1.525   9.136  0.5036 -0.8074 -0.2194
  151SAPE  H13X16804   1.270   1.507   9.075  0.8349  1.1834 -1.3918
  151SAPE  H13Y16805   1.435   1.444   9.115  0.7873 -0.0139 -2.5342
  151SAPE  C31416806   1.412   1.666   9.119  0.2172 -0.1650 -0.2351
  151SAPE  H14X16807   1.502   1.665   9.184  0.1236 -0.3251 -0.1036
  151SAPE  H14Y16808   1.345   1.742   9.164  1.0580  0.8818 -0.7035
  151SAPE  C31516809   1.450   1.700   8.977 -0.0737 -0.2601 -0.2664
  151SAPE  H15X16810   1.489   1.607   8.930  0.5446  0.3820 -1.0486
  151SAPE  H15Y16811   1.524   1.783   8.970 -2.2214  1.7690 -0.2147
  151SAPE  C31616812   1.317   1.737   8.901  0.4532 -0.0624  0.3127
  151SAPE  H16X16813   1.257   1.802   8.968  0.5284  0.6249 -0.2747
  151SAPE  H16Y16814   1.247   1.652   8.897 -0.2985  0.5035  1.1660
  151SAPE  C31716815   1.333   1.779   8.755 -0.8163  0.4691 -0.0422
  151SAPE  H17X16816   1.394   1.706   8.698 -1.7455  0.4591 -1.0369
  151SAPE  H17Y16817   1.404   1.865   8.760  1.3055 -1.2679  1.3789
  151SAPE  C31816818   1.199   1.812   8.702  0.5051  0.4547  0.0598
  151SAPE  H18X16819   1.204   1.880   8.614 -0.3126  0.1426 -0.2440
  151SAPE  H18Y16820   1.141   1.872   8.776  0.0773  0.3981 -0.2260
  151SAPE  H18Z16821   1.134   1.726   8.675 -1.5564  0.5311  3.9160
  152SAPE     N16822   0.512   2.036  10.503 -0.0695  0.0424  0.9320
  152SAPE   HN116823   0.453   1.955  10.477 -2.0533  1.5898  0.4331
  152SAPE   HN216824   0.462   2.105  10.562  0.5109  2.5380 -1.2877
  152SAPE   HN316825   0.538   2.075  10.410 -0.7991  1.0393  1.1254
  152SAPE   C1216826   0.640   1.996  10.559  0.2343  0.3621  0.4697
  152SAPE  H12A16827   0.710   1.959  10.482 -1.2793 -0.5768 -0.5030
  152SAPE  H12B16828   0.613   1.911  10.626  1.8210 -1.7626 -1.4568
  152SAPE   C1116829   0.703   2.124  10.625  0.0440 -0.0510 -0.0014
  152SAPE  H11A16830   0.800   2.098  10.673  1.0919  1.9501 -0.8829
  152SAPE  H11B16831   0.653   2.162  10.717  1.2611 -1.6235  1.3700
  152SAPE     P16832   0.844   2.309  10.519 -0.4862 -0.2199  0.2562
  152SAPE   O1316833   0.824   2.433  10.437 -1.2716 -0.0667  0.1954
  152SAPE   O1416834   0.891   2.331  10.657  0.2711 -0.3975 -0.2824
  152SAPE   O1216835   0.708   2.233  10.529  0.2795  0.9611  0.8155
  152SAPE   O1116836   0.941   2.203  10.453 -0.2286 -0.2192 -0.1597
  152SAPE    C116837   0.909   2.108  10.350 -0.2538 -0.5122  0.3787
  152SAPE    HA16838   0.952   2.006  10.364  0.0132 -0.7832 -1.9832
  152SAPE    HB16839   0.801   2.083  10.350 -0.4236  0.1982 -0.2459
  152SAPE    C216840   0.955   2.152  10.206  1.0128  0.5541  0.5065
  152SAPE    HS16841   1.066   2.159  10.198  1.2702 -2.2193  0.8368
  152SAPE   O2116842   0.873   2.265  10.169  0.2012  0.3912 -0.1369
  152SAPE   C2116843   0.937   2.346  10.091  0.4270 -0.0194 -0.1360
  152SAPE   O2216844   1.057   2.344  10.063  0.2278  0.1700 -0.1401
  152SAPE   C2216845   0.841   2.455  10.058 -0.1528  0.2993 -0.2901
  152SAPE   H2R16846   0.745   2.413  10.023 -1.3396  0.7015  2.2450
  152SAPE   H2S16847   0.824   2.514  10.151  0.1959 -1.3148  0.8390
  152SAPE    C316848   0.912   2.049  10.104 -0.6133 -0.2305  0.0242
  152SAPE    HX16849   0.802   2.038  10.095 -0.7858  0.1297  1.5225
  152SAPE    HY16850   0.957   1.950  10.129  1.5923  0.6989 -0.0498
  152SAPE   O3116851   0.954   2.081   9.970  0.3224 -0.3234  0.1186
  152SAPE   C3116852   1.087   2.075   9.945 -0.0458  0.0664 -0.0045
  152SAPE   O3216853   1.171   2.044  10.028  0.1285 -0.0118 -0.7316
  152SAPE   C3216854   1.118   2.109   9.802  0.1865 -0.0240  0.0170
  152SAPE   H2X16855   1.143   2.217   9.796 -0.4200  0.3207  2.4511
  152SAPE   H2Y16856   1.031   2.081   9.739  0.5537 -1.4773  0.1095
  152SAPE   C2316857   0.906   2.551   9.951  0.0653 -0.1589  0.4139
  152SAPE   H3R16858   1.006   2.581   9.988  0.3712 -1.5843  0.8055
  152SAPE   H3S16859   0.843   2.643   9.952  0.4390  0.1690 -1.4594
  152SAPE   C2416860   0.921   2.486   9.809 -0.2963 -0.1501  0.1557
  152SAPE   H4R16861   0.822   2.459   9.766  0.4791  0.2189 -2.0100
  152SAPE   H4S16862   0.989   2.398   9.813  0.7787  0.7121  1.4382
  152SAPE   C2516863   0.980   2.597   9.725 -0.0294 -0.3044  0.0737
  152SAPE   H5R16864   1.028   2.676   9.784  1.9780  0.6076 -2.5887
  152SAPE   C2616865   0.953   2.618   9.583  0.2439  0.4491 -0.8032
  152SAPE   H6R16866   1.003   2.701   9.531  0.5819  0.8278  0.1069
  152SAPE   C2716867   0.867   2.534   9.487 -0.0618  0.1885  0.3285
  152SAPE   H7R16868   0.855   2.590   9.392  1.4792 -0.5758 -0.3515
  152SAPE   H7S16869   0.764   2.517   9.523  0.6405  0.9477  2.9647
  152SAPE   C2816870   0.930   2.396   9.453  0.0647  0.4890 -0.4431
  152SAPE   H8R16871   0.977   2.341   9.536  0.8778  1.2749 -0.3627
  152SAPE   C2916872   0.930   2.345   9.328  0.0237 -0.0310  0.8883
  152SAPE   H9R16873   0.982   2.248   9.320  0.6662  0.3819 -0.2025
  152SAPE  C21016874   0.887   2.402   9.196 -0.0751 -0.0565 -0.3178
  152SAPE  H10R16875   0.912   2.338   9.109  2.1638 -0.7310  0.7531
  152SAPE  H10S16876   0.951   2.492   9.177 -0.0173 -0.2631 -1.1089
  152SAPE  C21116877   0.740   2.419   9.196  0.6953 -0.8251  0.2243
  152SAPE  H11R16878   0.702   2.412   9.299  1.2194 -0.0108  0.4868
  152SAPE  C21216879   0.661   2.443   9.088 -0.2107 -0.0171  0.1777
  152SAPE  H12R16880   0.554   2.465   9.102  0.3307  2.7264  0.4652
  152SAPE  C21316881   0.716   2.463   8.941  0.5795 -0.4774 -0.0112
  152SAPE  H13R16882   0.692   2.369   8.886  1.3703 -0.5381 -0.2733
  152SAPE  H13S16883   0.825   2.482   8.930  0.4529 -0.4832 -1.4000
  152SAPE  C21416884   0.662   2.583   8.864  0.8696  0.2945 -0.6698
  152SAPE  H14R16885   0.674   2.675   8.922  0.9713  0.0382 -0.2800
  152SAPE  C21516886   0.597   2.582   8.750  0.6136  0.0972  1.1757
  152SAPE  H15R16887   0.569   2.678   8.705 -0.7894 -0.7671  0.1112
  152SAPE  C21616888   0.552   2.458   8.662 -0.4181  0.2200 -0.7619
  152SAPE  H16R16889   0.552   2.368   8.727  2.6226  2.0665  2.1204
  152SAPE  H16S16890   0.628   2.443   8.583 -1.6303  0.1215 -1.9564
  152SAPE  C21716891   0.426   2.496   8.585 -0.1030  1.3171 -0.4040
  152SAPE  H17R16892   0.455   2.577   8.515 -0.5413  1.0787 -0.8669
  152SAPE  H17S16893   0.342   2.518   8.653  0.1433 -1.2495  0.8626
  152SAPE  C21816894   0.374   2.374   8.502 -0.0911  0.4063 -0.9015
  152SAPE  H18R16895   0.327   2.318   8.586  1.3432 -0.0202 -0.3613
  152SAPE  H18S16896   0.452   2.312   8.453 -0.2660  0.9890 -1.9494
  152SAPE  C21916897   0.276   2.396   8.388  0.4378 -0.1448 -0.7022
  152SAPE  H19R16898   0.187   2.459   8.408  1.6732  1.7976 -1.0618
  152SAPE  H19S16899   0.248   2.297   8.346  1.2213  0.0498 -1.7236
  152SAPE  C22016900   0.335   2.471   8.270 -0.3599 -0.0513  0.6957
  152SAPE  H20R16901   0.437   2.431   8.249  0.4417  1.7593  0.8794
  152SAPE  H20S16902   0.328   2.580   8.291  1.0366  0.1968  0.0224
  152SAPE  H20T16903   0.279   2.455   8.175  1.1769 -2.3449  0.0917
  152SAPE   C3316904   1.231   2.036   9.734  0.2042 -0.4469 -0.9711
  152SAPE   H3X16905   1.201   1.929   9.724  0.7144 -0.5771 -1.1345
  152SAPE   H3Y16906   1.322   2.032   9.798 -0.4671 -1.4524 -0.0296
  152SAPE   C3416907   1.268   2.100   9.599  0.1156  0.4782 -0.4180
  152SAPE   H4X16908   1.283   2.208   9.622 -1.7778  0.8521 -0.7683
  152SAPE   H4Y16909   1.178   2.092   9.534  1.3084  0.6694 -2.1384
  152SAPE   C3516910   1.375   2.022   9.528 -0.4258  0.3381  0.5775
  152SAPE   H5X16911   1.346   1.916   9.511 -0.0496  0.2786  0.2651
  152SAPE   H5Y16912   1.457   2.023   9.603 -0.9283 -0.2800  1.1411
  152SAPE   C3616913   1.431   2.085   9.399  0.0339  0.0644 -0.3664
  152SAPE   H6X16914   1.528   2.033   9.384 -0.7492 -2.6720  3.0693
  152SAPE   H6Y16915   1.446   2.191   9.431 -4.2731  1.2584 -1.5586
  152SAPE   C3716916   1.327   2.076   9.295  0.0752 -0.4210  0.2541
  152SAPE   H7X16917   1.233   2.118   9.338  0.7385 -0.7691  2.1428
  152SAPE   H7Y16918   1.319   1.969   9.270 -1.3047 -0.6200  1.3730
  152SAPE   C3816919   1.359   2.156   9.164  0.2839  0.5285  0.9168
  152SAPE   H8X16920   1.445   2.108   9.113 -1.9744 -2.3760 -0.4151
  152SAPE   H8Y16921   1.390   2.257   9.201 -1.2479  0.5927  2.1292
  152SAPE   C3916922   1.246   2.151   9.064 -0.0798 -0.3640 -0.6011
  152SAPE   H9X16923   1.170   2.225   9.098  0.4586  0.3694 -0.9540
  152SAPE   H9Y16924   1.204   2.048   9.060  2.2289 -1.3128 -2.8562
  152SAPE  C31016925   1.297   2.178   8.926 -0.3448 -0.6218 -0.2946
  152SAPE  H10X16926   1.350   2.090   8.884  0.0689 -0.2686 -0.5355
  152SAPE  H10Y16927   1.369   2.263   8.922  0.7946 -1.5272  0.2422
  152SAPE  C31116928   1.192   2.222   8.831  0.3275 -0.2298 -0.2628
  152SAPE  H11X16929   1.156   2.327   8.835 -2.4381 -1.1160  0.4491
  152SAPE  H11Y16930   1.102   2.162   8.858  0.5137 -0.3473  0.1101
  152SAPE  C31216931   1.221   2.179   8.684  0.0005 -0.3123 -0.2668
  152SAPE  H12X16932   1.243   2.070   8.672 -0.1326 -0.2078 -1.6678
  152SAPE  H12Y16933   1.317   2.230   8.661 -0.8989  0.9136 -1.4538
  152SAPE  C31316934   1.110   2.223   8.583 -0.1787 -0.0697  0.7150
  152SAPE  H13X16935   1.139   2.212   8.477 -1.9591  0.5900  0.1119
  152SAPE  H13Y16936   1.092   2.333   8.587  0.2623 -0.0056  0.9554
  152SAPE  C31416937   0.972   2.163   8.608  0.0599  0.2544  0.3883
  152SAPE  H14X16938   0.928   2.188   8.708  0.0196  1.1596  0.1455
  152SAPE  H14Y16939   0.971   2.053   8.588  0.6225  0.2434  0.4231
  152SAPE  C31516940   0.860   2.233   8.518  0.3958  0.7524  0.5870
  152SAPE  H15X16941   0.885   2.340   8.534  2.3950  0.3517  0.4368
  152SAPE  H15Y16942   0.762   2.206   8.563 -0.2012  0.1903 -0.9880
  152SAPE  C31616943   0.861   2.206   8.366 -0.6313 -0.2375 -0.1588
  152SAPE  H16X16944   0.871   2.096   8.359 -1.1654 -0.2890 -0.1987
  152SAPE  H16Y16945   0.947   2.258   8.320 -1.3950  1.3500  0.1278
  152SAPE  C31716946   0.740   2.230   8.281  0.3486  0.4015  0.1973
  152SAPE  H17X16947   0.772   2.232   8.175  3.2415  1.9239  0.9730
  152SAPE  H17Y16948   0.704   2.333   8.301 -0.5709 -0.1652  1.6034
  152SAPE  C31816949   0.624   2.128   8.302 -0.5829  0.1277 -0.1818
  152SAPE  H18X16950   0.597   2.118   8.409 -0.7783 -3.8651 -0.4503
  152SAPE  H18Y16951   0.642   2.021   8.276  2.3931 -0.1057  2.2537
  152SAPE  H18Z16952   0.541   2.165   8.239 -1.0698  1.6426  1.2862
  153SAPE     N16953   0.572   2.519  10.404 -0.0064  0.5023  0.0176
  153SAPE   HN116954   0.572   2.620  10.379  1.2484  0.5174  0.0182
  153SAPE   HN216955   0.672   2.492  10.406  0.1837  1.2056  2.0354
  153SAPE   HN316956   0.537   2.474  10.317 -1.0720 -1.3775  1.3172
  153SAPE   C1216957   0.494   2.465  10.525  0.0856 -0.5413  0.0155
  153SAPE  H12A16958   0.504   2.355  10.532 -1.7179 -0.7061  0.4435
  153SAPE  H12B16959   0.384   2.477  10.510  0.3828 -0.6370 -2.7478
  153SAPE   C1116960   0.541   2.534  10.658  0.3330 -0.2961  0.4493
  153SAPE  H11A16961   0.651   2.516  10.662  0.4244  0.1114 -0.1140
  153SAPE  H11B16962   0.495   2.478  10.742 -1.7372 -0.8648 -0.9994
  153SAPE     P16963   0.592   2.779  10.738  0.0726 -0.1458  0.3533
  153SAPE   O1316964   0.542   2.774  10.877  0.4960  0.0732  0.2858
  153SAPE   O1416965   0.738   2.747  10.720  0.0037 -0.4332 -1.1415
  153SAPE   O1216966   0.504   2.670  10.668 -0.0567  0.2291  0.1085
  153SAPE   O1116967   0.561   2.910  10.667  0.3878 -0.0811  0.2267
  153SAPE    C116968   0.438   2.938  10.591  0.7667  0.2794 -0.3849
  153SAPE    HA16969   0.353   2.876  10.628  2.3611 -1.4865  0.5071
  153SAPE    HB16970   0.421   3.048  10.593  0.1398  0.1812 -0.0811
  153SAPE    C216971   0.459   2.897  10.443 -0.4987 -0.0700  0.4766
  153SAPE    HS16972   0.465   2.786  10.439 -0.5754 -0.0457 -2.5980
  153SAPE   O2116973   0.577   2.955  10.390 -0.8712 -0.2155  0.2883
  153SAPE   C2116974   0.644   2.878  10.301 -0.0056 -0.7218 -0.2235
  153SAPE   O2216975   0.619   2.762  10.274  0.1179  0.0308 -0.4659
  153SAPE   C2216976   0.763   2.959  10.247  0.0274 -1.4593 -0.4393
  153SAPE   H2R16977   0.730   3.059  10.212  1.1337 -1.1168 -0.5581
  153SAPE   H2S16978   0.842   2.962  10.325  2.0727 -2.1765 -2.3714
  153SAPE    C316979   0.335   2.939  10.362  0.9475  0.0280 -0.1528
  153SAPE    HX16980   0.331   3.049  10.367 -1.6044 -0.0548  1.8596
  153SAPE    HY16981   0.248   2.899  10.419  1.2230  1.4465  1.3226
  153SAPE   O3116982   0.339   2.901  10.225  0.2327 -0.6563  0.2548
  153SAPE   C3116983   0.315   2.781  10.186  0.1141 -0.3459 -0.5804
  153SAPE   O3216984   0.294   2.684  10.259 -0.4074 -0.3932  0.1483
  153SAPE   C3216985   0.342   2.777  10.040  0.1665 -0.4081  0.1056
  153SAPE   H2X16986   0.311   2.874   9.995  0.3674 -0.6591 -0.5835
  153SAPE   H2Y16987   0.272   2.701   9.999 -0.9697  0.2176  0.8206
  153SAPE   C2316988   0.842   2.888  10.134  0.3825  0.2773  0.8320
  153SAPE   H3R16989   0.767   2.877  10.053  2.1951 -1.5058 -0.7174
  153SAPE   H3S16990   0.887   2.792  10.169 -0.5594 -0.6731 -0.4751
  153SAPE   C2416991   0.957   2.966  10.079 -0.0006  0.0857  0.3929
  153SAPE   H4R16992   1.005   2.902  10.002 -0.6308  0.3033 -0.1922
  153SAPE   H4S16993   1.034   2.976  10.158  1.3715  0.8500 -0.9901
  153SAPE   C2516994   0.932   3.098  10.020  0.8250 -0.7314 -0.0205
  153SAPE   H5R16995   0.886   3.172  10.087  1.1420  0.0793 -0.6711
  153SAPE   C2616996   0.935   3.136   9.885 -0.6431 -0.0699 -0.9337
  153SAPE   H6R16997   0.906   3.240   9.868  2.8693  1.0877 -0.6298
  153SAPE   C2716998   0.968   3.061   9.762 -0.0047  0.2358 -0.5900
  153SAPE   H7R16999   0.891   2.980   9.755  0.8585 -0.5773 -0.8319
  153SAPE   H7S17000   1.063   3.004   9.769 -0.2345 -0.4146 -2.2576
  153SAPE   C2817001   0.973   3.143   9.629  0.4399 -0.6245  0.4728
  153SAPE   H8R17002   1.000   3.249   9.642 -2.6098  0.3571 -0.4011
  153SAPE   C2917003   0.937   3.106   9.503  0.0762  0.0640  0.1750
  153SAPE   H9R17004   0.947   3.178   9.421  2.4303  1.5547  1.6392
  153SAPE  C21017005   0.887   2.968   9.449 -0.2765  0.3807 -0.4547
  153SAPE  H10R17006   0.780   2.979   9.422 -0.9510 -1.2297  1.3712
  153SAPE  H10S17007   0.896   2.894   9.532 -0.7188  2.4902  1.5817
  153SAPE  C21117008   0.961   2.921   9.324 -0.1710 -0.0415  0.4505
  153SAPE  H11R17009   1.049   2.859   9.347  0.3366  0.1209 -0.9986
  153SAPE  C21217010   0.920   2.922   9.197  0.0582 -0.2783  0.5728
  153SAPE  H12R17011   0.986   2.875   9.122  1.3373 -1.9267  2.6265
  153SAPE  C21317012   0.797   2.973   9.139  0.4594  0.0073 -0.1435
  153SAPE  H13R17013   0.740   3.024   9.219  0.9001  2.2909 -1.1978
  153SAPE  H13S17014   0.740   2.883   9.107 -0.5796 -0.0857  1.8239
  153SAPE  C21417015   0.829   3.069   9.029  0.7467 -0.4149 -0.1661
  153SAPE  H14R17016   0.826   3.170   9.073  1.8981 -0.6447  0.4774
  153SAPE  C21517017   0.849   3.053   8.898 -1.0905  0.3577  0.0696
  153SAPE  H15R17018   0.866   3.139   8.832  1.9053  0.3321  0.6696
  153SAPE  C21617019   0.843   2.919   8.825 -0.1580 -0.3779 -0.4372
  153SAPE  H16R17020   0.741   2.906   8.784  0.0823 -0.2724 -1.0736
  153SAPE  H16S17021   0.869   2.834   8.892 -0.2332  0.6982  1.0040
  153SAPE  C21717022   0.942   2.908   8.710  0.3472 -0.1778  0.8594
  153SAPE  H17R17023   1.045   2.936   8.741 -0.0744  0.4933  1.7087
  153SAPE  H17S17024   0.913   2.979   8.630 -0.8028 -1.2830  0.2593
  153SAPE  C21817025   0.944   2.769   8.637 -0.8463  0.5377 -0.9876
  153SAPE  H18R17026   0.840   2.730   8.637 -0.0474 -1.8131  0.8269
  153SAPE  H18S17027   1.000   2.711   8.712 -0.0678  1.0482 -1.1592
  153SAPE  C21917028   1.017   2.765   8.506 -0.2317  0.2680  0.1203
  153SAPE  H19R17029   1.104   2.835   8.510  1.2726 -1.5183 -0.1452
  153SAPE  H19S17030   0.948   2.807   8.429 -0.8248  0.1396  0.5756
  153SAPE  C22017031   1.076   2.630   8.468 -0.1824  0.0518 -0.5531
  153SAPE  H20R17032   1.152   2.595   8.542 -0.6842  0.7145  0.2966
  153SAPE  H20S17033   1.116   2.630   8.365 -0.0328 -0.6053 -0.5010
  153SAPE  H20T17034   1.001   2.548   8.472 -2.2585  1.8818  1.4124
  153SAPE   C3317035   0.490   2.760   9.993 -0.2613  0.0590  0.2778
  153SAPE   H3X17036   0.528   2.659  10.021  1.8291  1.1053  1.5150
  153SAPE   H3Y17037   0.553   2.832  10.050 -1.1271  1.1886 -0.1516
  153SAPE   C3417038   0.511   2.783   9.848  0.8743 -0.3459  1.1369
  153SAPE   H4X17039   0.619   2.758   9.838  1.2610  1.9073 -1.4346
  153SAPE   H4Y17040   0.502   2.891   9.823  1.3055 -0.3215  1.0805
  153SAPE   C3517041   0.429   2.700   9.744  0.0396 -0.2662 -1.4405
  153SAPE   H5X17042   0.320   2.720   9.759  0.7109  2.1620  1.0956
  153SAPE   H5Y17043   0.457   2.594   9.762  2.1694  0.5064  0.1634
  153SAPE   C3617044   0.464   2.726   9.595 -0.1926 -0.3349 -0.4899
  153SAPE   H6X17045   0.434   2.637   9.535  3.2495 -1.4815 -0.7144
  153SAPE   H6Y17046   0.574   2.731   9.586 -0.1620  1.5945  0.4074
  153SAPE   C3717047   0.405   2.852   9.537  1.0379 -0.3128  0.3238
  153SAPE   H7X17048   0.422   2.933   9.610 -2.2331  0.7697  0.0576
  153SAPE   H7Y17049   0.295   2.837   9.543  0.8734  0.8864  0.5158
  153SAPE   C3817050   0.444   2.880   9.391  0.3466 -0.1577  0.8780
  153SAPE   H8X17051   0.552   2.858   9.389  0.3260 -0.3581  1.6810
  153SAPE   H8Y17052   0.423   2.987   9.371 -1.5490 -0.2974  1.8215
  153SAPE   C3917053   0.368   2.782   9.298  0.6937  0.2970 -0.1364
  153SAPE   H9X17054   0.257   2.789   9.308  0.5783 -1.2082 -0.2123
  153SAPE   H9Y17055   0.384   2.673   9.309 -1.8252 -0.1195  0.1545
  153SAPE  C31017056   0.388   2.822   9.146  0.3014  0.2886 -0.4942
  153SAPE  H10X17057   0.497   2.831   9.123  0.6073 -1.9240 -0.1435
  153SAPE  H10Y17058   0.348   2.924   9.128  2.8452  1.5427  0.3862
  153SAPE  C31117059   0.328   2.719   9.052  0.4078  0.5636 -0.1761
  153SAPE  H11X17060   0.365   2.617   9.077 -1.4507 -0.1429 -0.0996
  153SAPE  H11Y17061   0.352   2.732   8.944 -0.9090 -2.4395 -0.9430
  153SAPE  C31217062   0.178   2.713   9.051 -0.2842 -0.3376 -0.3848
  153SAPE  H12X17063   0.144   2.814   9.017 -0.6553 -0.5959 -0.7834
  153SAPE  H12Y17064   0.142   2.692   9.154  2.2483  1.1571  0.9176
  153SAPE  C31317065   0.120   2.608   8.943  0.2471 -0.3873  0.0320
  153SAPE  H13X17066   0.023   2.578   8.987  0.7542 -1.9559  0.1645
  153SAPE  H13Y17067   0.188   2.520   8.943  1.3390  0.4251  1.1945
  153SAPE  C31417068   0.104   2.660   8.801 -0.3183 -0.4999  0.2127
  153SAPE  H14X17069   0.208   2.681   8.768 -0.8696  2.0538 -0.1098
  153SAPE  H14Y17070   0.042   2.751   8.816 -0.1619 -0.4261  0.4102
  153SAPE  C31517071   0.038   2.552   8.716 -0.6543 -0.6020 -0.9988
  153SAPE  H15X17072   0.065   2.445   8.734 -0.2316 -0.3304  0.0479
  153SAPE  H15Y17073   0.060   2.570   8.609 -2.7191  1.2466 -1.1796
  153SAPE  C31617074  -0.120   2.547   8.723 -0.2806 -0.1405  0.1012
  153SAPE  H16X17075  -0.156   2.647   8.691 -1.6961 -1.1362 -1.6159
  153SAPE  H16Y17076  -0.149   2.538   8.830 -0.6777 -1.6186 -0.1017
  153SAPE  C31717077  -0.185   2.449   8.624 -0.6643 -0.3861  0.0005
  153SAPE  H17X17078  -0.141   2.350   8.649  0.9871  0.4632  0.5999
  153SAPE  H17Y17079  -0.162   2.474   8.519  1.4514 -0.0014  0.5104
  153SAPE  C31817080  -0.333   2.434   8.636  0.3705 -0.8130  0.8608
  153SAPE  H18X17081  -0.374   2.346   8.583  1.7025 -1.2362  0.4791
  153SAPE  H18Y17082  -0.388   2.531   8.630  0.9087 -0.2772  3.4788
  153SAPE  H18Z17083  -0.360   2.404   8.739  0.1929 -0.9604  0.7728
  154SAPE     N17084   2.629   4.402  10.809 -0.0752 -0.0186 -0.2737
  154SAPE   HN117085   2.528   4.384  10.823 -0.3845  0.9954 -1.0616
  154SAPE   HN217086   2.699   4.361  10.875 -2.7428 -0.5390  2.4484
  154SAPE   HN317087   2.636   4.506  10.815 -0.0872 -0.0968  1.9169
  154SAPE   C1217088   2.655   4.333  10.675  1.1310 -0.1364 -0.0209
  154SAPE  H12A17089   2.765   4.334  10.656  1.0590  1.6020 -0.5963
  154SAPE  H12B17090   2.608   4.402  10.601  0.3341 -0.8575 -0.1930
  154SAPE   C1117091   2.588   4.195  10.671  1.1555 -0.1971 -0.7445
  154SAPE  H11A17092   2.617   4.154  10.572  0.8040 -2.4540  0.0292
  154SAPE  H11B17093   2.478   4.206  10.670  0.9667 -1.5198  0.7719
  154SAPE     P17094   2.599   3.958  10.761 -0.3820  0.3666 -0.1447
  154SAPE   O1317095   2.668   3.870  10.859  0.4249  0.2182  0.0557
  154SAPE   O1417096   2.453   3.950  10.780  0.4434 -0.0723 -0.1517
  154SAPE   O1217097   2.646   4.108  10.773 -0.4907 -0.7100  0.2506
  154SAPE   O1117098   2.639   3.921  10.619  0.1169  0.5896  0.3320
  154SAPE    C117099   2.575   3.804  10.560 -0.4805  0.3947 -0.4480
  154SAPE    HA17100   2.654   3.732  10.531 -2.2436 -0.9791 -2.0624
  154SAPE    HB17101   2.507   3.749  10.629 -1.6202  1.5544 -0.6147
  154SAPE    C217102   2.517   3.829  10.417  0.4162  0.4965  0.0188
  154SAPE    HS17103   2.501   3.735  10.361 -0.5568  0.1700  0.8173
  154SAPE   O2117104   2.592   3.926  10.345 -0.7594 -0.1703 -0.0108
  154SAPE   C2117105   2.706   3.879  10.301 -0.6145  0.0345  0.1623
  154SAPE   O2217106   2.738   3.761  10.309 -0.1984 -0.1599 -0.8793
  154SAPE   C2217107   2.790   3.996  10.237 -0.0737 -0.0760 -0.4945
  154SAPE   H2R17108   2.715   4.068  10.198 -0.5977 -0.4952 -0.2698
  154SAPE   H2S17109   2.849   4.041  10.320 -1.8428 -1.1093  1.4102
  154SAPE    C317110   2.379   3.899  10.446  0.5794  0.1271 -0.2427
  154SAPE    HX17111   2.398   4.004  10.479  1.6791 -0.1887  0.1548
  154SAPE    HY17112   2.312   3.855  10.523 -1.3915  1.3276 -1.1651
  154SAPE   O3117113   2.300   3.886  10.318  0.4016  0.0663 -0.1239
  154SAPE   C3117114   2.291   3.995  10.236 -0.4376 -0.0702  0.0604
  154SAPE   O3217115   2.343   4.102  10.243 -0.1779  0.2223  0.2874
  154SAPE   C3217116   2.201   3.948  10.118  1.0864  0.2968 -0.2250
  154SAPE   H2X17117   2.101   3.936  10.166  1.9197 -0.6292  1.3622
  154SAPE   H2Y17118   2.232   3.847  10.085  0.2786  0.3439 -1.1876
  154SAPE   C2317119   2.886   3.934  10.127  0.0612 -0.3442  0.7400
  154SAPE   H3R17120   2.924   3.836  10.163  1.5745 -0.8309 -1.9480
  154SAPE   H3S17121   2.977   3.996  10.112  0.6544 -1.3381  0.1098
  154SAPE   C2417122   2.829   3.911   9.984 -0.0188  0.6957 -0.3099
  154SAPE   H4R17123   2.744   3.841   9.992  1.4185 -0.8951  2.2103
  154SAPE   H4S17124   2.899   3.852   9.921 -1.9531 -2.7747  0.5554
  154SAPE   C2517125   2.801   4.040   9.908  0.1178 -0.0870  0.1275
  154SAPE   H5R17126   2.889   4.103   9.890  1.4334 -1.1021  2.5548
  154SAPE   C2617127   2.684   4.069   9.846  0.3833 -0.3396  0.2768
  154SAPE   H6R17128   2.679   4.173   9.811  2.4998  0.1310  1.1773
  154SAPE   C2717129   2.557   3.985   9.838 -0.2170 -0.5377  0.9448
  154SAPE   H7R17130   2.472   4.054   9.857 -0.2966  0.1137 -1.4951
  154SAPE   H7S17131   2.548   3.902   9.912  2.1311 -0.3218  1.5381
  154SAPE   C2817132   2.562   3.923   9.698 -0.1065 -0.9956  0.3309
  154SAPE   H8R17133   2.632   3.839   9.688 -1.8218 -2.4283  0.0071
  154SAPE   C2917134   2.497   3.955   9.584  0.3864 -0.1280 -0.0081
  154SAPE   H9R17135   2.524   3.895   9.496 -0.4093 -1.4710  0.6287
  154SAPE  C21017136   2.390   4.061   9.561  0.1801  0.1814  0.6255
  154SAPE  H10R17137   2.438   4.154   9.525 -1.1951  0.6521 -0.0839
  154SAPE  H10S17138   2.357   4.103   9.659 -0.3252  0.3078  0.4053
  154SAPE  C21117139   2.273   4.022   9.478  0.0900 -0.1876 -0.6163
  154SAPE  H11R17140   2.179   4.029   9.533 -0.4995 -0.8436 -1.5094
  154SAPE  C21217141   2.273   4.005   9.342 -0.5643  0.5374 -0.6991
  154SAPE  H12R17142   2.184   3.972   9.287  1.1759  0.8225 -3.9185
  154SAPE  C21317143   2.397   4.019   9.249  0.4209 -0.0494 -0.3344
  154SAPE  H13R17144   2.434   3.915   9.236  2.5194  0.7510 -1.1782
  154SAPE  H13S17145   2.488   4.065   9.295  1.8338 -2.3125 -0.6663
  154SAPE  C21417146   2.356   4.079   9.113  0.0099 -0.6110 -0.0262
  154SAPE  H14R17147   2.248   4.081   9.097 -0.3198 -0.0163  1.9576
  154SAPE  C21517148   2.442   4.137   9.026 -0.5603  0.1182 -0.0979
  154SAPE  H15R17149   2.400   4.172   8.930 -2.1058 -0.2747  0.3953
  154SAPE  C21617150   2.592   4.138   9.035  0.0022 -0.2593 -0.2101
  154SAPE  H16R17151   2.624   4.041   8.991 -3.7367 -1.1627 -1.3160
  154SAPE  H16S17152   2.635   4.137   9.138  1.6905 -1.0261 -0.8883
  154SAPE  C21717153   2.665   4.230   8.937  0.8333  0.4162 -0.2138
  154SAPE  H17R17154   2.627   4.201   8.837 -1.3193  0.7440  0.4367
  154SAPE  H17S17155   2.774   4.216   8.947  0.9927 -0.4473 -2.6055
  154SAPE  C21817156   2.625   4.382   8.960  0.8343 -0.6824 -0.0605
  154SAPE  H18R17157   2.645   4.420   9.062  0.3427 -1.1151  0.2027
  154SAPE  H18S17158   2.517   4.389   8.932  0.9446  0.8791 -0.1444
  154SAPE  C21917159   2.703   4.473   8.861  0.1370  0.1989 -0.0063
  154SAPE  H19R17160   2.637   4.560   8.837  0.2184  0.1853 -0.2801
  154SAPE  H19S17161   2.732   4.422   8.767 -1.3503 -2.6849  0.9884
  154SAPE  C22017162   2.828   4.529   8.931  0.2884 -0.2309 -0.0596
  154SAPE  H20R17163   2.806   4.600   9.013 -0.8281  0.9640 -1.3404
  154SAPE  H20S17164   2.888   4.577   8.851  0.1066  1.9112  1.0407
  154SAPE  H20T17165   2.879   4.437   8.969 -1.4545 -0.9309  0.6965
  154SAPE   C3317166   2.194   4.042  10.002 -0.3945 -0.6267 -0.2382
  154SAPE   H3X17167   2.299   4.061   9.970 -0.1700 -1.0439  0.2457
  154SAPE   H3Y17168   2.145   4.137  10.032 -0.1616 -1.0122  1.4236
  154SAPE   C3417169   2.119   3.988   9.894 -0.2751  1.0678  0.3242
  154SAPE   H4X17170   2.181   3.912   9.841 -1.5527  0.2188  0.0070
  154SAPE   H4Y17171   2.104   4.068   9.819 -0.2046  1.5371  0.8044
  154SAPE   C3517172   1.977   3.927   9.928 -0.4202  0.2012  0.2541
  154SAPE   H5X17173   1.935   3.997  10.003  1.5999  1.5544  0.1867
  154SAPE   H5Y17174   1.981   3.827   9.975  1.2759 -0.1465 -0.5647
  154SAPE   C3617175   1.891   3.906   9.811 -0.3399  0.2141 -0.1701
  154SAPE   H6X17176   1.884   4.004   9.760  3.1817 -0.1637 -1.6239
  154SAPE   H6Y17177   1.797   3.872   9.860 -0.7941  0.0765 -1.1103
  154SAPE   C3717178   1.934   3.797   9.706 -0.0150 -0.3231 -0.4378
  154SAPE   H7X17179   1.976   3.714   9.766 -0.1368  1.4686  2.2958
  154SAPE   H7Y17180   2.009   3.849   9.642 -1.3378  1.3806 -0.6805
  154SAPE   C3817181   1.812   3.761   9.617  0.1304 -0.0266  0.9042
  154SAPE   H8X17182   1.781   3.856   9.570  1.0763 -0.8092 -1.4532
  154SAPE   H8Y17183   1.729   3.715   9.675 -1.7489  2.1681  0.0774
  154SAPE   C3917184   1.849   3.671   9.498 -0.0563 -0.0140 -0.7164
  154SAPE   H9X17185   1.757   3.622   9.460 -0.8421  0.0813  0.9791
  154SAPE   H9Y17186   1.919   3.591   9.531 -1.0800 -0.4148  0.5881
  154SAPE  C31017187   1.907   3.761   9.388  0.2772 -0.0590  0.1404
  154SAPE  H10X17188   2.001   3.800   9.433  0.9252  0.5596 -1.6392
  154SAPE  H10Y17189   1.846   3.853   9.380  0.1033 -0.0192  1.7136
  154SAPE  C31117190   1.928   3.690   9.257  0.5771  0.1905  0.7773
  154SAPE  H11X17191   1.828   3.653   9.225  0.8428 -0.2702  0.4640
  154SAPE  H11Y17192   1.979   3.598   9.292  0.7858 -0.0506 -0.1358
  154SAPE  C31217193   1.998   3.772   9.156 -0.4664  0.4103 -0.0631
  154SAPE  H12X17194   2.038   3.692   9.091  0.7657 -0.6027  1.8516
  154SAPE  H12Y17195   2.084   3.824   9.203  0.0607 -0.0233 -0.5332
  154SAPE  C31317196   1.914   3.875   9.076 -0.0400  0.3067  0.0734
  154SAPE  H13X17197   1.892   3.965   9.137 -0.3333 -0.4108  1.0484
  154SAPE  H13Y17198   1.820   3.823   9.047  0.8091 -0.7504 -0.8789
  154SAPE  C31417199   1.974   3.911   8.939 -0.2625 -0.2440  0.0928
  154SAPE  H14X17200   1.990   3.824   8.872  3.1812 -0.5634  1.1393
  154SAPE  H14Y17201   2.069   3.962   8.965 -0.9563  1.1290  0.0361
  154SAPE  C31517202   1.903   4.021   8.855  0.9915 -0.6542 -0.4470
  154SAPE  H15X17203   1.892   4.118   8.907  3.0321  0.0379 -1.2218
  154SAPE  H15Y17204   1.805   3.971   8.835  1.7076 -1.2074 -2.8928
  154SAPE  C31617205   1.975   4.047   8.720 -0.4958  0.3541  0.4936
  154SAPE  H16X17206   1.894   4.086   8.654 -0.9349  0.5824  1.1549
  154SAPE  H16Y17207   1.992   3.945   8.681  0.4579  0.5495  0.3913
  154SAPE  C31717208   2.088   4.144   8.739 -0.0733  0.0177 -0.2310
  154SAPE  H17X17209   2.154   4.112   8.822  0.9653 -0.0129 -1.0487
  154SAPE  H17Y17210   2.044   4.240   8.774  0.4460 -0.3395  1.4926
  154SAPE  C31817211   2.166   4.157   8.606 -0.2323 -0.1567  0.2117
  154SAPE  H18X17212   2.223   4.064   8.583  0.8972  0.9040 -1.4788
  154SAPE  H18Y17213   2.240   4.240   8.602 -0.4225 -0.0321 -0.7879
  154SAPE  H18Z17214   2.103   4.170   8.516 -2.2609  1.6557  1.8094
  155SAPE     N17215   4.005   2.218  11.178 -0.5688 -0.4914 -0.4181
  155SAPE   HN117216   3.948   2.152  11.236 -0.3136 -0.1720  0.2053
  155SAPE   HN217217   4.012   2.306  11.234 -3.0278 -0.6307  0.2551
  155SAPE   HN317218   3.937   2.238  11.102 -1.9332  3.3651  1.5372
  155SAPE   C1217219   4.131   2.171  11.117 -0.3623 -0.0852  0.1155
  155SAPE  H12A17220   4.203   2.133  11.192 -0.0914  2.8324  1.4723
  155SAPE  H12B17221   4.184   2.261  11.079 -0.2957 -0.9598 -1.9982
  155SAPE   C1117222   4.098   2.062  11.021  0.0018 -0.3815 -0.2203
  155SAPE  H11A17223   4.039   1.978  11.063 -0.0971  0.2691  0.9738
  155SAPE  H11B17224   4.197   2.022  10.989 -0.5855 -1.8920 -0.2133
  155SAPE     P17225   3.894   2.133  10.866  0.4417 -0.0704  0.1104
  155SAPE   O1317226   3.811   2.014  10.882 -0.5038  0.5760  0.3019
  155SAPE   O1417227   3.845   2.254  10.935  0.2796 -0.7281 -0.0043
  155SAPE   O1217228   4.047   2.108  10.896 -0.1012 -0.0836  0.0787
  155SAPE   O1117229   3.903   2.163  10.716 -0.2479  0.1791  0.1896
  155SAPE    C117230   4.018   2.211  10.643  0.3400  0.0102 -0.1772
  155SAPE    HA17231   4.110   2.153  10.664  0.7596  1.7311  3.6930
  155SAPE    HB17232   3.992   2.216  10.535 -0.3727  3.1440  0.0273
  155SAPE    C217233   4.052   2.355  10.691 -0.3168  0.3129 -0.3204
  155SAPE    HS17234   4.066   2.363  10.800 -1.1192  1.5703 -0.2899
  155SAPE   O2117235   3.947   2.438  10.644 -0.2995  0.4310  0.2810
  155SAPE   C2117236   3.951   2.564  10.679  0.3387 -0.5224  0.0409
  155SAPE   O2217237   4.014   2.613  10.768  0.5664  0.8503  0.2743
  155SAPE   C2217238   3.866   2.645  10.588  0.1050  0.0614 -0.2962
  155SAPE   H2R17239   3.908   2.652  10.485 -1.7758 -0.5913 -1.1467
  155SAPE   H2S17240   3.769   2.592  10.584  1.0978 -1.9389  0.7552
  155SAPE    C317241   4.194   2.406  10.627  0.6361  0.0881  0.6280
  155SAPE    HX17242   4.271   2.331  10.656 -0.0482 -0.7294  0.4047
  155SAPE    HY17243   4.217   2.494  10.689 -0.5887  0.1876  0.9766
  155SAPE   O3117244   4.191   2.436  10.486 -0.1607  0.0539 -0.4929
  155SAPE   C3117245   4.254   2.346  10.415 -0.2862  0.1933 -0.0863
  155SAPE   O3217246   4.285   2.236  10.454  0.1191  0.6780 -0.7962
  155SAPE   C3217247   4.280   2.402  10.276  0.0851  0.4744  0.3852
  155SAPE   H2X17248   4.390   2.416  10.266  0.1082 -0.2027 -0.3772
  155SAPE   H2Y17249   4.232   2.502  10.278 -0.5175  0.1814  0.6254
  155SAPE   C2317250   3.857   2.790  10.632 -0.1804  0.5160 -0.3906
  155SAPE   H3R17251   3.957   2.839  10.630 -0.1560  0.5388  0.9664
  155SAPE   H3S17252   3.826   2.794  10.738  3.7673 -1.1166  1.0101
  155SAPE   C2417253   3.760   2.878  10.550 -0.4450  0.4220  0.2353
  155SAPE   H4R17254   3.794   2.893  10.445 -1.3262  2.3892  0.1786
  155SAPE   H4S17255   3.772   2.981  10.591  0.5965  1.3367 -2.1791
  155SAPE   C2517256   3.617   2.846  10.565  0.3380  0.1499  0.0994
  155SAPE   H5R17257   3.583   2.855  10.669  3.6420 -2.3901  1.6028
  155SAPE   C2617258   3.530   2.817  10.468  0.2886  0.1655  0.0599
  155SAPE   H6R17259   3.426   2.802  10.499  0.4307 -3.2934 -0.7709
  155SAPE   C2717260   3.551   2.806  10.318  0.4211 -0.1340  0.7713
  155SAPE   H7R17261   3.658   2.829  10.296 -0.1780  0.0599 -2.4612
  155SAPE   H7S17262   3.493   2.885  10.266  3.1984  0.9058 -0.9825
  155SAPE   C2817263   3.511   2.678  10.258  0.9377 -0.0688 -0.1989
  155SAPE   H8R17264   3.402   2.666  10.258  0.8686 -0.0267 -2.8776
  155SAPE   C2917265   3.579   2.576  10.201 -0.2038  0.1277 -0.2601
  155SAPE   H9R17266   3.532   2.484  10.166  1.1274  0.2118 -2.4471
  155SAPE  C21017267   3.728   2.580  10.180 -0.0098 -0.0492  0.0732
  155SAPE  H10R17268   3.776   2.647  10.255  1.1562 -0.5998 -0.1572
  155SAPE  H10S17269   3.762   2.626  10.085  0.5129 -0.0448  0.2611
  155SAPE  C21117270   3.786   2.445  10.186  0.4741 -0.1269  0.1627
  155SAPE  H11R17271   3.752   2.401  10.282 -1.9223 -0.5542 -0.8195
  155SAPE  C21217272   3.844   2.374  10.089 -0.0631  0.1139 -0.2465
  155SAPE  H12R17273   3.879   2.275  10.120  1.4223  0.2630 -1.3452
  155SAPE  C21317274   3.866   2.412   9.945 -0.0142 -0.3517  0.3336
  155SAPE  H13R17275   3.969   2.397   9.907 -1.1838 -0.9671 -2.9804
  155SAPE  H13S17276   3.835   2.517   9.930  0.5297 -0.2224  0.0700
  155SAPE  C21417277   3.763   2.329   9.867  0.9396 -0.1160  0.6939
  155SAPE  H14R17278   3.726   2.243   9.925 -1.5967  0.1164 -0.4215
  155SAPE  C21517279   3.731   2.335   9.732 -0.0943 -0.4233 -0.1875
  155SAPE  H15R17280   3.656   2.270   9.686  0.3364  0.7100 -2.6536
  155SAPE  C21617281   3.778   2.442   9.639  0.8190 -0.2977  0.0099
  155SAPE  H16R17282   3.848   2.523   9.667 -1.2259  1.9018 -0.9136
  155SAPE  H16S17283   3.686   2.490   9.600 -0.4601 -1.3234  1.6545
  155SAPE  C21717284   3.843   2.376   9.521 -0.1433  0.9900  0.6325
  155SAPE  H17R17285   3.780   2.305   9.464  2.0567  0.4203 -1.2530
  155SAPE  H17S17286   3.914   2.304   9.568 -2.5575 -0.7948  1.7397
  155SAPE  C21817287   3.935   2.457   9.427 -0.5540 -0.1899 -0.1559
  155SAPE  H18R17288   4.026   2.493   9.480  0.8402 -0.3291 -2.3463
  155SAPE  H18S17289   3.886   2.547   9.385  2.9545  0.1342 -4.1286
  155SAPE  C21917290   3.986   2.377   9.309 -0.4381 -0.1362 -0.6922
  155SAPE  H19R17291   3.898   2.340   9.252 -1.7243  0.0875  1.0599
  155SAPE  H19S17292   4.033   2.288   9.356 -0.4661 -1.6421 -3.3690
  155SAPE  C22017293   4.086   2.441   9.210  0.6564  0.8631 -0.2823
  155SAPE  H20R17294   4.025   2.481   9.126 -0.5901  0.7626  0.5584
  155SAPE  H20S17295   4.152   2.361   9.170  0.2866  0.0040  0.8053
  155SAPE  H20T17296   4.138   2.533   9.244  3.7307 -0.3888 -1.2397
  155SAPE   C3317297   4.226   2.315  10.155  0.5383 -0.0118  0.2260
  155SAPE   H3X17298   4.211   2.395  10.079  0.0737 -0.3466 -0.0454
  155SAPE   H3Y17299   4.123   2.282  10.181  0.9797 -2.1634 -0.5296
  155SAPE   C3417300   4.305   2.202  10.098  0.0329  0.4926  0.4690
  155SAPE   H4X17301   4.304   2.116  10.168 -0.9292  0.6575  0.6589
  155SAPE   H4Y17302   4.415   2.222  10.102  0.5036 -1.3236 -1.3811
  155SAPE   C3517303   4.281   2.157   9.952 -0.2870  0.9763  0.6438
  155SAPE   H5X17304   4.172   2.140   9.941 -0.3437 -0.4654  2.8178
  155SAPE   H5Y17305   4.337   2.061   9.939 -1.4396  0.3379  0.2215
  155SAPE   C3617306   4.323   2.258   9.841 -0.2530  0.1646 -0.5043
  155SAPE   H6X17307   4.430   2.275   9.867 -0.2523  0.6005 -0.8040
  155SAPE   H6Y17308   4.260   2.347   9.862  0.9566  0.6486  1.4271
  155SAPE   C3717309   4.317   2.206   9.698  0.2987  0.4589  0.0477
  155SAPE   H7X17310   4.213   2.213   9.660  0.8331 -1.5089 -2.0209
  155SAPE   H7Y17311   4.324   2.095   9.697  0.8355  0.4908 -0.5298
  155SAPE   C3817312   4.419   2.271   9.608  0.1283 -0.0999  0.0448
  155SAPE   H8X17313   4.448   2.192   9.535  0.5456  0.5650 -0.5215
  155SAPE   H8Y17314   4.507   2.309   9.664 -0.2589  0.1900  0.4636
  155SAPE   C3917315   4.365   2.386   9.518 -0.1723  0.1952  0.3837
  155SAPE   H9X17316   4.329   2.465   9.588  0.7236 -1.8637  3.3973
  155SAPE   H9Y17317   4.270   2.363   9.465 -0.1010 -0.7450  0.6337
  155SAPE  C31017318   4.454   2.448   9.411 -0.3551  0.6245 -0.0576
  155SAPE  H10X17319   4.550   2.478   9.458 -0.1428  1.9922 -1.3137
  155SAPE  H10Y17320   4.403   2.538   9.370 -0.4442  1.0044  0.8564
  155SAPE  C31117321   4.474   2.352   9.289 -0.2968  0.6478  0.4873
  155SAPE  H11X17322   4.388   2.283   9.271 -1.0797  1.4267  1.1233
  155SAPE  H11Y17323   4.564   2.288   9.301 -0.1081  1.0140  1.0524
  155SAPE  C31217324   4.505   2.442   9.165  0.1599 -0.1700  0.2168
  155SAPE  H12X17325   4.586   2.506   9.208  0.6410 -0.6521  0.0366
  155SAPE  H12Y17326   4.416   2.499   9.131  1.0209 -0.1456 -2.1982
  155SAPE  C31317327   4.557   2.354   9.046 -0.3534 -0.2153 -0.1603
  155SAPE  H13X17328   4.467   2.309   8.999 -0.9072 -0.7192  1.3195
  155SAPE  H13Y17329   4.620   2.273   9.089  0.9531  1.1439  0.5779
  155SAPE  C31417330   4.643   2.443   8.955 -0.1920 -0.3024  0.1449
  155SAPE  H14X17331   4.692   2.378   8.879  0.0523 -1.4451  1.2553
  155SAPE  H14Y17332   4.712   2.488   9.029  1.6855 -0.2333 -1.5457
  155SAPE  C31517333   4.559   2.545   8.886 -0.4016  0.3421  0.0192
  155SAPE  H15X17334   4.497   2.614   8.947 -0.1238  0.9034 -0.3177
  155SAPE  H15Y17335   4.493   2.485   8.820  0.3605 -2.0307  1.3009
  155SAPE  C31617336   4.642   2.633   8.781 -0.1433  0.0122 -0.1415
  155SAPE  H16X17337   4.676   2.566   8.698  0.2770 -0.0503  0.0815
  155SAPE  H16Y17338   4.732   2.672   8.833 -0.3731  1.5045 -0.8174
  155SAPE  C31717339   4.574   2.761   8.724 -0.1805 -0.2409 -0.3716
  155SAPE  H17X17340   4.541   2.829   8.806 -0.7755 -0.4846 -0.4041
  155SAPE  H17Y17341   4.479   2.737   8.673 -1.6166  1.9337  1.1185
  155SAPE  C31817342   4.665   2.841   8.634  0.7450  0.2368  0.1794
  155SAPE  H18X17343   4.611   2.918   8.575 -0.6558 -1.0027 -0.2116
  155SAPE  H18Y17344   4.706   2.770   8.559 -0.6212 -1.9021  1.3375
  155SAPE  H18Z17345   4.742   2.892   8.696  0.5784  1.2163 -0.4145
  156SAPE     N17346   0.036   1.555  10.602 -0.8699 -0.4817  0.0365
  156SAPE   HN117347   0.083   1.501  10.526  0.1110  1.2476 -0.6645
  156SAPE   HN217348   0.047   1.514  10.697  1.0389 -0.4355 -0.1167
  156SAPE   HN317349  -0.061   1.553  10.564 -0.8194 -0.2979 -0.1040
  156SAPE   C1217350   0.077   1.701  10.606  0.3088 -1.1820  0.1619
  156SAPE  H12A17351   0.188   1.705  10.607  0.3159 -0.0598 -1.5532
  156SAPE  H12B17352   0.044   1.736  10.706 -1.5789  1.8249 -1.3727
  156SAPE   C1117353   0.026   1.778  10.486  0.0209 -0.1004 -0.0123
  156SAPE  H11A17354   0.023   1.885  10.512 -0.5589 -0.0221 -0.3819
  156SAPE  H11B17355  -0.080   1.757  10.461 -0.7635  2.8993  0.4165
  156SAPE     P17356   0.218   1.859  10.326  0.5545  0.5129 -0.1245
  156SAPE   O1317357   0.170   1.999  10.334 -0.2204 -0.2209  0.2882
  156SAPE   O1417358   0.345   1.830  10.398  0.6927 -0.1796 -0.1618
  156SAPE   O1217359   0.100   1.756  10.368 -0.1393  0.0417  0.7920
  156SAPE   O1117360   0.239   1.820  10.173  0.1155  0.1891  0.2301
  156SAPE    C117361   0.139   1.858  10.078 -0.7008  0.3069 -0.2852
  156SAPE    HA17362   0.082   1.766  10.053 -1.9241  1.5893 -2.5239
  156SAPE    HB17363   0.062   1.928  10.116  0.3409  1.3792 -0.1051
  156SAPE    C217364   0.203   1.913   9.954 -0.2485 -0.3090 -0.1906
  156SAPE    HS17365   0.129   1.972   9.896 -0.3544 -0.8740 -0.6368
  156SAPE   O2117366   0.267   1.818   9.875 -1.0405  0.2667  0.8150
  156SAPE   C2117367   0.194   1.739   9.807  0.5301  0.1439 -0.0802
  156SAPE   O2217368   0.072   1.747   9.791 -0.1328 -0.6219 -0.0780
  156SAPE   C2217369   0.293   1.657   9.724 -0.3317  0.6920  0.1573
  156SAPE   H2R17370   0.367   1.725   9.675  1.4429 -2.3442 -1.6494
  156SAPE   H2S17371   0.347   1.587   9.792  1.2285 -0.4909 -2.1666
  156SAPE    C317372   0.309   2.014   9.996  0.2384  0.7842 -0.2644
  156SAPE    HX17373   0.402   1.964  10.031  1.0793  0.5651 -2.6049
  156SAPE    HY17374   0.277   2.067  10.089  1.3064 -0.4414  0.8351
  156SAPE   O3117375   0.338   2.105   9.887 -0.8233  0.1289  0.3770
  156SAPE   C3117376   0.444   2.181   9.906 -0.4350 -0.1114  0.1610
  156SAPE   O3217377   0.514   2.180  10.008  0.1822 -0.0692 -0.1851
  156SAPE   C3217378   0.465   2.272   9.786 -0.3733 -0.5046 -0.4076
  156SAPE   H2X17379   0.551   2.339   9.804 -0.1086 -0.8121 -0.5223
  156SAPE   H2Y17380   0.374   2.337   9.778  0.3644  1.3369  3.7044
  156SAPE   C2317381   0.231   1.594   9.599 -0.7153 -0.6718 -0.5330
  156SAPE   H3R17382   0.192   1.676   9.535  3.3345  0.8848 -1.3143
  156SAPE   H3S17383   0.149   1.526   9.630  2.1341 -3.2661  2.0566
  156SAPE   C2417384   0.323   1.499   9.530  0.4814  0.9188  0.6252
  156SAPE   H4R17385   0.345   1.419   9.604 -0.4061  2.0064  2.1337
  156SAPE   H4S17386   0.417   1.547   9.496  1.1589 -0.9514 -0.2699
  156SAPE   C2517387   0.255   1.428   9.420  0.0847 -0.0582 -0.1363
  156SAPE   H5R17388   0.147   1.418   9.436  0.0696  1.0266  0.5729
  156SAPE   C2617389   0.310   1.388   9.304  0.5281 -0.1370 -0.2052
  156SAPE   H6R17390   0.237   1.358   9.227 -1.7409  3.3658  0.3504
  156SAPE   C2717391   0.455   1.413   9.258 -0.2701  0.7429 -0.2427
  156SAPE   H7R17392   0.499   1.483   9.332  0.7534  0.2750 -0.3983
  156SAPE   H7S17393   0.451   1.455   9.155 -0.7765  2.1505  0.3280
  156SAPE   C2817394   0.533   1.283   9.262 -0.4356 -0.3224  0.4124
  156SAPE   H8R17395   0.514   1.208   9.341  1.8175 -1.3023  0.1009
  156SAPE   C2917396   0.629   1.244   9.172 -0.8772  0.6757 -0.0807
  156SAPE   H9R17397   0.678   1.150   9.200 -3.9186 -0.4705  1.8558
  156SAPE  C21017398   0.683   1.319   9.052  0.1335 -0.0726  0.0999
  156SAPE  H10R17399   0.598   1.375   9.008 -0.8530 -3.3176 -2.5986
  156SAPE  H10S17400   0.718   1.246   8.976  1.1812 -0.1982  0.6782
  156SAPE  C21117401   0.795   1.414   9.090 -0.9814 -0.2133 -0.6145
  156SAPE  H11R17402   0.774   1.466   9.184  0.2925  0.0621 -0.4668
  156SAPE  C21217403   0.908   1.433   9.009  0.0791  0.6843 -0.3957
  156SAPE  H12R17404   0.997   1.484   9.049 -1.1394  1.5004  1.3664
  156SAPE  C21317405   0.935   1.355   8.877 -0.4378 -0.2715 -0.1371
  156SAPE  H13R17406   0.968   1.431   8.803 -0.9753 -0.4166 -0.5334
  156SAPE  H13S17407   0.845   1.314   8.826 -1.2636  0.7688  0.4550
  156SAPE  C21417408   1.027   1.243   8.894 -1.1489  0.1914  0.5344
  156SAPE  H14R17409   0.986   1.156   8.948  1.3342  0.4474  3.0772
  156SAPE  C21517410   1.161   1.244   8.857  0.4792  0.2571 -0.1950
  156SAPE  H15R17411   1.216   1.149   8.867  0.9760  0.2723 -2.3312
  156SAPE  C21617412   1.236   1.354   8.788  0.0366  0.0534 -0.1664
  156SAPE  H16R17413   1.337   1.356   8.834 -1.0985 -4.0296  3.0916
  156SAPE  H16S17414   1.191   1.454   8.808  2.7806  1.3944 -0.1990
  156SAPE  C21717415   1.248   1.334   8.636 -0.5838  0.4019 -1.1595
  156SAPE  H17R17416   1.139   1.328   8.613 -1.2656  0.1043  1.7471
  156SAPE  H17S17417   1.311   1.243   8.625  2.2211  2.0472  0.1904
  156SAPE  C21817418   1.303   1.453   8.564 -0.3068 -0.3690 -0.1361
  156SAPE  H18R17419   1.412   1.435   8.583 -0.5682 -1.3705  0.5062
  156SAPE  H18S17420   1.280   1.551   8.611 -2.1890 -0.9802  0.2748
  156SAPE  C21917421   1.266   1.462   8.418 -0.9112  0.3865 -0.5045
  156SAPE  H19R17422   1.155   1.466   8.417 -0.9170  1.3862  0.7593
  156SAPE  H19S17423   1.308   1.371   8.370  1.9176  0.2384  1.9527
  156SAPE  C22017424   1.317   1.590   8.354 -0.2301  0.2781 -0.0986
  156SAPE  H20R17425   1.294   1.677   8.419 -0.6161 -1.3430  2.0802
  156SAPE  H20S17426   1.270   1.598   8.254 -0.8550 -0.4473  0.1244
  156SAPE  H20T17427   1.427   1.574   8.350 -0.3089 -0.2456 -0.3192
  156SAPE   C3317428   0.486   2.204   9.652  0.1495 -0.3213  0.2984
  156SAPE   H3X17429   0.402   2.150   9.605 -0.4434  1.7658 -1.1944
  156SAPE   H3Y17430   0.567   2.128   9.658 -0.3584 -0.7562  3.1157
  156SAPE   C3417431   0.523   2.308   9.540  0.1507 -0.2005  0.0931
  156SAPE   H4X17432   0.605   2.272   9.473  0.3502  0.1584  0.1409
  156SAPE   H4Y17433   0.560   2.396   9.597 -0.5797 -1.3655  2.4940
  156SAPE   C3517434   0.404   2.350   9.454  0.1235  0.2361  0.2238
  156SAPE   H5X17435   0.421   2.450   9.409 -0.8165 -0.3901 -1.5973
  156SAPE   H5Y17436   0.314   2.356   9.520 -0.1279 -2.8953  0.3160
  156SAPE   C3617437   0.387   2.254   9.335 -0.1255 -0.5501 -0.4302
  156SAPE   H6X17438   0.348   2.154   9.365  1.8208 -1.3348 -0.3474
  156SAPE   H6Y17439   0.482   2.236   9.280 -0.0661 -1.8727  0.0641
  156SAPE   C3717440   0.290   2.315   9.230 -0.0531  0.2237  0.1662
  156SAPE   H7X17441   0.356   2.397   9.195  0.6391 -0.9498 -1.4186
  156SAPE   H7Y17442   0.197   2.345   9.284 -1.0174  0.3302 -1.4936
  156SAPE   C3817443   0.255   2.234   9.104 -0.5940  0.4462 -0.3048
  156SAPE   H8X17444   0.161   2.277   9.064 -1.4709  0.0499  1.2350
  156SAPE   H8Y17445   0.227   2.132   9.137 -0.2788  0.4688  0.0446
  156SAPE   C3917446   0.359   2.237   8.990  0.1252 -0.3994 -0.2746
  156SAPE   H9X17447   0.463   2.209   9.019 -0.3129 -1.6699  0.1208
  156SAPE   H9Y17448   0.349   2.331   8.932 -1.7043 -0.8384 -0.7395
  156SAPE  C31017449   0.338   2.138   8.869  0.5250 -0.3465  0.1280
  156SAPE  H10X17450   0.384   2.044   8.907  0.1110  0.5106  2.9262
  156SAPE  H10Y17451   0.396   2.173   8.781  0.4785 -0.6490 -0.0235
  156SAPE  C31117452   0.192   2.093   8.845 -0.1370 -0.2160 -0.0787
  156SAPE  H11X17453   0.130   2.175   8.803  0.8363  0.5977  0.0565
  156SAPE  H11Y17454   0.151   2.070   8.945  0.4523 -3.2792 -0.4311
  156SAPE  C31217455   0.194   1.978   8.750  0.3914  0.7723  0.0611
  156SAPE  H12X17456   0.091   1.935   8.749  0.6050  0.0618  2.2903
  156SAPE  H12Y17457   0.268   1.898   8.769  1.4416  0.8691 -3.0256
  156SAPE  C31317458   0.213   2.023   8.601  0.4038  0.8749 -0.2952
  156SAPE  H13X17459   0.306   2.083   8.600  2.2060 -1.7502  0.6686
  156SAPE  H13Y17460   0.123   2.081   8.570  1.1548  1.7776 -0.8049
  156SAPE  C31417461   0.228   1.906   8.500  0.9266  0.7293  0.0180
  156SAPE  H14X17462   0.147   1.829   8.505  0.3062  1.4309  1.1377
  156SAPE  H14Y17463   0.325   1.862   8.530  0.4599  0.0101  0.5101
  156SAPE  C31517464   0.219   1.947   8.355 -0.1143  0.0954 -1.1572
  156SAPE  H15X17465   0.307   2.013   8.341  0.3524 -0.5661 -1.4440
  156SAPE  H15Y17466   0.131   2.013   8.340 -0.9546 -1.2136 -2.2823
  156SAPE  C31617467   0.232   1.829   8.258  0.0500 -0.0150  0.1394
  156SAPE  H16X17468   0.245   1.877   8.159  1.8599  2.0213  1.2684
  156SAPE  H16Y17469   0.135   1.774   8.264 -0.0021 -0.0484 -0.9297
  156SAPE  C31717470   0.339   1.730   8.281 -0.6845  1.1398  0.5573
  156SAPE  H17X17471   0.327   1.685   8.382  1.9041 -0.5399  0.1973
  156SAPE  H17Y17472   0.442   1.770   8.277 -0.1172 -0.3222  0.1357
  156SAPE  C31817473   0.315   1.608   8.188 -0.8649 -0.7529  0.5223
  156SAPE  H18X17474   0.411   1.594   8.134 -0.8253 -1.2659  0.7239
  156SAPE  H18Y17475   0.239   1.632   8.111 -0.4554 -2.8377 -0.6222
  156SAPE  H18Z17476   0.301   1.516   8.249  3.3202 -0.9631  1.5223
  157SAPE     N17477   1.160   0.653  11.052 -0.5341  0.1537  0.1829
  157SAPE   HN117478   1.067   0.688  11.080 -0.9338 -1.0582  0.4359
  157SAPE   HN217479   1.154   0.626  10.951 -0.1568  1.2776 -0.1562
  157SAPE   HN317480   1.181   0.568  11.107 -1.6924  0.4207  1.0633
  157SAPE   C1217481   1.265   0.759  11.073 -0.4301  0.1012  0.2822
  157SAPE  H12A17482   1.368   0.716  11.077  1.1954  3.6877  0.6348
  157SAPE  H12B17483   1.241   0.811  11.168  1.4715  0.6054  0.5235
  157SAPE   C1117484   1.269   0.861  10.955 -0.5918  0.6036 -0.0134
  157SAPE  H11A17485   1.303   0.807  10.864 -2.0344 -1.9580  0.8505
  157SAPE  H11B17486   1.350   0.925  10.996  0.4021  0.5735 -1.8106
  157SAPE     P17487   1.137   1.036  10.808 -0.0471  0.1943  0.1410
  157SAPE   O1317488   1.007   1.111  10.818 -0.8623  0.3944 -0.1766
  157SAPE   O1417489   1.256   1.126  10.796  0.2898  0.0520 -0.3660
  157SAPE   O1217490   1.160   0.950  10.944 -0.1442 -0.7846  0.8007
  157SAPE   O1117491   1.141   0.928  10.683 -0.2677  0.0519 -0.1588
  157SAPE    C117492   1.094   0.981  10.557  0.7646 -0.7344 -0.5552
  157SAPE    HA17493   0.983   0.972  10.556  0.5791  0.6595  1.4407
  157SAPE    HB17494   1.123   1.086  10.536 -1.3551  0.4071  1.7095
  157SAPE    C217495   1.135   0.894  10.435  0.7111 -0.2020  0.4013
  157SAPE    HS17496   1.125   0.790  10.473 -1.4502 -0.4183 -0.6357
  157SAPE   O2117497   1.271   0.920  10.395  0.3628 -0.4540 -0.5646
  157SAPE   C2117498   1.343   0.820  10.364 -0.6264 -0.1755 -0.8802
  157SAPE   O2217499   1.314   0.701  10.368  0.6818 -0.1483 -0.1375
  157SAPE   C2217500   1.480   0.872  10.310  0.7025  0.3588  1.0022
  157SAPE   H2R17501   1.496   0.979  10.336  0.8097  1.0225 -1.5300
  157SAPE   H2S17502   1.550   0.802  10.362 -1.0905 -0.5245  2.3706
  157SAPE    C317503   1.044   0.907  10.306 -0.3249  0.0008  0.3060
  157SAPE    HX17504   1.058   1.003  10.251  1.3675 -1.1855 -1.4980
  157SAPE    HY17505   0.937   0.897  10.335 -0.0481  1.0822  1.8036
  157SAPE   O3117506   1.079   0.806  10.211  0.9784 -0.2801 -0.1142
  157SAPE   C3117507   1.003   0.698  10.201 -0.7618  0.1749  0.5007
  157SAPE   O3217508   0.908   0.666  10.267  0.5127  0.3033  0.0840
  157SAPE   C3217509   1.047   0.622  10.069 -0.4500  0.0756 -0.3407
  157SAPE   H2X17510   0.960   0.555  10.051 -2.3382  2.4701 -0.5269
  157SAPE   H2Y17511   1.145   0.575  10.092  0.1495  1.6817  0.5681
  157SAPE   C2317512   1.487   0.859  10.156 -0.0607  0.1373 -0.1828
  157SAPE   H3R17513   1.446   0.759  10.131  0.8909 -0.6914  1.4441
  157SAPE   H3S17514   1.597   0.846  10.143  0.4354  1.1117  2.5093
  157SAPE   C2417515   1.418   0.971  10.071 -0.3512 -0.1973 -0.3051
  157SAPE   H4R17516   1.311   0.966  10.100  0.1644 -0.2439  1.7422
  157SAPE   H4S17517   1.434   0.929   9.969 -1.0281 -2.4495  0.4779
  157SAPE   C2517518   1.485   1.102  10.106 -0.4401 -0.2746  0.3293
  157SAPE   H5R17519   1.495   1.137  10.209  1.3387 -3.3546  1.3462
  157SAPE   C2617520   1.539   1.190  10.017 -0.6107 -0.1369  0.2587
  157SAPE   H6R17521   1.575   1.292  10.036 -0.9903  0.1121 -0.3229
  157SAPE   C2717522   1.558   1.174   9.873  1.0991  0.1436  0.1753
  157SAPE   H7R17523   1.610   1.079   9.846  2.5606  0.9617  0.0179
  157SAPE   H7S17524   1.634   1.249   9.842  0.9299  0.4728  0.5538
  157SAPE   C2817525   1.435   1.187   9.782 -0.2661 -0.8570  0.3858
  157SAPE   H8R17526   1.348   1.234   9.831  1.0373  1.1116  0.9370
  157SAPE   C2917527   1.436   1.165   9.641 -0.5709 -0.9954  0.0954
  157SAPE   H9R17528   1.342   1.183   9.587 -0.2105  3.8204  0.6595
  157SAPE  C21017529   1.557   1.110   9.569 -0.3402 -0.4492 -0.4083
  157SAPE  H10R17530   1.585   1.015   9.619  1.2605  0.8793  1.3506
  157SAPE  H10S17531   1.641   1.172   9.606  0.4705 -0.8684 -1.4991
  157SAPE  C21117532   1.540   1.093   9.423 -0.0913 -0.3219 -0.1524
  157SAPE  H11R17533   1.469   1.018   9.385 -0.6117  0.3141 -0.4559
  157SAPE  C21217534   1.617   1.165   9.339  0.1360  0.0909  0.1336
  157SAPE  H12R17535   1.593   1.161   9.231 -0.6514 -0.6199  0.3304
  157SAPE  C21317536   1.730   1.264   9.363  0.0669  0.7840 -0.0758
  157SAPE  H13R17537   1.826   1.210   9.345  0.4846  1.3885  0.3235
  157SAPE  H13S17538   1.730   1.303   9.467 -0.4025  0.1085  0.1836
  157SAPE  C21417539   1.715   1.386   9.270  0.3700  0.2054 -0.0257
  157SAPE  H14R17540   1.642   1.460   9.306 -1.4798 -1.4997 -0.0927
  157SAPE  C21517541   1.774   1.406   9.150  0.0595  0.3634 -0.1326
  157SAPE  H15R17542   1.747   1.497   9.096  1.0922  0.1805 -0.9819
  157SAPE  C21617543   1.867   1.311   9.089 -0.1351  0.6132 -0.7957
  157SAPE  H16R17544   1.870   1.214   9.143 -2.5952 -0.7076 -2.7845
  157SAPE  H16S17545   1.971   1.351   9.085  0.0589  0.6045  1.9484
  157SAPE  C21717546   1.821   1.251   8.956 -0.0687  0.3920  0.7786
  157SAPE  H17R17547   1.817   1.340   8.889  0.5815 -0.1915 -0.0333
  157SAPE  H17S17548   1.722   1.201   8.968  0.7149 -2.0627 -1.9992
  157SAPE  C21817549   1.919   1.150   8.896 -0.2413 -0.6442 -0.2114
  157SAPE  H18R17550   1.914   1.062   8.963 -0.0526 -0.9524 -0.5911
  157SAPE  H18S17551   2.020   1.196   8.893 -0.8757  0.8718  0.6829
  157SAPE  C21917552   1.874   1.087   8.772 -0.1057 -0.3791  0.6657
  157SAPE  H19R17553   1.827   1.160   8.702 -0.4156 -0.3954  0.8524
  157SAPE  H19S17554   1.785   1.027   8.800  1.1596 -2.5616  0.2397
  157SAPE  C22017555   1.971   0.997   8.698 -0.4085  0.7057 -0.2161
  157SAPE  H20R17556   1.931   0.975   8.597  1.6786  1.4144 -1.2420
  157SAPE  H20S17557   1.996   0.904   8.755 -0.6163  0.9710  0.3213
  157SAPE  H20T17558   2.072   1.033   8.671  0.8852 -2.0736  0.5073
  157SAPE   C3317559   1.074   0.719   9.958 -0.0352 -0.1930 -0.1754
  157SAPE   H3X17560   1.155   0.791   9.982  0.1078 -0.5056  0.2984
  157SAPE   H3Y17561   0.982   0.779   9.942  1.2060  1.7830 -0.3294
  157SAPE   C3417562   1.103   0.647   9.832  0.0426 -0.5559 -0.0539
  157SAPE   H4X17563   1.008   0.596   9.805 -0.8229  0.8657  0.1757
  157SAPE   H4Y17564   1.193   0.583   9.844  1.1720  1.2438  1.5395
  157SAPE   C3517565   1.121   0.735   9.707  0.4708  0.2139 -0.1358
  157SAPE   H5X17566   1.223   0.778   9.704  0.0641  1.4017  1.4067
  157SAPE   H5Y17567   1.053   0.822   9.719  2.3287  1.5985  0.8572
  157SAPE   C3617568   1.101   0.660   9.581  0.1697  0.3489  0.9519
  157SAPE   H6X17569   1.001   0.612   9.574  0.7589 -0.7863 -0.0897
  157SAPE   H6Y17570   1.171   0.574   9.572 -1.7493 -1.3327  1.5281
  157SAPE   C3717571   1.133   0.753   9.455 -0.0055  0.0644 -0.1621
  157SAPE   H7X17572   1.241   0.774   9.467  1.0687 -4.7748  0.4528
  157SAPE   H7Y17573   1.083   0.851   9.469  0.4806  0.3643 -0.5148
  157SAPE   C3817574   1.100   0.694   9.319 -0.5954 -0.6970 -0.3455
  157SAPE   H8X17575   0.998   0.733   9.298  0.9519  3.6572 -0.9994
  157SAPE   H8Y17576   1.103   0.583   9.313  0.0861 -0.6477 -1.4184
  157SAPE   C3917577   1.172   0.755   9.205  0.4504  1.4073  0.7403
  157SAPE   H9X17578   1.130   0.708   9.114  0.0723 -1.2845  2.2122
  157SAPE   H9Y17579   1.275   0.713   9.212 -0.3291 -0.5760  0.6785
  157SAPE  C31017580   1.193   0.911   9.204  0.3644 -0.2527  0.1014
  157SAPE  H10X17581   1.257   0.946   9.288  3.0430 -1.5773 -1.2492
  157SAPE  H10Y17582   1.097   0.966   9.196  0.9463  0.6292 -1.0549
  157SAPE  C31117583   1.275   0.952   9.078 -0.4674  0.3153  0.4504
  157SAPE  H11X17584   1.274   1.063   9.073 -0.8942  0.2496 -2.7019
  157SAPE  H11Y17585   1.216   0.897   9.002 -1.4218 -1.8398  2.6264
  157SAPE  C31217586   1.418   0.900   9.066 -0.6507  0.2392  0.4986
  157SAPE  H12X17587   1.411   0.795   9.031 -2.4263  0.4099  0.2817
  157SAPE  H12Y17588   1.460   0.896   9.169 -0.3391 -0.7906  0.3435
  157SAPE  C31317589   1.515   0.990   8.990  0.4721 -0.1152 -0.1536
  157SAPE  H13X17590   1.611   0.941   9.017 -1.6253 -2.7239  3.3817
  157SAPE  H13Y17591   1.527   1.091   9.034  3.7510 -0.9320  1.1185
  157SAPE  C31417592   1.483   0.986   8.835  0.7812 -0.6510 -0.9800
  157SAPE  H14X17593   1.548   1.057   8.779 -0.1877  0.4480 -0.7507
  157SAPE  H14Y17594   1.375   1.008   8.824  0.6939 -0.2321  0.5140
  157SAPE  C31517595   1.510   0.850   8.773 -0.2964  0.8985 -0.5014
  157SAPE  H15X17596   1.444   0.770   8.814 -0.2701  1.0572 -0.1424
  157SAPE  H15Y17597   1.617   0.825   8.788 -0.3553  0.2683 -1.0860
  157SAPE  C31617598   1.483   0.850   8.617  0.1212  0.7896  0.9180
  157SAPE  H16X17599   1.548   0.923   8.564  0.3483  0.4723  0.7514
  157SAPE  H16Y17600   1.376   0.880   8.611 -0.3161 -0.6499  0.9749
  157SAPE  C31717601   1.496   0.715   8.545 -0.2034 -0.2236 -0.3009
  157SAPE  H17X17602   1.442   0.634   8.598  0.6005  0.3386  1.4890
  157SAPE  H17Y17603   1.601   0.680   8.553  0.4319  1.4045 -1.0954
  157SAPE  C31817604   1.468   0.716   8.393 -0.5763  0.1388 -0.3144
  157SAPE  H18X17605   1.552   0.762   8.336  0.5923 -0.7760  0.5978
  157SAPE  H18Y17606   1.372   0.767   8.371 -0.2198  1.0103  0.0814
  157SAPE  H18Z17607   1.461   0.613   8.353  1.1072 -0.5642  1.0673
  158SAPE     N17608   1.865   2.704  10.840 -0.2968  0.3057 -0.2369
  158SAPE   HN117609   1.968   2.722  10.838 -0.3310  0.6689  0.7460
  158SAPE   HN217610   1.847   2.655  10.751  0.1313  1.2688 -0.8781
  158SAPE   HN317611   1.818   2.796  10.829 -0.3374  0.8311  3.0717
  158SAPE   C1217612   1.821   2.628  10.965 -0.1868  0.7714 -0.0348
  158SAPE  H12A17613   1.712   2.643  10.969 -0.0217  1.7181  1.5867
  158SAPE  H12B17614   1.866   2.686  11.048 -1.3041 -1.2592  2.0968
  158SAPE   C1117615   1.869   2.488  10.951  0.3425  1.2547 -0.6083
  158SAPE  H11A17616   1.796   2.438  10.884  0.5722  1.1682 -0.7960
  158SAPE  H11B17617   1.870   2.431  11.047 -0.4715  3.7629  0.9864
  158SAPE     P17618   2.069   2.342  10.855 -0.0122 -0.1474  0.1662
  158SAPE   O1317619   2.171   2.302  10.958  0.4726 -0.4537  0.4585
  158SAPE   O1417620   1.972   2.242  10.817 -0.1322  0.1652  0.5429
  158SAPE   O1217621   2.001   2.475  10.895 -0.5897  0.1149  0.2464
  158SAPE   O1117622   2.136   2.388  10.723  0.0701 -0.6049  0.2499
  158SAPE    C117623   2.190   2.523  10.705 -0.7120 -0.1615 -0.7873
  158SAPE    HA17624   2.112   2.586  10.657 -0.5889  0.3686 -0.2959
  158SAPE    HB17625   2.220   2.572  10.800 -0.8309 -0.7672 -0.4309
  158SAPE    C217626   2.309   2.524  10.606  0.1826  0.0267 -1.0153
  158SAPE    HS17627   2.348   2.628  10.607 -1.6572  0.7374 -0.1923
  158SAPE   O2117628   2.277   2.492  10.473 -0.6381 -0.8958  0.3962
  158SAPE   C2117629   2.200   2.578  10.407  0.0483 -0.4255  0.3763
  158SAPE   O2217630   2.135   2.671  10.457  0.2127 -0.3107  0.2458
  158SAPE   C2217631   2.224   2.556  10.262  0.2299  0.2108 -0.0483
  158SAPE   H2R17632   2.265   2.454  10.247 -1.1035 -0.3505 -0.0465
  158SAPE   H2S17633   2.131   2.568  10.203  0.0810 -0.1404  0.1097
  158SAPE    C317634   2.412   2.432  10.660 -0.3354 -0.3468 -0.3324
  158SAPE    HX17635   2.378   2.328  10.642 -1.3008  0.0152 -0.6946
  158SAPE    HY17636   2.412   2.435  10.771 -0.3977 -1.7365 -0.2749
  158SAPE   O3117637   2.549   2.465  10.611  0.1075  0.3806  0.1362
  158SAPE   C3117638   2.584   2.393  10.506 -0.3001  0.4115 -0.0330
  158SAPE   O3217639   2.514   2.304  10.454  0.0743 -0.3659 -0.4823
  158SAPE   C3217640   2.718   2.441  10.454  0.0638  0.1995 -0.1021
  158SAPE   H2X17641   2.788   2.356  10.443  0.1740  0.2797 -0.0274
  158SAPE   H2Y17642   2.768   2.495  10.537 -1.1492  0.0692  0.7434
  158SAPE   C2317643   2.318   2.655  10.204 -0.6855  0.0641  0.3477
  158SAPE   H3R17644   2.409   2.648  10.269 -1.1806  1.4950  1.2472
  158SAPE   H3S17645   2.288   2.762  10.201  0.8227  0.5119 -3.3522
  158SAPE   C2417646   2.356   2.612  10.065  0.0453  0.0848  0.0930
  158SAPE   H4R17647   2.379   2.503  10.068  1.6476  0.3437 -1.0650
  158SAPE   H4S17648   2.440   2.678  10.033  0.7008 -1.0148 -0.5042
  158SAPE   C2517649   2.243   2.633   9.967  0.3824 -0.3195  0.7034
  158SAPE   H5R17650   2.140   2.639  10.005 -0.3496  2.0792 -1.3334
  158SAPE   C2617651   2.253   2.630   9.830  0.6034  0.5519  0.3798
  158SAPE   H6R17652   2.161   2.646   9.772  0.5825 -1.2328 -0.1372
  158SAPE   C2717653   2.378   2.605   9.753  0.1520  0.1393  0.2088
  158SAPE   H7R17654   2.369   2.509   9.697  0.9448  0.5649 -0.6840
  158SAPE   H7S17655   2.464   2.584   9.821  1.0710 -1.0214 -1.2276
  158SAPE   C2817656   2.390   2.719   9.661 -0.0856 -0.2055 -0.2835
  158SAPE   H8R17657   2.367   2.820   9.700  0.5251  0.0948 -0.6906
  158SAPE   C2917658   2.467   2.718   9.558 -0.3831  0.4524 -0.2496
  158SAPE   H9R17659   2.475   2.804   9.490 -3.2882  0.9769 -0.0798
  158SAPE  C21017660   2.555   2.601   9.515  0.0836  0.1572 -0.9515
  158SAPE  H10R17661   2.560   2.526   9.597  0.2327  2.0434  0.8521
  158SAPE  H10S17662   2.658   2.642   9.507  0.2276 -0.2173 -1.0322
  158SAPE  C21117663   2.511   2.538   9.385 -0.4703 -0.1788  0.4584
  158SAPE  H11R17664   2.403   2.517   9.378 -1.0305  2.6538 -0.7723
  158SAPE  C21217665   2.590   2.493   9.288 -0.6634  0.2915 -0.2869
  158SAPE  H12R17666   2.547   2.448   9.198 -0.8158  3.2316 -1.7957
  158SAPE  C21317667   2.745   2.483   9.301 -0.0963 -0.0188  0.3257
  158SAPE  H13R17668   2.768   2.456   9.407 -0.1137  0.2132  0.3892
  158SAPE  H13S17669   2.796   2.580   9.283 -0.1541 -0.0061  0.2335
  158SAPE  C21417670   2.799   2.376   9.203  0.0410  0.4766 -0.4187
  158SAPE  H14R17671   2.780   2.274   9.239 -0.3214  1.4632  2.4642
  158SAPE  C21517672   2.853   2.378   9.079 -0.4628  0.2334 -0.3914
  158SAPE  H15R17673   2.874   2.283   9.028 -1.1645 -0.6101  0.8349
  158SAPE  C21617674   2.889   2.501   8.999 -0.3122  0.0740 -0.6980
  158SAPE  H16R17675   2.853   2.601   9.030 -3.1953 -1.9049  3.1854
  158SAPE  H16S17676   2.855   2.484   8.895  0.9748  0.5741 -1.2297
  158SAPE  C21717677   3.043   2.491   8.996  0.5852 -0.1223 -0.2051
  158SAPE  H17R17678   3.068   2.405   8.931 -0.2168 -1.2995  0.9899
  158SAPE  H17S17679   3.078   2.471   9.099 -1.2432 -2.0540  0.1112
  158SAPE  C21817680   3.103   2.613   8.925 -1.4674 -0.4461 -0.4856
  158SAPE  H18R17681   3.080   2.705   8.983 -3.2890 -2.3299  2.0109
  158SAPE  H18S17682   3.056   2.633   8.826  1.7201 -0.7808 -2.1797
  158SAPE  C21917683   3.260   2.606   8.905 -0.3477  0.8262 -0.0989
  158SAPE  H19R17684   3.283   2.500   8.884  0.1128  0.4218  2.1151
  158SAPE  H19S17685   3.297   2.629   9.008  0.7333 -0.8520 -0.0900
  158SAPE  C22017686   3.328   2.685   8.789 -0.0145  0.1619 -0.6760
  158SAPE  H20R17687   3.322   2.627   8.695 -1.7321  0.0931 -0.5638
  158SAPE  H20S17688   3.433   2.690   8.823 -0.0346 -2.7527  0.0592
  158SAPE  H20T17689   3.290   2.788   8.772 -0.4793  0.4140  1.6124
  158SAPE   C3317690   2.700   2.527  10.331  0.5382 -0.2042 -0.2097
  158SAPE   H3X17691   2.614   2.591  10.358  1.6134  1.4591 -0.6222
  158SAPE   H3Y17692   2.664   2.474  10.240 -1.0657  1.2829 -0.5051
  158SAPE   C3417693   2.822   2.610  10.304 -0.5457 -1.2835  0.2145
  158SAPE   H4X17694   2.853   2.656  10.400 -2.8097  1.2493 -0.1630
  158SAPE   H4Y17695   2.797   2.685  10.226  1.8493  0.6813  1.1912
  158SAPE   C3517696   2.943   2.514  10.243  0.4003  0.0865 -0.4927
  158SAPE   H5X17697   2.921   2.488  10.137 -0.9226  2.2204 -0.7998
  158SAPE   H5Y17698   2.955   2.422  10.304 -0.2092  1.9104  2.6237
  158SAPE   C3617699   3.073   2.592  10.226  0.3178 -0.1116  0.0666
  158SAPE   H6X17700   3.159   2.526  10.202 -0.3189 -0.3141 -1.7453
  158SAPE   H6Y17701   3.086   2.654  10.318 -2.6797 -0.2670  0.6931
  158SAPE   C3717702   3.058   2.698  10.114  0.5795 -0.4244 -0.7084
  158SAPE   H7X17703   2.982   2.769  10.153 -0.2502 -1.7011  0.0344
  158SAPE   H7Y17704   3.012   2.657  10.022 -2.3179  2.9653 -0.9827
  158SAPE   C3817705   3.177   2.788  10.081  0.1755  0.6300  0.0017
  158SAPE   H8X17706   3.229   2.808  10.177  1.1673 -2.1535  0.1116
  158SAPE   H8Y17707   3.146   2.888  10.043  1.3549  0.8906 -0.3069
  158SAPE   C3917708   3.279   2.719   9.986  0.5576  0.1843 -0.1983
  158SAPE   H9X17709   3.221   2.678   9.901 -0.5576  2.3900 -0.5770
  158SAPE   H9Y17710   3.333   2.636  10.036  2.0713  1.2048 -0.0864
  158SAPE  C31017711   3.376   2.819   9.919  0.6071 -0.2894 -0.0845
  158SAPE  H10X17712   3.442   2.853  10.002 -0.8061  1.6112  0.2977
  158SAPE  H10Y17713   3.321   2.907   9.880  0.3730  0.0022  0.8652
  158SAPE  C31117714   3.455   2.764   9.799 -0.1791  0.7603  0.6467
  158SAPE  H11X17715   3.391   2.741   9.712 -0.6694 -0.3163  1.2718
  158SAPE  H11Y17716   3.504   2.670   9.833 -2.9963 -1.0779 -0.0425
  158SAPE  C31217717   3.564   2.845   9.738  0.7598 -0.6834 -0.2136
  158SAPE  H12X17718   3.644   2.862   9.813  1.2990  0.1324 -0.9624
  158SAPE  H12Y17719   3.515   2.943   9.724  0.0895 -1.0555 -0.5036
  158SAPE  C31317720   3.623   2.793   9.602  0.9995 -0.6401  0.7604
  158SAPE  H13X17721   3.549   2.724   9.556  0.1499  0.9527 -0.3376
  158SAPE  H13Y17722   3.705   2.724   9.632 -0.0890 -2.7951 -0.9391
  158SAPE  C31417723   3.689   2.899   9.510  0.6160 -0.7215  0.3027
  158SAPE  H14X17724   3.740   2.972   9.576 -2.3870  1.8456  0.0036
  158SAPE  H14Y17725   3.607   2.958   9.464  0.2636 -2.2576 -1.1257
  158SAPE  C31517726   3.791   2.843   9.414  0.0902  0.1958 -0.3872
  158SAPE  H15X17727   3.758   2.740   9.388 -1.8497  0.6825  0.0083
  158SAPE  H15Y17728   3.893   2.845   9.460 -0.6923 -0.7142  1.5150
  158SAPE  C31617729   3.791   2.930   9.290 -0.1638 -0.2834  0.4262
  158SAPE  H16X17730   3.794   3.033   9.330  1.8166 -0.2935  0.4114
  158SAPE  H16Y17731   3.690   2.923   9.244  0.7776  1.1936 -2.1336
  158SAPE  C31717732   3.897   2.892   9.178  0.0289  0.4217  0.5964
  158SAPE  H17X17733   3.871   2.952   9.088 -0.2655 -0.9868 -0.2839
  158SAPE  H17Y17734   3.884   2.783   9.160  1.4829  0.1420  1.1592
  158SAPE  C31817735   4.047   2.911   9.206  0.2460 -0.2310  0.7255
  158SAPE  H18X17736   4.106   2.928   9.113  1.2956 -5.0359  0.2622
  158SAPE  H18Y17737   4.101   2.824   9.248  3.4740  0.7045 -1.1331
  158SAPE  H18Z17738   4.045   2.994   9.281 -1.1966 -1.7534  2.4724
  159SAPE     N17739   5.427   5.261   6.683 -0.0678 -0.1461  0.2635
  159SAPE   HN117740   5.470   5.264   6.778  0.2393 -0.3117  0.1286
  159SAPE   HN217741   5.383   5.352   6.662 -0.0936 -0.1602  0.2561
  159SAPE   HN317742   5.348   5.193   6.692 -0.0071 -0.4343 -1.1673
  159SAPE   C1217743   5.522   5.204   6.579 -0.2033 -0.3475 -0.1471
  159SAPE  H12A17744   5.550   5.101   6.611  0.7559 -0.1673 -0.3932
  159SAPE  H12B17745   5.610   5.271   6.570  0.7866 -1.5613  0.2598
  159SAPE   C1117746   5.445   5.192   6.445  0.1880 -0.6371  0.5458
  159SAPE  H11A17747   5.384   5.283   6.426 -0.8068 -1.3496  0.2280
  159SAPE  H11B17748   5.372   5.108   6.446 -1.0333  0.3820  0.1442
  159SAPE     P17749   5.612   5.037   6.319 -0.2432 -0.1652 -0.2404
  159SAPE   O1317750   5.515   4.930   6.331  0.0610  0.5522 -1.0605
  159SAPE   O1417751   5.694   5.028   6.194 -0.1353 -0.1988 -0.1296
  159SAPE   O1217752   5.540   5.174   6.338 -0.0029 -0.8788 -0.4047
  159SAPE   O1117753   5.708   5.036   6.441 -0.4745 -0.1659 -0.4883
  159SAPE    C117754   5.830   5.119   6.443  0.5222  0.3003  0.0696
  159SAPE    HA17755   5.884   5.098   6.348 -2.6953 -2.3215 -1.4131
  159SAPE    HB17756   5.802   5.226   6.453  0.2052  0.2626 -0.3455
  159SAPE    C217757   5.910   5.086   6.568 -0.8117  0.2685 -0.1043
  159SAPE    HS17758   5.951   4.983   6.564 -0.8683  0.1110  2.0894
  159SAPE   O2117759   5.813   5.096   6.677 -0.0559  0.0023 -0.0026
  159SAPE   C2117760   5.837   5.010   6.770  0.7019  0.2638 -0.3603
  159SAPE   O2217761   5.899   4.905   6.764  0.1279  0.3811  0.4412
  159SAPE   C2217762   5.773   5.060   6.895 -0.1099  0.1325 -0.4546
  159SAPE   H2R17763   5.840   5.134   6.946  1.3723 -1.9709  0.8071
  159SAPE   H2S17764   5.678   5.112   6.874  1.0111  2.3251 -0.4425
  159SAPE    C317765   6.037   5.177   6.591 -0.3826 -0.7989  0.2876
  159SAPE    HX17766   6.004   5.283   6.582 -0.5252 -1.0085 -3.2708
  159SAPE    HY17767   6.101   5.160   6.502 -0.2895 -1.5145  0.4797
  159SAPE   O3117768   6.110   5.147   6.709 -0.6513 -0.6552 -0.5575
  159SAPE   C3117769   6.204   5.052   6.711 -0.7113 -0.1942  0.4464
  159SAPE   O3217770   6.246   4.996   6.610 -0.1135 -0.5630 -0.1632
  159SAPE   C3217771   6.255   5.031   6.857 -0.0213  0.3593 -0.2450
  159SAPE   H2X17772   6.326   5.116   6.866  0.1845  0.2036 -0.3781
  159SAPE   H2Y17773   6.316   4.938   6.847  0.8721  0.8616  0.3475
  159SAPE   C2317774   5.762   4.947   7.005  0.2550  0.0420 -0.6966
  159SAPE   H3R17775   5.859   4.917   7.050  0.0574  0.7643  0.2212
  159SAPE   H3S17776   5.717   4.855   6.960 -0.6628 -0.4547  1.1204
  159SAPE   C2417777   5.649   4.966   7.110 -0.2679  0.5673  0.5635
  159SAPE   H4R17778   5.628   4.871   7.165 -2.7012 -0.8906 -2.5265
  159SAPE   H4S17779   5.560   5.011   7.060  0.9322  1.3112 -0.9794
  159SAPE   C2517780   5.706   5.065   7.206 -0.4370 -0.2440  0.2515
  159SAPE   H5R17781   5.745   5.160   7.165  0.0189 -0.8896 -0.8574
  159SAPE   C2617782   5.714   5.058   7.342  0.3475  0.3882  0.5378
  159SAPE   H6R17783   5.753   5.146   7.397 -2.7433  0.9801  1.9884
  159SAPE   C2717784   5.662   4.957   7.434  0.3876  0.0642  0.2022
  159SAPE   H7R17785   5.749   4.912   7.487  0.1768 -1.5894 -0.7887
  159SAPE   H7S17786   5.603   4.880   7.381 -1.5676  2.4162 -1.2829
  159SAPE   C2817787   5.556   5.016   7.531 -0.2807  0.3157  0.7505
  159SAPE   H8R17788   5.460   5.030   7.479  0.6028 -0.9319 -1.3359
  159SAPE   C2917789   5.564   5.035   7.659  0.2600 -0.4818 -0.1472
  159SAPE   H9R17790   5.473   5.073   7.707 -0.7720  0.2509 -2.5391
  159SAPE  C21017791   5.679   5.011   7.748 -0.2424 -0.0820  0.2019
  159SAPE  H10R17792   5.705   5.108   7.796  1.0433  0.8255 -2.1794
  159SAPE  H10S17793   5.776   5.001   7.695 -0.4795  2.6067 -0.8956
  159SAPE  C21117794   5.641   4.901   7.848  0.4429  0.7366  0.9244
  159SAPE  H11R17795   5.625   4.803   7.802  1.9679  1.2984 -0.9164
  159SAPE  C21217796   5.636   4.916   7.985  0.1760  0.4552  0.0193
  159SAPE  H12R17797   5.604   4.838   8.056  0.3660  0.1354 -0.2443
  159SAPE  C21317798   5.658   5.044   8.062  0.4240 -0.2689  0.2537
  159SAPE  H13R17799   5.764   5.077   8.051  0.8420 -1.6638 -0.1421
  159SAPE  H13S17800   5.640   5.019   8.168 -2.0511  0.4564  0.0677
  159SAPE  C21417801   5.573   5.164   8.025  1.0623 -0.2402  0.1402
  159SAPE  H14R17802   5.595   5.216   7.930  2.2649  0.2975  0.6829
  159SAPE  C21517803   5.469   5.211   8.101  0.0404  0.2651  0.5437
  159SAPE  H15R17804   5.421   5.303   8.066  0.5031  0.4821  0.4790
  159SAPE  C21617805   5.412   5.168   8.233 -0.2677 -0.5941 -0.2425
  159SAPE  H16R17806   5.449   5.065   8.252 -2.3856 -1.3344  0.0566
  159SAPE  H16S17807   5.302   5.181   8.233 -0.2661 -0.5458  0.3118
  159SAPE  C21717808   5.468   5.259   8.343  0.4385  0.2485  0.1182
  159SAPE  H17R17809   5.434   5.364   8.332 -2.1164 -0.6221 -1.0801
  159SAPE  H17S17810   5.579   5.256   8.351  0.6998 -2.7113 -2.5559
  159SAPE  C21817811   5.401   5.218   8.474 -0.5366  0.3155  0.6149
  159SAPE  H18R17812   5.445   5.128   8.522 -0.9788 -1.6828 -2.4527
  159SAPE  H18S17813   5.298   5.194   8.439  0.7789 -0.8077 -2.8846
  159SAPE  C21917814   5.395   5.331   8.575  0.1638 -0.4658 -0.0204
  159SAPE  H19R17815   5.350   5.422   8.531 -1.2895 -0.7119  0.9021
  159SAPE  H19S17816   5.496   5.373   8.598 -0.2809 -1.2318  4.0080
  159SAPE  C22017817   5.333   5.283   8.701  0.8403 -0.6964 -0.5395
  159SAPE  H20R17818   5.224   5.266   8.685  0.4351 -1.7687  2.7098
  159SAPE  H20S17819   5.335   5.374   8.764 -0.9621 -0.6142 -0.5583
  159SAPE  H20T17820   5.372   5.198   8.760  0.2640  0.7038  2.0126
  159SAPE   C3317821   6.149   5.026   6.966 -0.0592 -0.7658 -0.4637
  159SAPE   H3X17822   6.099   4.929   6.982 -2.7239  0.9166  2.6094
  159SAPE   H3Y17823   6.071   5.104   6.956  0.7652  0.0057 -1.0476
  159SAPE   C3417824   6.200   5.055   7.110 -0.0540 -0.1882 -0.2845
  159SAPE   H4X17825   6.243   5.158   7.111 -0.5950  0.0384  0.2026
  159SAPE   H4Y17826   6.287   4.988   7.130  0.1277  0.1926  0.2262
  159SAPE   C3517827   6.084   5.055   7.212 -0.7739 -0.3198 -0.1733
  159SAPE   H5X17828   6.032   4.957   7.207  1.6564 -1.6514 -1.2962
  159SAPE   H5Y17829   6.008   5.134   7.192 -0.4337  0.1492  0.3562
  159SAPE   C3617830   6.125   5.086   7.365  0.4860  0.2883 -0.9073
  159SAPE   H6X17831   6.041   5.135   7.418  0.4074  1.3852 -1.9861
  159SAPE   H6Y17832   6.211   5.155   7.355  0.5115  0.4933  0.5372
  159SAPE   C3717833   6.163   4.959   7.441 -0.0306 -0.1744  0.4673
  159SAPE   H7X17834   6.245   4.903   7.392  0.4553  2.2741 -1.7389
  159SAPE   H7Y17835   6.081   4.884   7.446 -1.2239  1.0964  0.6261
  159SAPE   C3817836   6.221   4.995   7.576  0.1323  0.0641  0.0723
  159SAPE   H8X17837   6.312   5.056   7.556 -1.8361  3.2952  0.3090
  159SAPE   H8Y17838   6.236   4.907   7.642 -0.6761  0.3545  0.6523
  159SAPE   C3917839   6.119   5.081   7.658 -0.4434  0.3152  0.2641
  159SAPE   H9X17840   6.013   5.050   7.643 -0.9421  0.8551  2.3287
  159SAPE   H9Y17841   6.130   5.191   7.640  1.2822  0.3105  1.1780
  159SAPE  C31017842   6.153   5.084   7.811  0.0424 -0.5613 -1.4062
  159SAPE  H10X17843   6.107   5.179   7.844  0.0120 -0.2487 -2.3216
  159SAPE  H10Y17844   6.262   5.095   7.826 -0.1809  2.0194 -1.2736
  159SAPE  C31117845   6.094   4.962   7.878  0.0143 -0.3859  0.4339
  159SAPE  H11X17846   6.144   4.871   7.839  0.5140 -0.0619  0.3143
  159SAPE  H11Y17847   5.985   4.952   7.855 -0.6452  3.9102  0.8589
  159SAPE  C31217848   6.113   4.959   8.032 -0.3237 -0.7908 -0.1673
  159SAPE  H12X17849   6.076   5.055   8.073  0.5266 -1.2626  1.8182
  159SAPE  H12Y17850   6.223   4.952   8.043  0.1416  2.5411 -1.5251
  159SAPE  C31317851   6.050   4.843   8.109 -0.0417 -0.6292 -0.0330
  159SAPE  H13X17852   6.079   4.746   8.065  1.4318 -0.3482  0.2813
  159SAPE  H13Y17853   5.939   4.842   8.110 -0.0800 -2.8511  1.7705
  159SAPE  C31417854   6.092   4.839   8.251 -0.4717  0.0792 -0.7558
  159SAPE  H14X17855   6.201   4.819   8.254 -0.5682 -0.5291 -1.0733
  159SAPE  H14Y17856   6.046   4.752   8.303  0.6492  1.4398  2.8206
  159SAPE  C31517857   6.069   4.970   8.333  0.1190  0.4520 -0.1672
  159SAPE  H15X17858   6.137   5.049   8.296  2.7231 -0.9388  1.3605
  159SAPE  H15Y17859   6.099   4.944   8.437  0.5617 -0.6638 -0.5622
  159SAPE  C31617860   5.919   5.011   8.340  0.1392  0.1799  0.0758
  159SAPE  H16X17861   5.867   4.920   8.377  2.3172 -2.2517 -2.4085
  159SAPE  H16Y17862   5.891   5.034   8.235 -1.2361 -1.3044  0.0778
  159SAPE  C31717863   5.884   5.130   8.431 -0.5994 -0.6170  0.3169
  159SAPE  H17X17864   5.953   5.122   8.518 -0.3300  1.2820  0.3179
  159SAPE  H17Y17865   5.781   5.129   8.473 -1.0700  0.9140 -0.7395
  159SAPE  C31817866   5.902   5.261   8.363 -0.0484  0.1144  0.3705
  159SAPE  H18X17867   5.819   5.270   8.289 -1.1687  1.2498  1.7021
  159SAPE  H18Y17868   5.994   5.268   8.302  1.4562  1.2636  2.5990
  159SAPE  H18Z17869   5.883   5.343   8.436 -3.3431 -0.1707  0.0070
  160SAPE     N17870   4.594   6.571   6.727 -0.4577 -0.3073 -0.4338
  160SAPE   HN117871   4.525   6.570   6.805 -0.5144 -2.3871 -0.4573
  160SAPE   HN217872   4.549   6.591   6.636  1.3964  0.1233 -1.3090
  160SAPE   HN317873   4.626   6.472   6.729 -1.9198 -0.8088 -0.9659
  160SAPE   C1217874   4.711   6.662   6.768 -0.4778  0.5270  0.2132
  160SAPE  H12A17875   4.763   6.611   6.852  3.0412  2.2783 -0.6986
  160SAPE  H12B17876   4.666   6.762   6.789 -0.4184  0.0995  2.6003
  160SAPE   C1117877   4.794   6.676   6.640 -0.8223  0.0691  0.1534
  160SAPE  H11A17878   4.809   6.577   6.592  1.5992  0.8521 -0.8791
  160SAPE  H11B17879   4.890   6.718   6.676 -0.0122 -0.6013 -1.1564
  160SAPE     P17880   4.808   6.858   6.449 -0.1052 -0.0797 -0.3500
  160SAPE   O1317881   4.900   6.787   6.358 -0.4373  0.3799 -0.6203
  160SAPE   O1417882   4.715   6.950   6.374 -0.3707  0.0154 -0.5580
  160SAPE   O1217883   4.728   6.760   6.545  0.4369  0.1820  0.4656
  160SAPE   O1117884   4.895   6.947   6.553  0.5198  0.2686  0.1033
  160SAPE    C117885   4.844   7.075   6.595 -0.6895  0.9042 -0.2533
  160SAPE    HA17886   4.853   7.141   6.506 -0.4749  0.7126 -0.3757
  160SAPE    HB17887   4.735   7.068   6.618 -0.6541  2.1807  0.4140
  160SAPE    C217888   4.906   7.127   6.731 -0.2214  0.1092  0.7587
  160SAPE    HS17889   5.015   7.109   6.720 -0.3553 -0.2019 -0.2365
  160SAPE   O2117890   4.851   7.061   6.842 -0.0132 -0.0474  0.8032
  160SAPE   C2117891   4.927   6.992   6.915  0.5171 -0.5585 -0.3725
  160SAPE   O2217892   5.045   6.977   6.906  0.5415 -0.0401 -0.2475
  160SAPE   C2217893   4.840   6.930   7.023 -0.9542  0.2448  0.7824
  160SAPE   H2R17894   4.766   7.010   7.046 -0.5164  1.0011 -0.3664
  160SAPE   H2S17895   4.780   6.852   6.970  0.1281  1.2269 -2.0288
  160SAPE    C317896   4.890   7.278   6.748 -0.4993 -0.0826  0.5174
  160SAPE    HX17897   4.779   7.286   6.742 -0.4255  0.1280 -3.0999
  160SAPE    HY17898   4.927   7.333   6.659 -2.3205 -1.7282 -1.3642
  160SAPE   O3117899   4.954   7.327   6.864  0.2894 -0.2807  0.4294
  160SAPE   C3117900   5.088   7.362   6.845 -0.4792  0.4117 -0.5694
  160SAPE   O3217901   5.144   7.365   6.735 -0.3591  0.2722  0.3576
  160SAPE   C3217902   5.146   7.394   6.984 -0.3204 -0.6123  0.3166
  160SAPE   H2X17903   5.133   7.302   7.044 -1.2099  0.0690  1.2031
  160SAPE   H2Y17904   5.092   7.482   7.025  1.8654  0.4532  1.0393
  160SAPE   C2317905   4.938   6.888   7.134  0.1598  0.5854 -0.3831
  160SAPE   H3R17906   4.984   6.974   7.188  0.6916 -2.4131  4.5426
  160SAPE   H3S17907   5.023   6.829   7.092 -0.4622  0.3433 -1.3250
  160SAPE   C2417908   4.879   6.810   7.252 -0.1105 -0.2762  0.3656
  160SAPE   H4R17909   4.956   6.791   7.330  0.4051 -0.0860 -0.0912
  160SAPE   H4S17910   4.848   6.708   7.220  1.5117 -1.6298  2.7887
  160SAPE   C2517911   4.758   6.884   7.312 -0.4130 -0.7777  0.1365
  160SAPE   H5R17912   4.674   6.888   7.241 -0.5529  0.3771  0.3387
  160SAPE   C2617913   4.752   6.943   7.436 -0.3844 -0.1100 -0.2107
  160SAPE   H6R17914   4.661   7.000   7.460 -0.3851 -0.1377 -0.1455
  160SAPE   C2717915   4.853   6.947   7.546  0.4112  0.0880 -0.6267
  160SAPE   H7R17916   4.900   6.848   7.528 -1.2648 -0.5619 -1.6788
  160SAPE   H7S17917   4.802   6.927   7.643  0.8222 -3.4415 -1.0149
  160SAPE   C2817918   4.958   7.058   7.552  0.0385 -0.2534 -0.9025
  160SAPE   H8R17919   4.997   7.091   7.454  0.9677 -1.1511 -0.8544
  160SAPE   C2917920   4.990   7.128   7.662 -0.2731 -0.1951 -0.0019
  160SAPE   H9R17921   5.055   7.216   7.655  0.9224 -1.1396 -1.2532
  160SAPE  C21017922   4.943   7.107   7.800 -0.4587 -0.3131 -0.0208
  160SAPE  H10R17923   5.023   7.140   7.870 -0.5306  3.4229 -1.4384
  160SAPE  H10S17924   4.919   6.999   7.806 -1.9413 -0.1236 -1.5783
  160SAPE  C21117925   4.806   7.182   7.824  0.0221 -0.2552 -0.7919
  160SAPE  H11R17926   4.783   7.249   7.739 -0.1409 -1.9162 -2.1043
  160SAPE  C21217927   4.716   7.180   7.926 -0.1011 -1.0573 -0.5734
  160SAPE  H12R17928   4.618   7.229   7.920 -0.2665 -1.0047  1.6189
  160SAPE  C21317929   4.729   7.080   8.040  0.3789 -0.1982 -0.3544
  160SAPE  H13R17930   4.824   7.098   8.095  0.9562 -2.6581 -0.4043
  160SAPE  H13S17931   4.741   6.977   7.999  2.3918 -0.0676 -0.2263
  160SAPE  C21417932   4.605   7.077   8.133 -0.2751 -0.4453 -0.0749
  160SAPE  H14R17933   4.505   7.095   8.090 -0.8489  1.8322  2.0074
  160SAPE  C21517934   4.604   7.081   8.269 -0.2392  0.8436  0.6613
  160SAPE  H15R17935   4.509   7.063   8.320 -0.8554 -1.5547 -1.1594
  160SAPE  C21617936   4.717   7.077   8.360  0.3694 -0.6168  0.3059
  160SAPE  H16R17937   4.737   7.174   8.409 -0.8780  0.0712 -0.4802
  160SAPE  H16S17938   4.817   7.069   8.312  0.7592  3.3695  0.1130
  160SAPE  C21717939   4.708   6.968   8.463  0.2190 -0.4342 -0.0439
  160SAPE  H17R17940   4.687   6.869   8.416 -1.8279  1.3765 -3.2991
  160SAPE  H17S17941   4.616   6.974   8.524  0.4392 -0.1374  0.2626
  160SAPE  C21817942   4.822   6.961   8.564 -0.5410  0.0916  0.5259
  160SAPE  H18R17943   4.806   6.893   8.651 -0.4158  0.3311  0.7395
  160SAPE  H18S17944   4.836   7.060   8.613  0.9629  0.7757 -1.1491
  160SAPE  C21917945   4.955   6.914   8.501 -0.4301  0.4272  0.2154
  160SAPE  H19R17946   4.962   6.968   8.404 -1.1376 -0.9929 -0.6665
  160SAPE  H19S17947   4.954   6.805   8.477  0.1277  0.9009 -2.1699
  160SAPE  C22017948   5.076   6.944   8.582 -0.5849  0.9186  0.0872
  160SAPE  H20R17949   5.071   6.886   8.677  0.7344  1.2256  0.3717
  160SAPE  H20S17950   5.089   7.050   8.612  1.1385  1.4364 -2.2149
  160SAPE  H20T17951   5.167   6.925   8.521  0.5025  4.3840  0.4266
  160SAPE   C3317952   5.299   7.431   6.982 -0.5988 -0.3213  0.1716
  160SAPE   H3X17953   5.317   7.525   6.925 -1.6551 -0.2922 -0.1377
  160SAPE   H3Y17954   5.352   7.343   6.939  2.9007  0.8180  1.7569
  160SAPE   C3417955   5.356   7.467   7.122 -0.5363  0.0990 -0.1986
  160SAPE   H4X17956   5.331   7.387   7.194 -3.5563  0.5361 -0.6510
  160SAPE   H4Y17957   5.319   7.562   7.167  1.0671  0.3698  0.6372
  160SAPE   C3517958   5.508   7.497   7.127  0.0248 -0.0194  0.2217
  160SAPE   H5X17959   5.528   7.560   7.037 -3.3288 -0.1299 -0.7565
  160SAPE   H5Y17960   5.563   7.404   7.103 -1.3945 -0.9509  0.4720
  160SAPE   C3617961   5.558   7.560   7.255 -0.4257 -0.5146 -0.7414
  160SAPE   H6X17962   5.487   7.636   7.293  1.2207  0.4494  0.4970
  160SAPE   H6Y17963   5.657   7.597   7.220  0.0771 -0.6434  0.4961
  160SAPE   C3717964   5.579   7.463   7.371  0.2756  0.1149  0.2758
  160SAPE   H7X17965   5.658   7.390   7.342 -0.8164 -0.6046 -0.9555
  160SAPE   H7Y17966   5.490   7.400   7.388  1.2028 -1.1080  0.7587
  160SAPE   C3817967   5.619   7.528   7.500  0.4516  0.2933 -0.7172
  160SAPE   H8X17968   5.552   7.616   7.511  1.0160  1.4208 -4.5935
  160SAPE   H8Y17969   5.716   7.581   7.491 -0.1444  1.6199  0.4252
  160SAPE   C3917970   5.617   7.425   7.621  0.8250  0.3002 -0.7107
  160SAPE   H9X17971   5.658   7.329   7.584 -0.1213  0.4301 -2.1673
  160SAPE   H9Y17972   5.509   7.420   7.648  1.0745  0.9023  0.4849
  160SAPE  C31017973   5.676   7.478   7.751 -0.1378  0.6582 -0.3908
  160SAPE  H10X17974   5.781   7.511   7.738 -0.2624  1.4510  0.5012
  160SAPE  H10Y17975   5.666   7.405   7.834 -0.0636 -0.2831 -1.1928
  160SAPE  C31117976   5.619   7.612   7.799  0.0888  0.0403 -0.0273
  160SAPE  H11X17977   5.509   7.606   7.814  0.4521 -2.3954  2.7545
  160SAPE  H11Y17978   5.647   7.695   7.731  1.7208 -0.5119 -0.0849
  160SAPE  C31217979   5.686   7.653   7.929  0.4156  0.0206 -0.9489
  160SAPE  H12X17980   5.795   7.674   7.918  1.0437 -1.1231  2.1496
  160SAPE  H12Y17981   5.684   7.570   8.003 -2.1294 -0.5224 -1.5457
  160SAPE  C31317982   5.622   7.772   7.999  0.4970 -0.6497 -0.2514
  160SAPE  H13X17983   5.526   7.731   8.036  1.2414 -0.9791  1.4495
  160SAPE  H13Y17984   5.605   7.854   7.927  0.1486 -3.2809 -3.3559
  160SAPE  C31417985   5.703   7.819   8.124 -0.1515  0.0344  0.3717
  160SAPE  H14X17986   5.741   7.736   8.187 -2.1324 -1.3198 -0.1242
  160SAPE  H14Y17987   5.644   7.886   8.191 -2.6224 -0.0431 -1.5440
  160SAPE  C31517988   5.821   7.903   8.069 -0.4436  0.3025 -0.1252
  160SAPE  H15X17989   5.787   7.954   7.976  2.9280  0.9500 -1.1323
  160SAPE  H15Y17990   5.892   7.823   8.039 -0.0065  0.8239 -0.5027
  160SAPE  C31617991   5.883   7.993   8.179 -0.7380 -0.3318  0.1552
  160SAPE  H16X17992   5.801   8.052   8.224 -2.2102  0.4875 -3.3199
  160SAPE  H16Y17993   5.956   8.067   8.140 -1.8196  2.4734  3.0776
  160SAPE  C31717994   5.953   7.926   8.289  0.0652  0.3451  0.5546
  160SAPE  H17X17995   6.023   7.847   8.252 -1.4609 -0.3394 -1.0330
  160SAPE  H17Y17996   5.891   7.861   8.355  1.9344 -0.2954  1.7821
  160SAPE  C31817997   6.031   8.022   8.371  0.7842 -0.3567 -0.6939
  160SAPE  H18X17998   6.102   8.079   8.306 -0.0314  0.9338 -0.4901
  160SAPE  H18Y17999   6.092   7.972   8.450 -2.6146 -2.8459  0.5586
  160SAPE  H18Z18000   5.962   8.092   8.423  0.4180 -3.2476  3.1660
  161SAPE     N18001   0.532   5.254   6.260 -0.7078 -0.0677 -0.0726
  161SAPE   HN118002   0.565   5.190   6.184  0.7094  0.5832 -0.0374
  161SAPE   HN218003   0.610   5.317   6.287  0.2570 -1.5706  0.8105
  161SAPE   HN318004   0.509   5.193   6.340 -0.1503 -1.3817 -0.8781
  161SAPE   C1218005   0.415   5.334   6.219 -0.3020  0.2454 -0.3541
  161SAPE  H12A18006   0.449   5.396   6.134  0.0317  0.9395  0.2715
  161SAPE  H12B18007   0.392   5.384   6.316  1.4743 -0.5103  0.5024
  161SAPE   C1118008   0.291   5.245   6.182 -0.9808  0.0926 -0.5568
  161SAPE  H11A18009   0.322   5.169   6.107  1.1122 -0.3734  0.7030
  161SAPE  H11B18010   0.222   5.316   6.131 -0.8099  0.2956 -0.5055
  161SAPE     P18011   0.105   5.225   6.362 -0.0063  0.2314  0.3637
  161SAPE   O1318012   0.023   5.262   6.246 -0.0154  0.5439  0.1351
  161SAPE   O1418013   0.058   5.118   6.453 -0.4368  1.1750 -0.2819
  161SAPE   O1218014   0.237   5.186   6.296  0.0073  0.5793  0.1771
  161SAPE   O1118015   0.153   5.354   6.445  0.3888  0.2864  0.0802
  161SAPE    C118016   0.257   5.350   6.550 -0.3696  0.0524 -0.6261
  161SAPE    HA18017   0.334   5.272   6.534 -0.8606 -1.0288  1.7729
  161SAPE    HB18018   0.319   5.442   6.554  3.8241 -2.4477 -1.6829
  161SAPE    C218019   0.200   5.320   6.694 -0.4988 -0.0215 -0.5492
  161SAPE    HS18020   0.100   5.278   6.672 -0.4251 -0.4219 -0.1279
  161SAPE   O2118021   0.188   5.438   6.772  0.3075  0.2237  0.2771
  161SAPE   C2118022   0.086   5.445   6.855 -0.5870 -0.2071 -0.2362
  161SAPE   O2218023  -0.004   5.366   6.857  0.3845 -0.2263  0.0955
  161SAPE   C2218024   0.105   5.563   6.941  0.0669 -0.1482 -0.4092
  161SAPE   H2R18025   0.210   5.579   6.972  0.4097 -0.0322 -1.5972
  161SAPE   H2S18026   0.085   5.655   6.882  1.5332 -0.0460 -0.7831
  161SAPE    C318027   0.286   5.208   6.765 -0.1679 -0.0688 -0.3254
  161SAPE    HX18028   0.392   5.243   6.770  0.6927 -2.5723  0.2139
  161SAPE    HY18029   0.283   5.127   6.690 -0.8042  1.2276 -1.7648
  161SAPE   O3118030   0.244   5.184   6.903 -0.6667  0.7702  0.8222
  161SAPE   C3118031   0.319   5.223   7.007  0.0815  0.6230 -0.2844
  161SAPE   O3218032   0.433   5.270   7.004  0.2259 -0.0707  0.0505
  161SAPE   C3218033   0.233   5.180   7.128 -0.0105  0.1970 -0.0148
  161SAPE   H2X18034   0.240   5.070   7.142  1.5965 -0.2240 -3.1691
  161SAPE   H2Y18035   0.125   5.203   7.123  0.1985  0.9650 -1.8197
  161SAPE   C2318036   0.022   5.556   7.070 -0.1155  0.1163  0.0881
  161SAPE   H3R18037   0.053   5.472   7.136  0.5428  0.6435  0.4610
  161SAPE   H3S18038  -0.084   5.528   7.052  0.0410 -0.1221 -0.4870
  161SAPE   C2418039   0.029   5.679   7.161 -0.3142  0.0278 -0.1098
  161SAPE   H4R18040  -0.065   5.680   7.221 -1.3279 -1.1959 -1.6062
  161SAPE   H4S18041   0.018   5.764   7.090  0.0986  0.6896  0.5997
  161SAPE   C2518042   0.147   5.682   7.253 -0.6484  0.7069  0.1924
  161SAPE   H5R18043   0.226   5.734   7.196 -0.9152  0.9863  0.0765
  161SAPE   C2618044   0.172   5.632   7.376  0.1895 -0.1657  0.2296
  161SAPE   H6R18045   0.266   5.666   7.421  0.3839  0.6999 -0.7783
  161SAPE   C2718046   0.070   5.557   7.457 -0.3339  0.6649  1.0770
  161SAPE   H7R18047   0.101   5.452   7.478 -2.6217 -0.4998 -0.8503
  161SAPE   H7S18048  -0.021   5.533   7.399  1.8119  1.0950 -2.8631
  161SAPE   C2818049   0.035   5.644   7.582 -1.1999  0.3592 -0.6710
  161SAPE   H8R18050  -0.035   5.726   7.560 -0.1613  0.5453 -3.9779
  161SAPE   C2918051   0.083   5.624   7.707  0.2970  0.6948  0.6374
  161SAPE   H9R18052   0.041   5.680   7.793 -2.7874 -0.6564  0.1730
  161SAPE  C21018053   0.177   5.508   7.748 -0.5355  0.1835 -0.2250
  161SAPE  H10R18054   0.248   5.488   7.664 -1.3201  3.4812 -1.8722
  161SAPE  H10S18055   0.116   5.416   7.758 -0.4222  0.2153  0.7908
  161SAPE  C21118056   0.238   5.565   7.878 -0.7790  0.7030  0.5154
  161SAPE  H11R18057   0.273   5.670   7.874 -1.8881  1.0954  0.6183
  161SAPE  C21218058   0.245   5.518   8.003 -0.4759 -0.3784  0.1778
  161SAPE  H12R18059   0.307   5.577   8.073  1.5782  0.1894 -1.9705
  161SAPE  C21318060   0.187   5.395   8.052 -0.6906 -0.6207  0.6010
  161SAPE  H13R18061   0.078   5.414   8.063 -0.7079  1.6973 -2.4289
  161SAPE  H13S18062   0.222   5.376   8.156 -1.7016 -1.4944  0.7973
  161SAPE  C21418063   0.206   5.274   7.969 -0.4584  0.4129  0.7947
  161SAPE  H14R18064   0.123   5.244   7.904 -1.0079 -2.3144  2.5524
  161SAPE  C21518065   0.323   5.199   7.969 -0.3891  0.2155 -0.2594
  161SAPE  H15R18066   0.329   5.107   7.908 -0.8220  0.6465 -0.9721
  161SAPE  C21618067   0.442   5.234   8.053  0.6981 -0.0912  0.3338
  161SAPE  H16R18068   0.426   5.332   8.102  0.6255 -0.9034  1.9962
  161SAPE  H16S18069   0.523   5.247   7.978 -1.1451  1.3089 -1.5421
  161SAPE  C21718070   0.481   5.136   8.156 -0.2069  1.1062 -0.4819
  161SAPE  H17R18071   0.484   5.032   8.118 -4.4056 -0.0623  1.7217
  161SAPE  H17S18072   0.409   5.147   8.240  1.7457  1.0534  1.2668
  161SAPE  C21818073   0.621   5.148   8.221  0.8112  0.0996  0.9961
  161SAPE  H18R18074   0.655   5.068   8.290  3.0537 -0.2103 -0.3715
  161SAPE  H18S18075   0.620   5.244   8.277 -0.1137  1.2195 -0.8279
  161SAPE  C21918076   0.736   5.178   8.123 -0.1656 -0.0506  0.0434
  161SAPE  H19R18077   0.822   5.198   8.190 -0.5099  2.4484 -0.1386
  161SAPE  H19S18078   0.723   5.273   8.067 -0.4722 -1.2181 -1.9566
  161SAPE  C22018079   0.772   5.055   8.033 -0.1934 -0.3420 -0.0364
  161SAPE  H20R18080   0.734   5.065   7.929  1.9314  3.0993 -0.6631
  161SAPE  H20S18081   0.713   4.968   8.068 -0.8153 -0.6624 -1.7990
  161SAPE  H20T18082   0.880   5.029   8.037  0.1064  0.9267  0.4903
  161SAPE   C3318083   0.295   5.234   7.259  0.1331  0.4532  0.3244
  161SAPE   H3X18084   0.293   5.344   7.274 -2.1625  0.5372 -0.2123
  161SAPE   H3Y18085   0.396   5.189   7.263 -0.2965 -0.5803 -0.2047
  161SAPE   C3418086   0.215   5.175   7.381  0.4229 -0.2799 -0.2635
  161SAPE   H4X18087   0.156   5.089   7.344 -2.4895  1.7036 -0.5724
  161SAPE   H4Y18088   0.138   5.251   7.404  0.2720  0.4069 -2.7190
  161SAPE   C3518089   0.290   5.143   7.517  0.5680 -0.3210  0.1495
  161SAPE   H5X18090   0.300   5.244   7.564 -0.1366 -0.5733  0.8507
  161SAPE   H5Y18091   0.390   5.106   7.486  1.9553  1.9701  1.5364
  161SAPE   C3618092   0.217   5.037   7.604 -0.4063 -0.3356  0.7330
  161SAPE   H6X18093   0.288   4.999   7.680  0.2102 -0.1962  0.2309
  161SAPE   H6Y18094   0.203   4.951   7.534  2.1777 -0.9887  0.8998
  161SAPE   C3718095   0.082   5.079   7.653 -0.4758  0.0304  0.1350
  161SAPE   H7X18096   0.023   5.117   7.567  1.0618  2.7724  0.1489
  161SAPE   H7Y18097   0.096   5.159   7.729 -0.7916 -0.6321  0.8974
  161SAPE   C3818098  -0.005   4.976   7.727  0.0810 -0.3842  0.3664
  161SAPE   H8X18099   0.061   4.940   7.809  1.5629  0.5921 -0.3462
  161SAPE   H8Y18100  -0.030   4.894   7.656  0.7401 -0.0087 -0.3172
  161SAPE   C3918101  -0.119   5.039   7.798 -0.0872  0.6077 -0.4043
  161SAPE   H9X18102  -0.184   5.096   7.727 -1.7141  0.7847  1.1404
  161SAPE   H9Y18103  -0.073   5.118   7.861 -0.6389 -0.8201  1.9157
  161SAPE  C31018104  -0.213   4.942   7.870 -0.1268  0.3874 -0.2541
  161SAPE  H10X18105  -0.154   4.853   7.901  1.8071  1.3813 -0.9335
  161SAPE  H10Y18106  -0.300   4.905   7.811 -0.9825 -0.6717  1.5581
  161SAPE  C31118107  -0.264   5.004   8.009  0.5579  0.7046  0.6980
  161SAPE  H11X18108  -0.327   4.923   8.052  0.1494  0.8308  0.3460
  161SAPE  H11Y18109  -0.320   5.100   7.998  1.4336  0.9978 -2.1297
  161SAPE  C31218110  -0.153   5.022   8.111 -0.2599 -0.3413  0.8569
  161SAPE  H12X18111  -0.085   5.094   8.063 -1.1783 -0.9142 -1.4314
  161SAPE  H12Y18112  -0.088   4.935   8.136 -0.6774 -0.3136  2.1558
  161SAPE  C31318113  -0.195   5.076   8.245  0.1585  0.4705 -0.6958
  161SAPE  H13X18114  -0.263   5.163   8.236 -0.3793  0.1157 -0.1464
  161SAPE  H13Y18115  -0.097   5.106   8.289 -0.2999 -0.4191  1.0301
  161SAPE  C31418116  -0.264   4.978   8.334 -0.1534 -0.3874  0.2114
  161SAPE  H14X18117  -0.205   4.887   8.360 -0.6598 -0.5896  0.6655
  161SAPE  H14Y18118  -0.358   4.944   8.286  0.2745 -0.1109 -0.8612
  161SAPE  C31518119  -0.293   5.049   8.472  0.3092 -0.3051 -0.2326
  161SAPE  H15X18120  -0.369   5.129   8.457 -0.5072 -1.0711 -0.2358
  161SAPE  H15Y18121  -0.202   5.088   8.523  0.6981 -0.7259 -0.6006
  161SAPE  C31618122  -0.368   4.955   8.569  0.2516 -0.4202 -0.3677
  161SAPE  H16X18123  -0.307   4.863   8.586  0.1082 -0.4320  0.0862
  161SAPE  H16Y18124  -0.467   4.922   8.530 -0.6524  0.0053  1.4543
  161SAPE  C31718125  -0.410   5.023   8.705  0.0242  0.7216 -0.0650
  161SAPE  H17X18126  -0.475   5.109   8.681 -0.6911  0.0937 -0.4078
  161SAPE  H17Y18127  -0.314   5.062   8.745  0.2138 -0.4745  0.7089
  161SAPE  C31818128  -0.468   4.931   8.815 -0.1145 -0.0841 -0.2474
  161SAPE  H18X18129  -0.555   4.874   8.775 -0.1605 -0.1221 -0.0968
  161SAPE  H18Y18130  -0.520   4.992   8.892 -1.7023 -0.7650 -0.7305
  161SAPE  H18Z18131  -0.393   4.864   8.861 -0.1381 -0.4312 -0.7153
  162SAPE     N18132   6.591   5.008   6.284  0.2173 -0.3506 -0.3679
  162SAPE   HN118133   6.669   4.939   6.273 -0.0618 -1.0121  1.4183
  162SAPE   HN218134   6.623   5.104   6.260 -0.0636  0.0170  0.6720
  162SAPE   HN318135   6.569   5.028   6.384  4.9359  2.3475  0.4753
  162SAPE   C1218136   6.478   4.966   6.203  0.8067 -0.4316  0.4286
  162SAPE  H12A18137   6.435   4.871   6.240  1.6581 -0.5048  1.2586
  162SAPE  H12B18138   6.518   4.944   6.101 -0.0823  0.2629 -0.0846
  162SAPE   C1118139   6.377   5.085   6.196 -0.5191  0.0780 -0.0918
  162SAPE  H11A18140   6.330   5.077   6.296  0.3148  0.5618  0.3517
  162SAPE  H11B18141   6.306   5.078   6.110 -2.3642 -1.0969  1.4568
  162SAPE     P18142   6.374   5.346   6.181  0.5042  0.5209 -0.2389
  162SAPE   O1318143   6.472   5.434   6.120 -0.3427  0.8041  0.2095
  162SAPE   O1418144   6.237   5.326   6.119 -0.0075  0.8611 -0.5339
  162SAPE   O1218145   6.447   5.211   6.199  0.2688  0.7328 -0.1733
  162SAPE   O1118146   6.358   5.387   6.328 -0.1444 -0.2918  0.1906
  162SAPE    C118147   6.452   5.347   6.429  0.5107 -0.1965 -0.6315
  162SAPE    HA18148   6.416   5.264   6.493  2.5759  0.7747  2.0103
  162SAPE    HB18149   6.553   5.313   6.398  0.4714  0.8623 -1.9926
  162SAPE    C218150   6.468   5.460   6.532  0.0509 -0.1762 -0.2152
  162SAPE    HS18151   6.546   5.424   6.601  1.1230  3.0928  0.4302
  162SAPE   O2118152   6.344   5.499   6.595 -0.2014  0.6424 -0.6104
  162SAPE   C2118153   6.322   5.434   6.706 -0.7477  0.1728 -0.6136
  162SAPE   O2218154   6.381   5.337   6.753  0.6428  0.1201  0.1740
  162SAPE   C2218155   6.203   5.508   6.775 -0.6017  0.6819  0.0212
  162SAPE   H2R18156   6.213   5.618   6.763  2.2303  0.5358  0.3644
  162SAPE   H2S18157   6.107   5.478   6.729  0.6039 -2.2319 -0.7947
  162SAPE    C318158   6.521   5.591   6.463 -0.6084  0.0190  0.1340
  162SAPE    HX18159   6.465   5.615   6.370  1.1066 -1.0776 -1.2657
  162SAPE    HY18160   6.621   5.575   6.417 -1.1209  0.7573 -1.2869
  162SAPE   O3118161   6.524   5.710   6.545  0.4174 -0.5232  0.5359
  162SAPE   C3118162   6.633   5.711   6.621 -0.0303 -0.5752 -0.4216
  162SAPE   O3218163   6.706   5.616   6.638 -0.2345  0.0763  0.2253
  162SAPE   C3218164   6.635   5.843   6.692  0.7306  0.3187 -0.1102
  162SAPE   H2X18165   6.564   5.908   6.637  1.7538  0.4338 -1.3395
  162SAPE   H2Y18166   6.736   5.887   6.680  0.5281  0.1902 -2.8000
  162SAPE   C2318167   6.206   5.476   6.932 -0.2657  0.4372  0.0735
  162SAPE   H3R18168   6.294   5.521   6.983  1.1935 -3.1583  1.0297
  162SAPE   H3S18169   6.208   5.367   6.952  0.5392  0.0463 -1.9320
  162SAPE   C2418170   6.093   5.538   7.015 -0.4374 -0.4332  0.6462
  162SAPE   H4R18171   6.080   5.640   6.975  0.5181 -0.2319  0.8105
  162SAPE   H4S18172   6.127   5.543   7.121  0.2236 -0.0618  0.4257
  162SAPE   C2518173   5.962   5.462   7.001  0.0369  0.2158  0.6223
  162SAPE   H5R18174   5.947   5.409   6.906  2.0692  0.0299  0.3652
  162SAPE   C2618175   5.865   5.452   7.096  0.3903 -0.1415 -1.0468
  162SAPE   H6R18176   5.772   5.397   7.075 -1.7029  2.8472 -0.3130
  162SAPE   C2718177   5.871   5.515   7.234 -0.8143  0.4918 -0.4600
  162SAPE   H7R18178   5.781   5.555   7.285 -0.9835 -1.9550  1.3575
  162SAPE   H7S18179   5.944   5.599   7.233 -2.3101  1.8330 -0.5298
  162SAPE   C2818180   5.935   5.418   7.333 -0.5606 -0.4720  0.5555
  162SAPE   H8R18181   6.017   5.373   7.276  1.2311  3.3710 -0.2104
  162SAPE   C2918182   5.905   5.391   7.460  0.4962  0.1257 -0.0428
  162SAPE   H9R18183   5.964   5.313   7.510  1.0153 -1.7770 -3.3482
  162SAPE  C21018184   5.785   5.452   7.537 -0.4068  0.6168  0.2798
  162SAPE  H10R18185   5.689   5.404   7.506  0.1039 -0.7853  0.7923
  162SAPE  H10S18186   5.757   5.559   7.530 -2.6865  0.2398  2.3177
  162SAPE  C21118187   5.820   5.427   7.680  0.0624 -0.2947 -0.8489
  162SAPE  H11R18188   5.777   5.330   7.709  0.8844 -0.5929 -0.6226
  162SAPE  C21218189   5.890   5.500   7.772  0.2721  0.0861  0.2857
  162SAPE  H12R18190   5.889   5.464   7.876  0.9409  0.2156  0.3410
  162SAPE  C21318191   5.940   5.639   7.743 -0.0830  0.3219  0.2356
  162SAPE  H13R18192   5.884   5.709   7.809 -0.9498 -1.4780  1.5007
  162SAPE  H13S18193   5.935   5.663   7.635  1.4524 -1.7050 -0.3439
  162SAPE  C21418194   6.083   5.640   7.774 -0.5395 -0.0252 -0.7108
  162SAPE  H14R18195   6.137   5.556   7.727  0.3269  0.8319 -1.3048
  162SAPE  C21518196   6.156   5.733   7.849  0.8724  0.7355 -0.1571
  162SAPE  H15R18197   6.264   5.727   7.866  0.7176 -0.8146  0.3738
  162SAPE  C21618198   6.079   5.846   7.921  0.0510  0.1721  0.1584
  162SAPE  H16R18199   5.976   5.857   7.883  0.7541  0.0360 -1.9104
  162SAPE  H16S18200   6.130   5.943   7.901 -0.7810  1.2551  2.8583
  162SAPE  C21718201   6.069   5.824   8.068  0.2342  0.3951 -0.1471
  162SAPE  H17R18202   6.000   5.741   8.092 -1.0688  0.9121 -1.8886
  162SAPE  H17S18203   6.031   5.912   8.124  0.2195  0.3268 -0.0496
  162SAPE  C21818204   6.193   5.783   8.156 -0.4157  1.0684  0.4150
  162SAPE  H18R18205   6.292   5.830   8.135  1.0965 -1.6562  0.9541
  162SAPE  H18S18206   6.214   5.675   8.139 -0.7295  1.2846 -1.5079
  162SAPE  C21918207   6.159   5.801   8.309  0.2293 -0.3958 -0.1741
  162SAPE  H19R18208   6.072   5.733   8.319 -0.9628  1.0653 -0.3098
  162SAPE  H19S18209   6.114   5.901   8.326  2.7098  1.4717 -3.4237
  162SAPE  C22018210   6.264   5.761   8.405 -0.1080 -0.0808 -0.5844
  162SAPE  H20R18211   6.342   5.839   8.391 -0.6364  1.1577  2.5366
  162SAPE  H20S18212   6.314   5.662   8.393  0.1327 -0.1226  0.6421
  162SAPE  H20T18213   6.233   5.757   8.511 -1.3292 -0.1343 -0.9315
  162SAPE   C3318214   6.591   5.839   6.839  0.6070 -0.3194 -0.6437
  162SAPE   H3X18215   6.663   5.803   6.915 -1.3550  0.0569  1.5142
  162SAPE   H3Y18216   6.504   5.770   6.837 -0.4822  0.9478  0.6575
  162SAPE   C3418217   6.522   5.969   6.874 -0.7974  0.1004 -0.0023
  162SAPE   H4X18218   6.423   5.993   6.829 -1.6797 -1.0300  1.2600
  162SAPE   H4Y18219   6.597   6.044   6.841  0.5109 -0.8843  0.6412
  162SAPE   C3518220   6.488   5.963   7.026 -0.4370  0.0800 -0.7321
  162SAPE   H5X18221   6.443   6.059   7.060 -1.1826 -0.4622 -0.1517
  162SAPE   H5Y18222   6.581   5.956   7.086 -1.6090 -2.4222  0.9701
  162SAPE   C3618223   6.404   5.850   7.072 -0.6264  0.6085  0.3567
  162SAPE   H6X18224   6.462   5.755   7.082 -1.9184 -0.2843 -0.2498
  162SAPE   H6Y18225   6.328   5.833   6.993 -0.1258  0.3501 -0.0764
  162SAPE   C3718226   6.332   5.883   7.206  0.1379 -0.1155  0.2110
  162SAPE   H7X18227   6.245   5.813   7.202  1.3636 -1.9834  3.2429
  162SAPE   H7Y18228   6.293   5.986   7.218 -1.7631 -0.5550 -1.5777
  162SAPE   C3818229   6.426   5.852   7.316  1.1650  0.3844  0.7494
  162SAPE   H8X18230   6.517   5.915   7.304  1.3634  0.1704  1.1164
  162SAPE   H8Y18231   6.459   5.746   7.309 -3.4843 -1.3209  0.8592
  162SAPE   C3918232   6.370   5.881   7.454 -0.3119 -0.6003  0.0843
  162SAPE   H9X18233   6.294   5.803   7.477 -0.3234 -0.9239 -0.9964
  162SAPE   H9Y18234   6.328   5.983   7.455  0.9308 -0.0624 -0.3138
  162SAPE  C31018235   6.481   5.876   7.554 -0.4421  0.3754 -0.4093
  162SAPE  H10X18236   6.571   5.933   7.522  0.0090 -1.0876 -1.8977
  162SAPE  H10Y18237   6.512   5.770   7.563 -0.5386  0.4149  0.4069
  162SAPE  C31118238   6.461   5.923   7.701  0.0691 -0.3294  0.3441
  162SAPE  H11X18239   6.351   5.909   7.716 -0.2371 -1.0787 -2.1422
  162SAPE  H11Y18240   6.474   6.033   7.699 -2.4540  0.0292 -0.6300
  162SAPE  C31218241   6.549   5.844   7.802  0.6257 -0.8075 -0.3747
  162SAPE  H12X18242   6.657   5.859   7.784  0.5120  1.2743  0.3757
  162SAPE  H12Y18243   6.526   5.739   7.774 -1.7942 -0.2148 -0.8782
  162SAPE  C31318244   6.522   5.877   7.948 -0.9970 -0.3185 -0.2732
  162SAPE  H13X18245   6.579   5.813   8.019  1.9691  3.0199  0.6305
  162SAPE  H13Y18246   6.412   5.865   7.962 -0.8041 -1.5766  0.2314
  162SAPE  C31418247   6.560   6.020   7.989 -0.1212 -0.8246  0.2241
  162SAPE  H14X18248   6.481   6.094   7.962 -0.3261 -1.4592 -0.9608
  162SAPE  H14Y18249   6.655   6.049   7.940  0.8433 -2.3355  1.1338
  162SAPE  C31518250   6.582   6.037   8.138  1.2513  0.9153  0.7863
  162SAPE  H15X18251   6.635   5.945   8.171 -0.8751 -0.0482  1.6933
  162SAPE  H15Y18252   6.488   6.028   8.196 -0.0858 -3.0241 -1.6713
  162SAPE  C31618253   6.654   6.167   8.175  0.1247 -0.1767 -0.7468
  162SAPE  H16X18254   6.595   6.251   8.133 -2.1132 -2.4262 -2.4425
  162SAPE  H16Y18255   6.758   6.169   8.135 -0.6764 -0.6128 -2.9892
  162SAPE  C31718256   6.661   6.182   8.329 -0.3563  0.1620  0.1467
  162SAPE  H17X18257   6.593   6.106   8.372 -0.2644 -0.7472 -1.2700
  162SAPE  H17Y18258   6.646   6.290   8.353  1.3132  0.7637 -1.3004
  162SAPE  C31818259   6.795   6.146   8.384 -0.2302 -0.2548 -0.4107
  162SAPE  H18X18260   6.792   6.163   8.494  0.6238 -0.1243 -0.4002
  162SAPE  H18Y18261   6.863   6.221   8.338 -2.4250  0.9769 -1.7981
  162SAPE  H18Z18262   6.819   6.037   8.375 -2.0716 -0.8340  1.0489
  163SAPE     N18263   4.825   5.589   6.684 -0.0680 -0.7485 -0.4480
  163SAPE   HN118264   4.780   5.532   6.758  1.3667 -1.0031  0.2730
  163SAPE   HN218265   4.746   5.612   6.621  0.0773  0.4375 -0.2275
  163SAPE   HN318266   4.883   5.525   6.625 -1.0971  0.3820 -2.8427
  163SAPE   C1218267   4.912   5.689   6.742 -0.2948  0.1204 -0.6647
  163SAPE  H12A18268   4.866   5.719   6.838  0.7917 -0.8765  0.2020
  163SAPE  H12B18269   4.915   5.778   6.676  0.9021 -0.5692 -1.5884
  163SAPE   C1118270   5.044   5.616   6.753  0.3958 -0.6268 -0.1462
  163SAPE  H11A18271   5.041   5.511   6.790 -1.4710 -1.5032 -2.5844
  163SAPE  H11B18272   5.109   5.675   6.822 -1.0011 -1.2224  1.7949
  163SAPE     P18273   5.259   5.623   6.598  0.3028 -0.5827  0.1232
  163SAPE   O1318274   5.333   5.499   6.630 -0.3014  0.1707 -0.6004
  163SAPE   O1418275   5.265   5.671   6.459 -0.3995 -0.0802 -0.5073
  163SAPE   O1218276   5.104   5.602   6.617  0.3641 -0.3759 -1.1612
  163SAPE   O1118277   5.301   5.737   6.696 -0.3923 -0.9486 -0.0355
  163SAPE    C118278   5.314   5.868   6.635 -0.1894 -0.5643  0.0280
  163SAPE    HA18279   5.395   5.876   6.559 -0.5444  0.5351 -0.2481
  163SAPE    HB18280   5.228   5.894   6.569 -0.2930 -2.7980 -0.8003
  163SAPE    C218281   5.332   5.984   6.745 -0.1630  0.0332  0.6409
  163SAPE    HS18282   5.431   5.969   6.793  0.2351 -1.1655 -0.4698
  163SAPE   O2118283   5.225   5.983   6.844 -0.1351 -0.1732  0.3669
  163SAPE   C2118284   5.245   5.895   6.950  0.0140 -0.3511 -0.3627
  163SAPE   O2218285   5.344   5.825   6.962  0.1694 -0.1576  0.5493
  163SAPE   C2218286   5.112   5.891   7.028 -0.4512 -0.1953 -0.3773
  163SAPE   H2R18287   5.104   5.981   7.093  1.1014  0.8945 -1.6183
  163SAPE   H2S18288   5.025   5.909   6.962 -2.0728 -0.3231  1.6012
  163SAPE    C318289   5.339   6.125   6.673  0.2618  0.7477 -0.2600
  163SAPE    HX18290   5.236   6.127   6.630 -1.1384 -1.0559  2.6661
  163SAPE    HY18291   5.412   6.125   6.590 -0.4418  0.7312 -0.8844
  163SAPE   O3118292   5.362   6.242   6.762  0.2192  0.6918  0.4731
  163SAPE   C3118293   5.480   6.268   6.815 -0.5527  0.4932  0.7076
  163SAPE   O3218294   5.578   6.201   6.784 -0.2703 -0.0692 -0.0048
  163SAPE   C3218295   5.473   6.385   6.910 -0.4316 -0.2468 -0.6830
  163SAPE   H2X18296   5.368   6.386   6.946 -0.0541 -0.3635  0.4678
  163SAPE   H2Y18297   5.485   6.483   6.859  0.0377  0.6208  1.0151
  163SAPE   C2318298   5.101   5.757   7.114 -0.5568  0.0541 -0.7287
  163SAPE   H3R18299   5.169   5.763   7.202 -0.2423 -0.2727 -0.9474
  163SAPE   H3S18300   5.129   5.667   7.056  2.6466  1.8416 -2.2294
  163SAPE   C2418301   4.956   5.741   7.177 -0.3556 -0.2769 -0.1082
  163SAPE   H4R18302   4.876   5.767   7.105 -1.1510 -0.6359  0.6338
  163SAPE   H4S18303   4.939   5.805   7.266 -0.4717 -0.8652  0.3013
  163SAPE   C2518304   4.924   5.600   7.215 -0.4038 -0.2067  0.4202
  163SAPE   H5R18305   5.018   5.544   7.214 -0.4750 -0.3852 -2.0838
  163SAPE   C2618306   4.807   5.536   7.228 -0.7211  0.7074 -0.1645
  163SAPE   H6R18307   4.806   5.434   7.270  0.8589  0.5749 -0.4094
  163SAPE   C2718308   4.669   5.600   7.204 -0.8458  0.1871  0.2210
  163SAPE   H7R18309   4.632   5.575   7.102 -0.9904 -2.0101  0.7624
  163SAPE   H7S18310   4.688   5.709   7.205  2.4435 -0.3090 -0.0058
  163SAPE   C2818311   4.558   5.566   7.308  0.2944  0.0023  0.4052
  163SAPE   H8R18312   4.465   5.522   7.268  1.8187 -1.1910 -2.0327
  163SAPE   C2918313   4.565   5.579   7.441 -0.4024 -0.3217  0.1866
  163SAPE   H9R18314   4.477   5.550   7.500 -0.4933 -0.5510 -0.0613
  163SAPE  C21018315   4.679   5.635   7.518  0.0520 -0.4447  0.0928
  163SAPE  H10R18316   4.717   5.729   7.472 -1.6284 -0.1139 -0.7180
  163SAPE  H10S18317   4.765   5.564   7.520  2.9691  2.6967 -2.4098
  163SAPE  C21118318   4.634   5.674   7.657 -0.1797 -0.5167  0.3281
  163SAPE  H11R18319   4.619   5.782   7.673 -0.9440 -0.7682  1.4546
  163SAPE  C21218320   4.619   5.593   7.767  0.0593 -0.0101  0.5569
  163SAPE  H12R18321   4.569   5.641   7.853 -0.9974  1.3970 -0.7794
  163SAPE  C21318322   4.646   5.440   7.770  0.0853  0.1010  0.1629
  163SAPE  H13R18323   4.625   5.386   7.675  0.6534 -0.8846  0.5748
  163SAPE  H13S18324   4.576   5.393   7.843 -1.9438  1.1136 -1.0512
  163SAPE  C21418325   4.786   5.427   7.824  0.0517 -0.5453 -0.2528
  163SAPE  H14R18326   4.867   5.401   7.754  1.1112 -3.5256  1.8718
  163SAPE  C21518327   4.826   5.438   7.953 -0.1971  0.0613  0.6913
  163SAPE  H15R18328   4.929   5.418   7.988 -0.8819  0.9405  3.5410
  163SAPE  C21618329   4.722   5.458   8.061 -0.4718  0.4321 -0.5914
  163SAPE  H16R18330   4.628   5.503   8.024  0.1671  1.2830 -1.2275
  163SAPE  H16S18331   4.757   5.510   8.153 -2.2922 -1.8149  1.5120
  163SAPE  C21718332   4.664   5.323   8.123 -0.4952 -0.7307 -1.1790
  163SAPE  H17R18333   4.748   5.249   8.125  1.2975  1.2112  0.6270
  163SAPE  H17S18334   4.585   5.298   8.049 -2.1450  0.5490  0.0585
  163SAPE  C21818335   4.604   5.325   8.264 -0.1644 -0.4922  0.4972
  163SAPE  H18R18336   4.688   5.349   8.333  0.1481 -0.5321  0.1396
  163SAPE  H18S18337   4.557   5.227   8.283  0.1369 -1.3883 -2.7018
  163SAPE  C21918338   4.501   5.437   8.278  0.5898  0.0188 -0.6716
  163SAPE  H19R18339   4.424   5.417   8.200 -1.8924  0.7296  1.4562
  163SAPE  H19S18340   4.536   5.540   8.256  0.4386  0.1833 -0.1558
  163SAPE  C22018341   4.447   5.437   8.424  0.0216 -0.2644 -0.3026
  163SAPE  H20R18342   4.520   5.466   8.503 -1.5146 -0.0640  1.1052
  163SAPE  H20S18343   4.403   5.338   8.448  2.5001 -1.1327  1.1379
  163SAPE  H20T18344   4.378   5.523   8.434  0.0032 -0.2567 -0.5080
  163SAPE   C3318345   5.568   6.361   7.028 -1.1051 -0.0007 -0.3216
  163SAPE   H3X18346   5.661   6.414   6.996 -1.7662  1.8509  0.7005
  163SAPE   H3Y18347   5.591   6.253   7.043  0.1580  0.3676  0.5974
  163SAPE   C3418348   5.534   6.433   7.162  0.7730  0.0929  0.2161
  163SAPE   H4X18349   5.437   6.389   7.193 -0.6552  0.6198 -3.0852
  163SAPE   H4Y18350   5.525   6.543   7.153  0.6848  0.0277 -0.5858
  163SAPE   C3518351   5.637   6.383   7.258 -0.6119  0.2801 -0.1355
  163SAPE   H5X18352   5.742   6.405   7.229 -0.0195 -0.9378  1.0120
  163SAPE   H5Y18353   5.639   6.273   7.271 -1.6590  0.3022  0.2642
  163SAPE   C3618354   5.608   6.434   7.399 -0.1244 -0.2190  1.2178
  163SAPE   H6X18355   5.505   6.418   7.437 -0.4448 -0.8289  0.1384
  163SAPE   H6Y18356   5.624   6.544   7.397  0.8177 -0.3553  0.1107
  163SAPE   C3718357   5.704   6.364   7.498  0.0741 -0.4326  0.2693
  163SAPE   H7X18358   5.800   6.339   7.449 -0.3806  0.1785 -0.9824
  163SAPE   H7Y18359   5.653   6.267   7.517 -0.4664 -0.1018  0.5255
  163SAPE   C3818360   5.724   6.450   7.631 -0.6021  0.3732  0.4996
  163SAPE   H8X18361   5.766   6.547   7.598 -0.7242  0.6911  1.2456
  163SAPE   H8Y18362   5.795   6.387   7.690  0.1354 -0.5731 -1.3305
  163SAPE   C3918363   5.596   6.472   7.698  0.2432  0.4574 -1.0344
  163SAPE   H9X18364   5.543   6.375   7.704  0.9591  0.1225  0.4811
  163SAPE   H9Y18365   5.540   6.551   7.644 -2.7465 -1.7015 -1.2955
  163SAPE  C31018366   5.624   6.527   7.846  0.1169  0.0542  0.7212
  163SAPE  H10X18367   5.659   6.631   7.831  1.2474 -0.4407 -0.1955
  163SAPE  H10Y18368   5.713   6.467   7.876  1.6529  1.6373 -0.4533
  163SAPE  C31118369   5.507   6.503   7.938 -0.3524  0.5238 -1.2666
  163SAPE  H11X18370   5.554   6.527   8.036 -0.0346  1.5830 -1.6710
  163SAPE  H11Y18371   5.475   6.397   7.931  0.5621  0.2176 -1.0032
  163SAPE  C31218372   5.383   6.593   7.922  1.0383  0.0282 -0.1422
  163SAPE  H12X18373   5.342   6.591   7.819 -1.9670 -2.2226  0.9342
  163SAPE  H12Y18374   5.410   6.698   7.943 -0.0611 -0.2420  3.3314
  163SAPE  C31318375   5.269   6.556   8.016  0.1958  0.0269 -0.1905
  163SAPE  H13X18376   5.231   6.456   7.986 -0.4775  0.2665 -0.1544
  163SAPE  H13Y18377   5.195   6.635   7.993 -0.2104 -0.8528 -2.1292
  163SAPE  C31418378   5.287   6.554   8.165  0.0898 -0.5190 -0.6377
  163SAPE  H14X18379   5.380   6.498   8.191 -0.6413 -1.2798  0.4409
  163SAPE  H14Y18380   5.204   6.505   8.221  2.5043 -3.2173  0.9100
  163SAPE  C31518381   5.311   6.692   8.226  0.1869  0.1286  0.7696
  163SAPE  H15X18382   5.231   6.764   8.200  0.2970 -0.3885 -1.1440
  163SAPE  H15Y18383   5.397   6.735   8.171 -1.1051  0.7097 -0.8682
  163SAPE  C31618384   5.333   6.678   8.381  0.3818 -0.1404 -0.1664
  163SAPE  H16X18385   5.243   6.632   8.426  0.3262 -0.9306 -1.0490
  163SAPE  H16Y18386   5.337   6.783   8.418 -0.7399 -1.1299  3.1462
  163SAPE  C31718387   5.458   6.607   8.426 -0.4675 -0.4786  0.3381
  163SAPE  H17X18388   5.547   6.656   8.381 -0.1896 -1.8503 -0.6580
  163SAPE  H17Y18389   5.457   6.502   8.391  0.6049 -0.7214  0.9847
  163SAPE  C31818390   5.474   6.590   8.575  0.3186  0.2866 -0.4739
  163SAPE  H18X18391   5.431   6.677   8.629  0.3016 -0.8618  1.4627
  163SAPE  H18Y18392   5.577   6.561   8.603  0.5946  0.6965 -1.0663
  163SAPE  H18Z18393   5.415   6.501   8.607 -0.7013  1.1490  0.1222
  164SAPE     N18394   2.657   2.366   6.002 -0.0759  0.1415 -0.4470
  164SAPE   HN118395   2.727   2.437   5.972  1.4075 -1.7621 -1.6768
  164SAPE   HN218396   2.676   2.279   5.948 -0.5604 -1.6765  2.0908
  164SAPE   HN318397   2.565   2.406   5.975  0.3745 -0.5071 -3.3027
  164SAPE   C1218398   2.674   2.338   6.144 -1.0170  0.8023 -0.8099
  164SAPE  H12A18399   2.665   2.437   6.193 -0.4074  0.2476  0.4923
  164SAPE  H12B18400   2.778   2.309   6.172 -0.7630  0.6145 -1.9040
  164SAPE   C1118401   2.568   2.235   6.192  0.1737 -0.0433 -0.2855
  164SAPE  H11A18402   2.470   2.286   6.192  0.3222  0.2517  0.1051
  164SAPE  H11B18403   2.601   2.221   6.298  1.1457  0.6756 -0.4787
  164SAPE     P18404   2.483   1.990   6.173 -0.0273 -0.5216 -0.2889
  164SAPE   O1318405   2.340   2.034   6.177  0.2634 -0.0561  0.0900
  164SAPE   O1418406   2.512   1.856   6.114 -0.0134 -0.4491  0.3809
  164SAPE   O1218407   2.576   2.111   6.125 -0.4002  0.1707  0.5117
  164SAPE   O1118408   2.522   1.981   6.324  0.2034  0.8469  0.4275
  164SAPE    C118409   2.434   1.967   6.426 -0.0340  0.2144 -0.4570
  164SAPE    HA18410   2.359   1.890   6.397  0.0257 -0.0303  0.0262
  164SAPE    HB18411   2.496   1.920   6.506 -0.4425  0.7650  0.1864
  164SAPE    C218412   2.366   2.097   6.477 -0.3869 -0.0692 -0.2110
  164SAPE    HS18413   2.338   2.152   6.385 -1.2969  1.3608  0.8687
  164SAPE   O2118414   2.458   2.173   6.553  0.2569 -0.5857 -1.0187
  164SAPE   C2118415   2.424   2.297   6.582  0.6083  0.6520 -0.5211
  164SAPE   O2218416   2.335   2.357   6.524  0.3797 -0.3841 -0.7012
  164SAPE   C2218417   2.496   2.343   6.714  0.7251  0.5269  0.2694
  164SAPE   H2R18418   2.606   2.346   6.698  0.6947  1.8404  0.1888
  164SAPE   H2S18419   2.482   2.453   6.723 -1.8562  0.2821  0.1402
  164SAPE    C318420   2.247   2.067   6.569  0.4548  0.4786  0.1797
  164SAPE    HX18421   2.284   2.035   6.668 -2.9991 -2.4011  0.7616
  164SAPE    HY18422   2.196   1.984   6.515 -1.4476  1.0152  1.0574
  164SAPE   O3118423   2.152   2.173   6.585  0.3961 -0.7488 -0.5872
  164SAPE   C3118424   2.022   2.150   6.568 -0.7136  0.5029  0.5080
  164SAPE   O3218425   1.968   2.048   6.530  0.5945 -0.0114 -0.0540
  164SAPE   C3218426   1.942   2.273   6.602 -0.5127 -0.6800  0.0862
  164SAPE   H2X18427   1.964   2.350   6.525  0.8412 -0.6302  0.4840
  164SAPE   H2Y18428   1.983   2.315   6.696  1.3371 -0.8220 -0.6093
  164SAPE   C2318429   2.445   2.269   6.842 -0.6363  0.7219  0.3372
  164SAPE   H3R18430   2.448   2.158   6.841  0.8708  0.6571  2.8743
  164SAPE   H3S18431   2.341   2.305   6.862 -0.2151  3.1952 -1.5125
  164SAPE   C2418432   2.531   2.303   6.966  0.6544  0.6150  0.3082
  164SAPE   H4R18433   2.493   2.398   7.010  0.1294  0.5607 -0.0208
  164SAPE   H4S18434   2.628   2.342   6.927  0.1786  1.5087  0.0016
  164SAPE   C2518435   2.559   2.203   7.075  0.0799 -0.5471 -0.2908
  164SAPE   H5R18436   2.491   2.118   7.092  0.7951 -0.7037  2.1680
  164SAPE   C2618437   2.657   2.213   7.161 -0.3387  0.2450 -0.8628
  164SAPE   H6R18438   2.674   2.136   7.237 -1.0936 -0.5769 -1.5053
  164SAPE   C2718439   2.765   2.323   7.168  0.2569  0.1722 -0.3478
  164SAPE   H7R18440   2.808   2.324   7.271 -1.9504 -0.4333  0.6324
  164SAPE   H7S18441   2.711   2.419   7.153  1.7713  1.0261 -0.5495
  164SAPE   C2818442   2.862   2.302   7.053  0.1042 -0.5356 -0.0400
  164SAPE   H8R18443   2.817   2.288   6.954  0.2325 -0.1672 -0.1509
  164SAPE   C2918444   2.992   2.315   7.059  0.3561  0.1963 -0.0440
  164SAPE   H9R18445   3.044   2.309   6.962  1.7903  0.4474  0.6785
  164SAPE  C21018446   3.077   2.347   7.171 -0.3236 -0.5706 -0.5683
  164SAPE  H10R18447   3.173   2.295   7.149  0.7091  1.1084 -0.2433
  164SAPE  H10S18448   3.034   2.304   7.263 -0.7720  0.3805 -0.3251
  164SAPE  C21118449   3.092   2.495   7.189 -0.5469 -0.4669 -0.1040
  164SAPE  H11R18450   3.082   2.554   7.097 -0.7692 -1.9452 -1.0497
  164SAPE  C21218451   3.106   2.565   7.307  0.1779  0.3197  0.5508
  164SAPE  H12R18452   3.123   2.674   7.305 -1.2931  0.5866  0.9074
  164SAPE  C21318453   3.104   2.509   7.452  0.5508  0.1251  0.5162
  164SAPE  H13R18454   3.151   2.586   7.517  0.3597 -1.0660  2.1286
  164SAPE  H13S18455   3.163   2.416   7.462  0.1595 -0.4469 -1.9235
  164SAPE  C21418456   2.961   2.481   7.500  0.3892  0.0064 -0.3077
  164SAPE  H14R18457   2.887   2.485   7.419  2.2365  1.0067 -2.0406
  164SAPE  C21518458   2.925   2.439   7.620 -0.7378  0.3526 -0.5965
  164SAPE  H15R18459   2.821   2.408   7.639 -0.1415 -2.1306 -1.0265
  164SAPE  C21618460   3.021   2.417   7.727  0.3152  0.3083  0.3724
  164SAPE  H16R18461   3.094   2.501   7.733 -1.4305  1.9345 -0.1400
  164SAPE  H16S18462   3.066   2.316   7.724  1.2796  0.7341 -2.1146
  164SAPE  C21718463   2.952   2.425   7.865  0.5517 -0.1259 -0.2360
  164SAPE  H17R18464   2.879   2.342   7.870  0.3489 -0.0865 -1.9339
  164SAPE  H17S18465   2.887   2.515   7.865 -0.2800 -0.7088  0.5925
  164SAPE  C21818466   3.035   2.436   7.995 -0.6452  0.2299  0.5172
  164SAPE  H18R18467   3.094   2.341   7.994  1.1848  1.2947 -0.9831
  164SAPE  H18S18468   2.974   2.436   8.087 -1.1883  1.7110  0.1788
  164SAPE  C21918469   3.134   2.554   8.011  0.6512 -0.0920 -0.6900
  164SAPE  H19R18470   3.075   2.648   8.017 -1.5083 -1.4224  0.2955
  164SAPE  H19S18471   3.206   2.559   7.927  2.7395 -2.6014  0.8118
  164SAPE  C22018472   3.219   2.548   8.140  0.4205 -0.1423 -0.1047
  164SAPE  H20R18473   3.279   2.640   8.157 -0.0286  0.1258  0.0447
  164SAPE  H20S18474   3.283   2.457   8.141  1.0381  0.2717 -1.0148
  164SAPE  H20T18475   3.149   2.546   8.226  0.5711 -1.7155  0.0179
  164SAPE   C3318476   1.792   2.253   6.611  0.7703  0.9034  0.1268
  164SAPE   H3X18477   1.757   2.161   6.663  0.1502  0.1109 -1.5901
  164SAPE   H3Y18478   1.752   2.245   6.507  2.2597 -1.6844 -0.3384
  164SAPE   C3418479   1.716   2.353   6.702  0.3431  0.3274  0.5574
  164SAPE   H4X18480   1.606   2.345   6.694  0.5418 -0.5745 -2.5877
  164SAPE   H4Y18481   1.735   2.442   6.637  1.4852 -0.7500 -0.6479
  164SAPE   C3518482   1.770   2.378   6.845 -0.3768 -0.0625 -0.6798
  164SAPE   H5X18483   1.703   2.463   6.870  0.6408  1.5120 -3.0686
  164SAPE   H5Y18484   1.872   2.419   6.850 -0.8403  1.0044  2.0543
  164SAPE   C3618485   1.759   2.251   6.932 -0.0825  0.3834  0.3365
  164SAPE   H6X18486   1.830   2.169   6.910 -0.0187 -0.1782  2.4103
  164SAPE   H6Y18487   1.663   2.208   6.898  1.4838 -1.6863 -1.7873
  164SAPE   C3718488   1.752   2.284   7.083 -0.7731 -0.0863 -0.7674
  164SAPE   H7X18489   1.668   2.354   7.103 -1.5977 -0.8055 -1.6258
  164SAPE   H7Y18490   1.848   2.327   7.120 -2.1943  2.0977  0.6309
  164SAPE   C3818491   1.710   2.166   7.170 -0.1377  0.0874 -1.1349
  164SAPE   H8X18492   1.767   2.071   7.159  1.3516  0.7221  0.5588
  164SAPE   H8Y18493   1.603   2.148   7.145 -0.6566 -0.8913  1.4547
  164SAPE   C3918494   1.704   2.207   7.318 -0.3392 -0.4122 -0.6227
  164SAPE   H9X18495   1.677   2.313   7.336  3.1625  0.4748  0.2615
  164SAPE   H9Y18496   1.811   2.219   7.346 -0.2364 -0.8019 -0.8360
  164SAPE  C31018497   1.626   2.107   7.403  0.3689 -0.5329  0.3332
  164SAPE  H10X18498   1.669   2.007   7.382 -1.4989 -1.6152  1.3901
  164SAPE  H10Y18499   1.522   2.104   7.365 -0.0577 -2.9637  1.5026
  164SAPE  C31118500   1.642   2.140   7.553 -0.0754 -0.4424  0.1860
  164SAPE  H11X18501   1.633   2.250   7.565  1.9917  0.2509 -3.0893
  164SAPE  H11Y18502   1.751   2.132   7.572  0.2642 -0.7728 -1.6604
  164SAPE  C31218503   1.556   2.049   7.645  0.2535  0.5263  0.5487
  164SAPE  H12X18504   1.597   1.945   7.640 -1.1143 -0.1522  2.4102
  164SAPE  H12Y18505   1.450   2.043   7.613 -0.2849 -1.9641  2.4178
  164SAPE  C31318506   1.568   2.093   7.792 -0.3536  0.3916  0.4483
  164SAPE  H13X18507   1.521   2.193   7.805  2.6702  2.4451 -2.6414
  164SAPE  H13Y18508   1.673   2.119   7.818 -0.1400 -1.0025  1.1092
  164SAPE  C31418509   1.508   1.999   7.894  0.4499  0.4974  0.0985
  164SAPE  H14X18510   1.575   1.911   7.904 -0.6917 -0.3461  0.4830
  164SAPE  H14Y18511   1.413   1.963   7.849  0.1118  1.5886 -0.1071
  164SAPE  C31518512   1.474   2.060   8.036  0.7060 -0.6615 -0.2513
  164SAPE  H15X18513   1.379   2.118   8.034  1.3140  0.5401  1.7218
  164SAPE  H15Y18514   1.556   2.132   8.058 -0.1761  0.1125  0.6256
  164SAPE  C31618515   1.459   1.954   8.136 -0.3280  0.2346  0.6331
  164SAPE  H16X18516   1.561   1.925   8.167  0.4727 -0.4656 -2.3332
  164SAPE  H16Y18517   1.400   1.869   8.096  0.1414  0.7551 -1.2499
  164SAPE  C31718518   1.387   2.010   8.256  0.4204  0.4036 -0.4027
  164SAPE  H17X18519   1.357   1.931   8.328  2.5764  0.4624  0.6533
  164SAPE  H17Y18520   1.290   2.056   8.229  0.3780  0.8433  0.4779
  164SAPE  C31818521   1.467   2.115   8.334  0.0734  0.3020  0.0354
  164SAPE  H18X18522   1.522   2.193   8.277  1.7368 -1.0174 -0.2504
  164SAPE  H18Y18523   1.548   2.068   8.394  0.0377 -2.1342 -1.6660
  164SAPE  H18Z18524   1.401   2.178   8.396  1.7997  1.5332  0.7082
  165SAPE     N18525   1.719   0.649   6.433  0.3152  0.7348  0.1040
  165SAPE   HN118526   1.656   0.637   6.351  1.5063 -1.8417 -0.5474
  165SAPE   HN218527   1.806   0.594   6.418 -0.4067 -0.3368 -0.2515
  165SAPE   HN318528   1.678   0.619   6.524  0.7874  1.5950  0.6242
  165SAPE   C1218529   1.747   0.800   6.455  0.1563 -0.1115  1.0540
  165SAPE  H12A18530   1.820   0.828   6.377 -0.3754 -0.0325  0.5787
  165SAPE  H12B18531   1.791   0.808   6.557 -2.1611 -0.3003  2.1567
  165SAPE   C1118532   1.618   0.878   6.452  0.3934 -0.2970 -0.3511
  165SAPE  H11A18533   1.622   0.983   6.487 -0.6389 -0.2285 -0.3854
  165SAPE  H11B18534   1.553   0.836   6.532 -1.6433  0.0986 -1.6997
  165SAPE     P18535   1.431   0.796   6.295 -0.4064  0.6107 -0.1929
  165SAPE   O1318536   1.377   0.830   6.164  0.6027  0.4924  0.5882
  165SAPE   O1418537   1.457   0.657   6.327 -0.3218 -0.5761 -0.0976
  165SAPE   O1218538   1.565   0.872   6.322 -0.3260  0.9200 -0.6792
  165SAPE   O1118539   1.335   0.852   6.413  0.0180 -0.2217  0.1742
  165SAPE    C118540   1.309   0.990   6.425 -0.3873 -0.2929  0.3713
  165SAPE    HA18541   1.405   1.042   6.444 -1.9203  3.8249 -1.8201
  165SAPE    HB18542   1.275   1.041   6.332 -1.3299 -1.5639 -0.0024
  165SAPE    C218543   1.230   1.024   6.559 -0.2865 -0.1329 -0.0728
  165SAPE    HS18544   1.225   1.132   6.585  2.1283  0.0731 -0.2282
  165SAPE   O2118545   1.285   0.945   6.672 -0.5037 -0.1434 -0.6654
  165SAPE   C2118546   1.401   0.980   6.712  0.3698 -0.4846 -0.0793
  165SAPE   O2218547   1.469   1.076   6.669 -0.1748  0.1456 -0.2012
  165SAPE   C2218548   1.445   0.875   6.813  0.0990  0.3319  0.7354
  165SAPE   H2R18549   1.371   0.855   6.895 -1.6095  2.4793 -0.1822
  165SAPE   H2S18550   1.467   0.778   6.763  1.7856  0.7713  0.5695
  165SAPE    C318551   1.086   0.974   6.529 -0.2349 -0.0404 -0.1867
  165SAPE    HX18552   1.090   0.870   6.491 -0.5045  0.8908 -3.0086
  165SAPE    HY18553   1.040   1.026   6.442  0.4872  1.8839  0.5256
  165SAPE   O3118554   1.011   0.987   6.650  0.3205 -0.5306 -0.5773
  165SAPE   C3118555   0.973   0.875   6.700  0.9020  0.3658 -1.2739
  165SAPE   O3218556   0.988   0.764   6.662  0.2111 -0.2885  0.3051
  165SAPE   C3218557   0.905   0.916   6.829  0.4736 -0.1731  0.2700
  165SAPE   H2X18558   0.795   0.926   6.813  0.2787 -2.3828 -0.0525
  165SAPE   H2Y18559   0.936   1.018   6.860  2.2873 -0.6211  0.0314
  165SAPE   C2318560   1.581   0.919   6.879 -0.1304 -0.1260 -0.2943
  165SAPE   H3R18561   1.552   1.010   6.936  0.0766  0.0801 -0.5158
  165SAPE   H3S18562   1.661   0.940   6.805 -0.1733  0.6262 -0.1309
  165SAPE   C2418563   1.643   0.812   6.972 -0.1962  0.0994  0.2272
  165SAPE   H4R18564   1.731   0.853   7.026 -0.1830  0.3281  0.0314
  165SAPE   H4S18565   1.675   0.729   6.906  1.2072  2.6406 -2.5366
  165SAPE   C2518566   1.551   0.759   7.078  0.1343 -0.6652 -0.2408
  165SAPE   H5R18567   1.445   0.749   7.051  0.4850 -1.5474 -1.3493
  165SAPE   C2618568   1.579   0.735   7.206 -0.2044  0.4462 -0.1166
  165SAPE   H6R18569   1.502   0.700   7.278  0.8020 -0.4723  0.5466
  165SAPE   C2718570   1.711   0.745   7.277  0.2301 -0.4635  0.1456
  165SAPE   H7R18571   1.690   0.823   7.354  0.5316 -0.2160 -0.0162
  165SAPE   H7S18572   1.795   0.791   7.220  3.3094 -2.3560  2.7860
  165SAPE   C2818573   1.747   0.611   7.334 -0.1900  0.6363  0.1282
  165SAPE   H8R18574   1.777   0.541   7.254 -0.7360  0.7257 -0.1608
  165SAPE   C2918575   1.732   0.574   7.460  0.8098  0.2742  0.7537
  165SAPE   H9R18576   1.757   0.470   7.485  0.4882  0.1839  0.7073
  165SAPE  C21018577   1.694   0.661   7.575  0.2929 -0.0016  0.9588
  165SAPE  H10R18578   1.585   0.650   7.597 -0.9529 -0.0291 -3.9692
  165SAPE  H10S18579   1.718   0.768   7.556 -2.0351  1.0815  3.4364
  165SAPE  C21118580   1.774   0.633   7.703 -0.0253 -0.7854 -0.1986
  165SAPE  H11R18581   1.883   0.651   7.692 -0.2441  0.5245 -0.4566
  165SAPE  C21218582   1.742   0.593   7.826  0.3870  0.0713 -0.8445
  165SAPE  H12R18583   1.831   0.570   7.887 -0.9048 -2.3352  0.2545
  165SAPE  C21318584   1.598   0.571   7.884 -0.4788  0.0136  0.5988
  165SAPE  H13R18585   1.527   0.622   7.816  2.1656  2.1775 -0.7408
  165SAPE  H13S18586   1.602   0.640   7.971  0.3931  1.2362 -0.3730
  165SAPE  C21418587   1.552   0.433   7.903  0.0823  0.3546 -0.3658
  165SAPE  H14R18588   1.504   0.390   7.814 -0.1689  3.2482 -1.7492
  165SAPE  C21518589   1.557   0.364   8.016  0.1622 -0.9927  0.2407
  165SAPE  H15R18590   1.512   0.264   8.014 -2.0170 -0.0597 -1.3390
  165SAPE  C21618591   1.608   0.400   8.154 -0.8089 -0.1406  0.4520
  165SAPE  H16R18592   1.531   0.396   8.233  0.2125  2.1158  1.6591
  165SAPE  H16S18593   1.648   0.504   8.150 -0.2382 -0.3396  0.9025
  165SAPE  C21718594   1.731   0.313   8.207 -0.2497  0.7473  0.7892
  165SAPE  H17R18595   1.803   0.366   8.273  0.4880  1.0240 -0.2234
  165SAPE  H17S18596   1.797   0.291   8.121  3.3744  3.0152  2.7476
  165SAPE  C21818597   1.676   0.195   8.294 -0.1051 -0.6430 -0.0538
  165SAPE  H18R18598   1.611   0.126   8.235 -2.3155  3.0085 -2.2182
  165SAPE  H18S18599   1.619   0.241   8.378 -0.8070 -2.0334  0.2727
  165SAPE  C21918600   1.787   0.112   8.363  0.3405 -0.5867  0.1432
  165SAPE  H19R18601   1.855   0.173   8.426 -0.1356  1.3551 -1.1038
  165SAPE  H19S18602   1.855   0.075   8.284  0.2481  0.7699 -0.6059
  165SAPE  C22018603   1.729  -0.000   8.446  0.7576  0.3484 -0.8382
  165SAPE  H20R18604   1.802  -0.076   8.482 -0.6577  0.2111  2.0763
  165SAPE  H20S18605   1.646  -0.043   8.387  0.3990  1.4211 -1.1402
  165SAPE  H20T18606   1.683   0.037   8.541 -0.5168 -0.7812 -0.9821
  165SAPE   C3318607   0.926   0.836   6.961  1.1054  0.1850 -0.5583
  165SAPE   H3X18608   1.035   0.833   6.980  0.8369 -1.6885  1.0002
  165SAPE   H3Y18609   0.897   0.730   6.947  1.1631 -0.4633  3.1738
  165SAPE   C3418610   0.860   0.893   7.090 -0.2242  0.5117 -1.0069
  165SAPE   H4X18611   0.750   0.907   7.083 -0.7614 -1.8351  1.1612
  165SAPE   H4Y18612   0.906   0.993   7.105 -3.0505  2.0902 -2.0860
  165SAPE   C3518613   0.894   0.813   7.215 -0.8179 -0.3460  0.0339
  165SAPE   H5X18614   1.004   0.807   7.233 -0.9224  0.3968  0.9832
  165SAPE   H5Y18615   0.859   0.707   7.206  0.5548 -0.8084 -0.0906
  165SAPE   C3618616   0.843   0.875   7.341  0.3781  0.1782  0.3634
  165SAPE   H6X18617   0.734   0.865   7.362  0.3350  1.2643  0.7613
  165SAPE   H6Y18618   0.867   0.984   7.343  2.2153 -0.1870  0.0557
  165SAPE   C3718619   0.909   0.809   7.460  0.2269 -0.7481  0.1948
  165SAPE   H7X18620   1.015   0.838   7.451 -0.6210  2.2094 -1.6133
  165SAPE   H7Y18621   0.904   0.698   7.463  0.2198 -0.7319  1.1070
  165SAPE   C3818622   0.852   0.871   7.594 -0.5661  0.6426 -0.9262
  165SAPE   H8X18623   0.881   0.978   7.592 -0.7519  0.7014 -0.6498
  165SAPE   H8Y18624   0.909   0.822   7.676 -1.4865 -0.3835 -0.8824
  165SAPE   C3918625   0.699   0.866   7.619 -0.5142  0.0905  0.3308
  165SAPE   H9X18626   0.659   0.763   7.614  0.1760 -0.3969  3.1466
  165SAPE   H9Y18627   0.634   0.923   7.550 -2.6483 -0.7222  1.5647
  165SAPE  C31018628   0.659   0.925   7.757 -0.4145 -0.8279  0.3141
  165SAPE  H10X18629   0.555   0.963   7.746 -0.1329 -0.1118  0.0042
  165SAPE  H10Y18630   0.731   1.008   7.776 -0.6492 -1.0092  2.2127
  165SAPE  C31118631   0.648   0.833   7.875  0.2831 -0.0522 -0.8913
  165SAPE  H11X18632   0.750   0.794   7.897  1.3156  3.1587  0.5704
  165SAPE  H11Y18633   0.573   0.751   7.870 -1.2500  1.3056 -0.9276
  165SAPE  C31218634   0.598   0.925   7.997 -0.1913  0.0866  0.1554
  165SAPE  H12X18635   0.493   0.942   7.965  0.3876  1.4797 -1.1302
  165SAPE  H12Y18636   0.655   1.020   7.998 -0.5203  0.2862  0.0814
  165SAPE  C31318637   0.602   0.861   8.134 -0.1133 -0.7842  0.0399
  165SAPE  H13X18638   0.551   0.762   8.133  0.7526 -1.2337 -0.1104
  165SAPE  H13Y18639   0.543   0.929   8.199  1.2956  1.3633 -0.8114
  165SAPE  C31418640   0.741   0.828   8.191 -0.4192 -0.4885  0.2780
  165SAPE  H14X18641   0.815   0.906   8.165 -0.8447  0.2642  1.2565
  165SAPE  H14Y18642   0.766   0.732   8.141 -0.0532 -0.1761 -0.1437
  165SAPE  C31518643   0.744   0.823   8.344  0.7446 -0.3637  0.2584
  165SAPE  H15X18644   0.713   0.922   8.381 -0.2618 -0.4670 -0.2687
  165SAPE  H15Y18645   0.847   0.818   8.383 -0.6278 -1.2070  4.1915
  165SAPE  C31618646   0.650   0.721   8.405  0.1199  0.6779  0.2527
  165SAPE  H16X18647   0.682   0.617   8.382  0.8795  1.0235 -0.2955
  165SAPE  H16Y18648   0.547   0.732   8.364  0.5685  0.1575 -1.0769
  165SAPE  C31718649   0.620   0.729   8.557 -0.0469  0.1857  0.5323
  165SAPE  H17X18650   0.601   0.834   8.589  0.0116 -0.5604  3.2561
  165SAPE  H17Y18651   0.705   0.714   8.628 -0.8003  2.9774  2.1935
  165SAPE  C31818652   0.512   0.634   8.603  0.0999 -0.1960 -0.1002
  165SAPE  H18X18653   0.419   0.647   8.544 -0.3763  1.0134  0.8800
  165SAPE  H18Y18654   0.496   0.660   8.709 -0.8617  2.1258 -0.7630
  165SAPE  H18Z18655   0.551   0.529   8.606  0.8473  0.0951  2.4945
  166SAPE     N18656   1.863   2.686   6.048  0.3539  0.5292 -0.0707
  166SAPE   HN118657   1.931   2.723   6.117  1.0629 -2.6102  1.0963
  166SAPE   HN218658   1.773   2.675   6.100  0.2831 -1.2334 -0.4975
  166SAPE   HN318659   1.886   2.589   6.018 -0.1923 -1.2601  4.5630
  166SAPE   C1218660   1.865   2.766   5.920  0.2333 -0.0084  0.4292
  166SAPE  H12A18661   1.954   2.733   5.861  0.4328  0.0228  0.7144
  166SAPE  H12B18662   1.878   2.870   5.956  0.6285 -0.2702  1.0553
  166SAPE   C1118663   1.744   2.744   5.831  0.7943 -1.2149 -0.4536
  166SAPE  H11A18664   1.745   2.634   5.813  1.0458 -1.2076 -0.4933
  166SAPE  H11B18665   1.748   2.801   5.736  1.2245 -1.3457 -0.5138
  166SAPE     P18666   1.487   2.738   5.843  0.2082 -0.2491 -0.3203
  166SAPE   O1318667   1.481   2.816   5.717 -0.0468 -0.0008  0.5316
  166SAPE   O1418668   1.495   2.588   5.834  0.2343 -0.5121  0.4240
  166SAPE   O1218669   1.628   2.782   5.901 -0.1510  0.0358  0.2114
  166SAPE   O1118670   1.381   2.781   5.950 -0.1636 -0.0770  0.6182
  166SAPE    C118671   1.400   2.892   6.033  0.1127 -0.1059 -0.1150
  166SAPE    HA18672   1.438   2.981   5.979  0.8227 -0.8554 -0.8789
  166SAPE    HB18673   1.301   2.925   6.072 -0.2120 -1.5682  0.3516
  166SAPE    C218674   1.488   2.875   6.156  0.0260 -0.9086  0.0657
  166SAPE    HS18675   1.588   2.869   6.108 -0.4170 -0.4447 -0.9602
  166SAPE   O2118676   1.444   2.763   6.230 -0.2432 -0.1462 -0.4164
  166SAPE   C2118677   1.518   2.656   6.238 -0.8407  0.7488 -0.2763
  166SAPE   O2218678   1.630   2.648   6.192 -0.6400 -0.1234 -0.1199
  166SAPE   C2218679   1.451   2.543   6.325 -0.0617  0.1105  0.0210
  166SAPE   H2R18680   1.355   2.523   6.272 -0.6451 -2.2572  1.8047
  166SAPE   H2S18681   1.503   2.446   6.310 -0.9904 -0.0551 -2.4902
  166SAPE    C318682   1.477   2.995   6.253  0.1501  0.0802 -0.3478
  166SAPE    HX18683   1.373   3.022   6.283  1.1382  2.8522  0.9039
  166SAPE    HY18684   1.517   3.089   6.209 -2.1288  1.7645  0.9319
  166SAPE   O3118685   1.552   2.957   6.374 -0.5929  0.4026  0.4024
  166SAPE   C3118686   1.674   2.996   6.389  0.3877  0.0189  0.1043
  166SAPE   O3218687   1.739   3.057   6.308 -1.1435 -0.5983  0.2670
  166SAPE   C3218688   1.724   2.957   6.533 -0.1196  0.1559  0.4982
  166SAPE   H2X18689   1.634   2.935   6.594 -0.4262  1.4671  0.5500
  166SAPE   H2Y18690   1.782   3.045   6.571  1.8947 -0.1681 -1.6462
  166SAPE   C2318691   1.424   2.575   6.476 -0.1496  0.5041  0.5559
  166SAPE   H3R18692   1.523   2.598   6.522  0.7920 -1.2094 -0.5176
  166SAPE   H3S18693   1.396   2.479   6.523 -0.3134  0.0229 -0.5005
  166SAPE   C2418694   1.312   2.678   6.503 -0.5998 -0.4704  0.6928
  166SAPE   H4R18695   1.247   2.668   6.414 -4.0344 -1.5499  3.0922
  166SAPE   H4S18696   1.361   2.778   6.506 -0.3789 -0.2392 -3.9235
  166SAPE   C2518697   1.223   2.654   6.621 -0.0778  0.0129 -0.0981
  166SAPE   H5R18698   1.115   2.667   6.605  0.0786  1.0707 -0.3703
  166SAPE   C2618699   1.253   2.629   6.748 -0.4016  0.6624 -0.2868
  166SAPE   H6R18700   1.168   2.611   6.817  0.4980  0.6890  0.8613
  166SAPE   C2718701   1.379   2.611   6.826  0.2762 -0.0354 -0.7908
  166SAPE   H7R18702   1.385   2.692   6.902 -1.7266 -0.9697  0.4529
  166SAPE   H7S18703   1.464   2.618   6.755  0.8992 -0.1870 -0.0725
  166SAPE   C2818704   1.366   2.479   6.893 -0.2718  0.4691  0.4703
  166SAPE   H8R18705   1.386   2.390   6.832 -3.5905 -0.8958  1.1362
  166SAPE   C2918706   1.334   2.452   7.022 -0.8893 -0.4497  0.1606
  166SAPE   H9R18707   1.357   2.348   7.052  0.6362 -0.6223 -1.4526
  166SAPE  C21018708   1.311   2.558   7.130  0.6076 -0.0868 -0.3395
  166SAPE  H10R18709   1.203   2.584   7.138  0.5411 -0.6871  0.8131
  166SAPE  H10S18710   1.349   2.659   7.103 -3.2438  1.4587 -0.6259
  166SAPE  C21118711   1.379   2.522   7.261 -0.3204 -0.1181 -0.3181
  166SAPE  H11R18712   1.489   2.529   7.262 -0.1591 -2.1768  0.7110
  166SAPE  C21218713   1.326   2.461   7.373 -0.0776 -0.1014 -0.1567
  166SAPE  H12R18714   1.398   2.456   7.455 -0.3159 -1.6773 -0.0178
  166SAPE  C21318715   1.184   2.418   7.395  0.8548  0.4164 -0.2253
  166SAPE  H13R18716   1.117   2.420   7.306 -0.2419 -0.4615  0.5470
  166SAPE  H13S18717   1.145   2.490   7.470  2.2027 -0.7577  1.7042
  166SAPE  C21418718   1.161   2.275   7.445 -0.4678 -0.4120 -1.0286
  166SAPE  H14R18719   1.152   2.197   7.369 -0.3596 -1.3141 -0.1341
  166SAPE  C21518720   1.168   2.236   7.578  0.2267  0.3452  0.2224
  166SAPE  H15R18721   1.173   2.129   7.601 -0.5973  0.2984  0.2080
  166SAPE  C21618722   1.212   2.309   7.700 -0.1675 -0.7428  0.1879
  166SAPE  H16R18723   1.197   2.417   7.679 -0.6182 -0.4807  1.7531
  166SAPE  H16S18724   1.320   2.295   7.719  0.1021 -0.0981 -0.8067
  166SAPE  C21718725   1.124   2.292   7.831  0.7096  0.5098 -0.4382
  166SAPE  H17R18726   1.026   2.339   7.808  0.8064  0.3863 -1.1313
  166SAPE  H17S18727   1.186   2.346   7.905  1.3377  0.4471 -0.9125
  166SAPE  C21818728   1.110   2.145   7.875 -0.5711  0.9719  0.3214
  166SAPE  H18R18729   1.207   2.091   7.881 -1.3526 -0.8104 -1.7388
  166SAPE  H18S18730   1.042   2.087   7.810 -0.7558 -0.3103  1.6075
  166SAPE  C21918731   1.067   2.133   8.024  0.0804 -0.3393  0.4684
  166SAPE  H19R18732   0.973   2.193   8.032 -0.0916 -0.6619  0.8931
  166SAPE  H19S18733   1.152   2.172   8.084  0.0813  1.7731 -0.7823
  166SAPE  C22018734   1.055   1.983   8.065  0.5848  0.1272 -0.4867
  166SAPE  H20R18735   1.148   1.931   8.033  0.4309  0.0044 -0.7384
  166SAPE  H20S18736   0.960   1.939   8.028  0.0675 -0.0612  0.9756
  166SAPE  H20T18737   1.050   1.985   8.176 -2.4689 -0.2184 -0.5163
  166SAPE   C3318738   1.807   2.825   6.527  0.3921  0.7860 -0.7915
  166SAPE   H3X18739   1.914   2.851   6.512  1.0139 -0.1466  1.6480
  166SAPE   H3Y18740   1.775   2.759   6.443 -0.7322  0.5472 -0.2015
  166SAPE   C3418741   1.786   2.738   6.656 -0.0733  0.3017 -0.5135
  166SAPE   H4X18742   1.844   2.644   6.650 -0.5570 -0.3056  2.5345
  166SAPE   H4Y18743   1.680   2.706   6.662 -0.7847  2.6315  0.9614
  166SAPE   C3518744   1.813   2.813   6.790 -0.2332  0.1143 -0.5373
  166SAPE   H5X18745   1.753   2.905   6.805 -0.8120 -0.4536  0.7751
  166SAPE   H5Y18746   1.922   2.835   6.799 -0.3445 -0.0660  2.4398
  166SAPE   C3618747   1.757   2.724   6.906 -0.2176  0.7403  0.2988
  166SAPE   H6X18748   1.812   2.628   6.913 -0.6420  0.2012 -2.5411
  166SAPE   H6Y18749   1.654   2.697   6.875 -0.4081 -1.1564  2.4017
  166SAPE   C3718750   1.754   2.793   7.042  0.1145 -0.2127 -0.0368
  166SAPE   H7X18751   1.698   2.885   7.016 -0.1756 -0.7706 -1.5229
  166SAPE   H7Y18752   1.858   2.802   7.079  0.7791 -3.7907 -0.6462
  166SAPE   C3818753   1.672   2.711   7.141  0.4651  0.1471 -0.1652
  166SAPE   H8X18754   1.698   2.604   7.127  1.0123 -0.0210  1.7758
  166SAPE   H8Y18755   1.570   2.735   7.107 -0.0163  0.4195  1.3908
  166SAPE   C3918756   1.685   2.757   7.286 -0.3985 -0.0384  0.3153
  166SAPE   H9X18757   1.595   2.724   7.343 -1.9118  1.7444 -0.9319
  166SAPE   H9Y18758   1.693   2.865   7.308  0.4628  0.3345 -1.6494
  166SAPE  C31018759   1.819   2.688   7.340 -0.2267 -0.9008  0.0898
  166SAPE  H10X18760   1.907   2.743   7.301 -1.8721  1.0248 -1.1223
  166SAPE  H10Y18761   1.833   2.585   7.301  2.0525 -0.8003  0.5184
  166SAPE  C31118762   1.823   2.683   7.490  0.7638  0.4543 -0.1931
  166SAPE  H11X18763   1.816   2.789   7.525 -0.1531  0.1254  0.6664
  166SAPE  H11Y18764   1.916   2.643   7.537  0.1933 -0.4938  0.1445
  166SAPE  C31218765   1.708   2.598   7.548 -0.2996 -0.0169  0.0020
  166SAPE  H12X18766   1.713   2.498   7.500 -0.2253 -1.1621  2.2655
  166SAPE  H12Y18767   1.609   2.648   7.532  0.9935  1.8148 -3.0104
  166SAPE  C31318768   1.724   2.579   7.702 -0.2638  0.0245 -0.6302
  166SAPE  H13X18769   1.745   2.680   7.744  1.0780 -0.5280  0.1039
  166SAPE  H13Y18770   1.822   2.529   7.721  0.2481  0.5603 -1.7346
  166SAPE  C31418771   1.595   2.525   7.758  0.3408  0.7329 -0.2106
  166SAPE  H14X18772   1.577   2.431   7.702 -3.5612  1.1933 -0.0142
  166SAPE  H14Y18773   1.511   2.594   7.735 -1.6424 -2.0679 -1.9669
  166SAPE  C31518774   1.601   2.495   7.908  0.5652 -0.0177 -0.2600
  166SAPE  H15X18775   1.654   2.574   7.966  2.1217 -1.8559  0.9625
  166SAPE  H15Y18776   1.659   2.401   7.925 -0.6795 -0.3560  2.8775
  166SAPE  C31618777   1.465   2.477   7.974 -0.4143 -0.0462 -0.5637
  166SAPE  H16X18778   1.422   2.398   7.909  0.8580 -1.2934  0.0426
  166SAPE  H16Y18779   1.391   2.559   7.977 -1.1269 -0.7113  1.8705
  166SAPE  C31718780   1.477   2.445   8.119 -1.2375 -0.0684 -0.2443
  166SAPE  H17X18781   1.528   2.530   8.168 -0.6868 -0.1880 -0.6040
  166SAPE  H17Y18782   1.537   2.353   8.138 -1.6920 -0.0662  1.3308
  166SAPE  C31818783   1.336   2.430   8.182  0.1218 -0.0166 -0.0427
  166SAPE  H18X18784   1.318   2.329   8.224  0.8127 -0.5592 -1.0129
  166SAPE  H18Y18785   1.257   2.467   8.113 -0.1416  1.2692  0.9073
  166SAPE  H18Z18786   1.332   2.499   8.269  0.4935  0.4492 -0.3868
  167SAPE     N18787   0.145   2.159   6.224 -0.1817  0.7923  0.4924
  167SAPE   HN118788   0.182   2.121   6.134 -1.1368  1.0100 -0.0023
  167SAPE   HN218789   0.175   2.090   6.296 -1.1389 -1.6698 -1.3270
  167SAPE   HN318790   0.042   2.152   6.224 -0.2255  1.2851  1.5832
  167SAPE   C1218791   0.190   2.300   6.234 -1.1500 -0.1761 -0.2942
  167SAPE  H12A18792   0.162   2.335   6.336 -2.8475  0.4480 -0.9257
  167SAPE  H12B18793   0.142   2.366   6.158 -0.9396  1.0481  0.6092
  167SAPE   C1118794   0.350   2.303   6.229  0.1613  0.1674 -0.3054
  167SAPE  H11A18795   0.388   2.288   6.333 -3.0512  1.8447  1.2416
  167SAPE  H11B18796   0.380   2.408   6.210  0.7218 -0.0341 -0.5635
  167SAPE     P18797   0.490   2.096   6.173 -0.0978 -0.4110  0.3120
  167SAPE   O1318798   0.406   1.985   6.219 -0.5415  0.0964  0.2116
  167SAPE   O1418799   0.580   2.060   6.063  0.7131  0.6933  0.1420
  167SAPE   O1218800   0.403   2.212   6.129  0.5110  0.0365  0.0222
  167SAPE   O1118801   0.582   2.162   6.292  0.2933  0.4439  0.0782
  167SAPE    C118802   0.684   2.077   6.349 -0.6343 -0.4872  0.6318
  167SAPE    HA18803   0.701   1.982   6.293 -1.0011 -0.4799  0.5061
  167SAPE    HB18804   0.781   2.131   6.352 -0.0927 -1.4592  1.1419
  167SAPE    C218805   0.670   2.050   6.499 -0.1324  0.5164 -0.2936
  167SAPE    HS18806   0.598   1.967   6.516  3.5289 -2.4856  2.0157
  167SAPE   O2118807   0.637   2.168   6.574 -0.4474 -0.2120  0.1292
  167SAPE   C2118808   0.510   2.204   6.574 -0.3611  0.3322  0.0608
  167SAPE   O2218809   0.415   2.138   6.539  0.0666  0.2131 -0.4475
  167SAPE   C2218810   0.491   2.347   6.634  0.0492 -0.0153  0.2246
  167SAPE   H2R18811   0.526   2.426   6.564 -0.7758  2.3578  2.3230
  167SAPE   H2S18812   0.381   2.365   6.636  0.1071  0.3512  0.1400
  167SAPE    C318813   0.803   1.988   6.555  0.1800  0.2386 -0.9773
  167SAPE    HX18814   0.881   2.066   6.567  0.1307 -0.0663  2.2842
  167SAPE    HY18815   0.843   1.911   6.486  0.3943 -0.6117  0.0552
  167SAPE   O3118816   0.772   1.915   6.678  0.1663  0.4076  0.0386
  167SAPE   C3118817   0.861   1.927   6.776 -1.1165  0.1584  0.5888
  167SAPE   O3218818   0.973   1.974   6.755  0.8340 -0.3394 -0.3847
  167SAPE   C3218819   0.810   1.860   6.901 -0.1349 -0.3597 -0.0613
  167SAPE   H2X18820   0.811   1.749   6.902  3.2211 -0.4523  1.6674
  167SAPE   H2Y18821   0.703   1.886   6.915 -0.2443 -0.2648 -0.9937
  167SAPE   C2318822   0.547   2.372   6.776  0.4528 -0.6431 -0.4774
  167SAPE   H3R18823   0.542   2.483   6.783 -3.0072 -0.6934 -0.4825
  167SAPE   H3S18824   0.653   2.341   6.786  1.0753  0.9441 -1.6127
  167SAPE   C2418825   0.458   2.313   6.891 -1.1162 -0.5947 -0.4055
  167SAPE   H4R18826   0.362   2.360   6.860 -0.0227  1.3088 -1.0455
  167SAPE   H4S18827   0.485   2.369   6.983 -0.6111  0.7408 -1.3361
  167SAPE   C2518828   0.460   2.163   6.914 -0.1432 -0.3743 -0.4458
  167SAPE   H5R18829   0.475   2.107   6.820 -3.2911  0.8880 -1.8535
  167SAPE   C2618830   0.450   2.103   7.028  0.4674  0.9530 -0.0563
  167SAPE   H6R18831   0.432   1.995   7.028 -1.2085  1.1188  3.2572
  167SAPE   C2718832   0.435   2.156   7.168  1.0912  0.3286 -0.2541
  167SAPE   H7R18833   0.463   2.264   7.166 -2.2249  1.3066 -1.5221
  167SAPE   H7S18834   0.503   2.104   7.238  0.8259 -0.6402 -0.7026
  167SAPE   C2818835   0.295   2.141   7.217 -0.2048  0.0747  0.0858
  167SAPE   H8R18836   0.225   2.084   7.154  0.7885 -0.0449 -0.9295
  167SAPE   C2918837   0.233   2.201   7.327  0.0458 -0.1859 -0.7628
  167SAPE   H9R18838   0.137   2.163   7.362  1.8385 -1.2978  3.5452
  167SAPE  C21018839   0.316   2.283   7.418  0.2773 -0.2693 -0.3158
  167SAPE  H10R18840   0.414   2.302   7.369  0.6775 -2.8782 -0.6780
  167SAPE  H10S18841   0.336   2.232   7.515 -1.0636  0.0407  0.1429
  167SAPE  C21118842   0.251   2.417   7.445  0.5793 -0.3972 -1.0642
  167SAPE  H11R18843   0.232   2.470   7.351  0.2608  1.1333 -0.1584
  167SAPE  C21218844   0.225   2.479   7.562  0.3962  0.5195 -0.2972
  167SAPE  H12R18845   0.183   2.581   7.567 -1.3762 -0.2186  0.8452
  167SAPE  C21318846   0.259   2.405   7.692 -0.5955 -0.1906 -0.1021
  167SAPE  H13R18847   0.365   2.374   7.696 -0.0315  1.7195  0.8187
  167SAPE  H13S18848   0.205   2.308   7.695  0.8238 -0.9944  2.1505
  167SAPE  C21418849   0.225   2.478   7.820  0.1964 -0.9363  0.8007
  167SAPE  H14R18850   0.296   2.554   7.856 -1.8048  1.4249  0.0137
  167SAPE  C21518851   0.119   2.447   7.903 -0.1510 -0.2599  0.7693
  167SAPE  H15R18852   0.111   2.504   7.996  2.1674 -0.7017  1.3061
  167SAPE  C21618853   0.006   2.346   7.877  0.0415  0.5912 -0.5542
  167SAPE  H16R18854  -0.007   2.315   7.771  1.0002  0.5323 -0.6567
  167SAPE  H16S18855  -0.096   2.388   7.890  0.0989  1.0494 -1.5031
  167SAPE  C21718856   0.026   2.211   7.957  0.3187 -0.7029 -0.0556
  167SAPE  H17R18857   0.132   2.180   7.954 -0.2072 -2.5422 -1.0252
  167SAPE  H17S18858  -0.038   2.135   7.907 -3.2202  2.1624 -0.2847
  167SAPE  C21818859  -0.001   2.210   8.113 -0.2141  0.1235  0.3806
  167SAPE  H18R18860   0.061   2.297   8.143  0.9499  0.0247 -1.5159
  167SAPE  H18S18861   0.051   2.121   8.155 -2.7158 -1.4762  0.2919
  167SAPE  C21918862  -0.152   2.210   8.163  0.0503 -0.5504 -0.0995
  167SAPE  H19R18863  -0.213   2.122   8.134 -3.3928  1.0231  1.7726
  167SAPE  H19S18864  -0.198   2.300   8.117 -1.6496 -1.6423 -0.6038
  167SAPE  C22018865  -0.167   2.209   8.309  0.4450  0.0767 -0.1473
  167SAPE  H20R18866  -0.079   2.238   8.370  0.6556 -1.8254  0.5287
  167SAPE  H20S18867  -0.201   2.112   8.351 -1.2813 -0.0999 -1.8305
  167SAPE  H20T18868  -0.242   2.286   8.339 -0.5870 -0.9826  0.0788
  167SAPE   C3318869   0.875   1.931   7.022 -0.3973  0.2789 -1.0685
  167SAPE   H3X18870   0.862   2.041   7.028 -0.0537  0.2187  2.8173
  167SAPE   H3Y18871   0.980   1.896   7.012 -0.1388  1.4755 -3.2004
  167SAPE   C3418872   0.806   1.866   7.142  0.3551 -0.5113  0.2195
  167SAPE   H4X18873   0.803   1.755   7.140  2.9618 -0.7036 -2.9075
  167SAPE   H4Y18874   0.704   1.908   7.138  0.9430  0.9909  0.6033
  167SAPE   C3518875   0.856   1.923   7.274  0.5007 -0.1825 -0.3266
  167SAPE   H5X18876   0.831   2.031   7.262  2.2997  0.4271  0.9587
  167SAPE   H5Y18877   0.964   1.909   7.296  0.6290  1.1863 -0.0069
  167SAPE   C3618878   0.769   1.874   7.395  0.0119 -0.2980  0.4018
  167SAPE   H6X18879   0.741   1.767   7.393 -0.7962 -0.1068 -2.4159
  167SAPE   H6Y18880   0.669   1.923   7.388  0.5170  0.7318  0.1402
  167SAPE   C3718881   0.831   1.919   7.533 -0.6336  0.4340  0.4302
  167SAPE   H7X18882   0.856   2.027   7.541 -0.9358  0.5538 -0.2308
  167SAPE   H7Y18883   0.925   1.859   7.524 -0.3211  1.2238 -2.9631
  167SAPE   C3818884   0.744   1.851   7.639  0.2412  0.3998  0.7110
  167SAPE   H8X18885   0.716   1.750   7.601 -0.8017 -0.2361  3.0388
  167SAPE   H8Y18886   0.644   1.899   7.644 -0.0027  0.2992 -1.7609
  167SAPE   C3918887   0.814   1.823   7.774  0.1542  0.4793 -0.4816
  167SAPE   H9X18888   0.835   1.915   7.833  2.5824 -2.0897  3.0474
  167SAPE   H9Y18889   0.915   1.780   7.755  0.9654  1.0143  2.2050
  167SAPE  C31018890   0.727   1.732   7.855 -0.2796  0.0564  0.0797
  167SAPE  H10X18891   0.697   1.644   7.795  0.3388  0.2717 -0.5631
  167SAPE  H10Y18892   0.631   1.786   7.863  0.2095  0.8424  0.8519
  167SAPE  C31118893   0.774   1.700   8.000 -0.0112 -0.0374  0.3409
  167SAPE  H11X18894   0.700   1.646   8.063  0.6904 -0.8655  0.4818
  167SAPE  H11Y18895   0.796   1.796   8.051  1.4176  0.8445 -1.7746
  167SAPE  C31218896   0.903   1.620   8.012 -0.1679  0.2343 -0.2911
  167SAPE  H12X18897   0.987   1.676   7.965  0.0274  0.8666  0.7834
  167SAPE  H12Y18898   0.896   1.533   7.944 -0.6913 -0.5127  0.7016
  167SAPE  C31318899   0.932   1.577   8.150 -0.2258 -0.7661 -1.1419
  167SAPE  H13X18900   0.976   1.655   8.215 -0.6029  0.4176 -2.2824
  167SAPE  H13Y18901   1.012   1.504   8.125 -2.4123 -2.6454 -3.2950
  167SAPE  C31418902   0.833   1.490   8.228  0.1676  0.2213 -0.5312
  167SAPE  H14X18903   0.772   1.431   8.156  0.4264 -3.3183  1.9325
  167SAPE  H14Y18904   0.747   1.548   8.268  0.5000  0.6988 -0.4990
  167SAPE  C31518905   0.895   1.406   8.339 -0.3388 -0.2061  0.2091
  167SAPE  H15X18906   0.926   1.477   8.418  3.5797 -0.8556 -0.5201
  167SAPE  H15Y18907   0.986   1.361   8.294  0.7101  1.5005  0.5390
  167SAPE  C31618908   0.810   1.295   8.391 -0.1625  0.0383 -0.0949
  167SAPE  H16X18909   0.779   1.232   8.305 -1.5353  0.6222 -0.0529
  167SAPE  H16Y18910   0.716   1.344   8.425  0.9404  0.1854  3.0127
  167SAPE  C31718911   0.882   1.211   8.502  0.7758  0.1419 -0.0746
  167SAPE  H17X18912   0.801   1.148   8.544 -0.3391 -0.7425 -3.2794
  167SAPE  H17Y18913   0.926   1.284   8.573  0.3186  0.2161  0.1351
  167SAPE  C31818914   0.986   1.116   8.443 -0.0533 -0.6181  0.7707
  167SAPE  H18X18915   1.072   1.096   8.510  0.6798 -1.3055 -0.3494
  167SAPE  H18Y18916   1.016   1.160   8.346 -2.7162 -2.9732 -1.3177
  167SAPE  H18Z18917   0.931   1.022   8.424 -2.3737  0.3141  2.3273
  168SAPE     N18918   4.402   4.274   6.128  0.0314 -0.6053 -0.2799
  168SAPE   HN118919   4.432   4.312   6.220  0.3881  2.8113 -1.6684
  168SAPE   HN218920   4.476   4.209   6.095  0.0273 -0.2570 -0.9820
  168SAPE   HN318921   4.399   4.353   6.061  3.0293 -1.2663 -1.3361
  168SAPE   C1218922   4.270   4.203   6.133 -0.1525 -0.2902  0.4399
  168SAPE  H12A18923   4.259   4.157   6.033 -1.5279  0.3447  0.2777
  168SAPE  H12B18924   4.197   4.285   6.154  2.4553  1.4525  3.8040
  168SAPE   C1118925   4.250   4.096   6.240 -0.2649  0.5236 -0.7326
  168SAPE  H11A18926   4.240   4.142   6.341 -0.1889 -1.6515  0.3398
  168SAPE  H11B18927   4.340   4.030   6.238 -0.4314  0.2431  0.2261
  168SAPE     P18928   3.996   4.010   6.258 -0.0407 -0.0206 -0.6129
  168SAPE   O1318929   3.928   4.132   6.218  0.1893  0.0010  0.4462
  168SAPE   O1418930   3.939   3.881   6.216 -0.4880 -0.3137  0.7423
  168SAPE   O1218931   4.139   4.021   6.197 -0.0706 -0.1160  0.5791
  168SAPE   O1118932   4.015   4.013   6.408  0.1015 -0.3864  0.1244
  168SAPE    C118933   3.963   3.912   6.491 -0.4724 -0.0404  0.2410
  168SAPE    HA18934   3.875   3.861   6.447 -0.0791 -1.0179  0.5699
  168SAPE    HB18935   4.042   3.834   6.501 -0.0776  0.3891  0.4959
  168SAPE    C218936   3.915   3.972   6.627 -0.0348 -0.1329  0.9846
  168SAPE    HS18937   3.836   4.043   6.596 -0.0689 -0.9972 -1.0809
  168SAPE   O2118938   4.018   4.034   6.701 -0.1520 -0.0238  0.0296
  168SAPE   C2118939   3.991   4.151   6.745 -0.1180  0.0581 -0.2543
  168SAPE   O2218940   3.895   4.224   6.721 -0.2145 -0.6792  0.5129
  168SAPE   C2218941   4.116   4.195   6.822 -0.2869 -0.2252  0.5107
  168SAPE   H2R18942   4.176   4.104   6.844  0.8253  0.3028 -0.2542
  168SAPE   H2S18943   4.170   4.259   6.750 -0.3052 -0.6434  0.1242
  168SAPE    C318944   3.853   3.862   6.714  0.0273 -0.6701 -0.9215
  168SAPE    HX18945   3.937   3.796   6.746 -0.3254 -0.6088  0.1663
  168SAPE    HY18946   3.783   3.789   6.667 -2.0628  0.9682 -0.4913
  168SAPE   O3118947   3.806   3.927   6.835 -0.0749 -0.1397 -1.1504
  168SAPE   C3118948   3.687   3.899   6.877  0.6922 -0.2747 -0.4442
  168SAPE   O3218949   3.601   3.829   6.818 -0.2067  0.5133 -0.2223
  168SAPE   C3218950   3.667   3.953   7.019  0.9664  0.3575 -0.0067
  168SAPE   H2X18951   3.676   3.866   7.088  2.2509  1.6812  1.5898
  168SAPE   H2Y18952   3.561   3.986   7.023  0.7006 -0.5667  1.1703
  168SAPE   C2318953   4.104   4.280   6.951  0.9990 -1.1800  0.7067
  168SAPE   H3R18954   4.056   4.229   7.037 -1.8707  2.2036  1.3518
  168SAPE   H3S18955   4.033   4.365   6.942  2.3303 -0.0144  0.8365
  168SAPE   C2418956   4.238   4.337   7.002 -0.3679  1.0294 -0.8021
  168SAPE   H4R18957   4.201   4.419   7.067  0.9945 -0.1604  1.6502
  168SAPE   H4S18958   4.286   4.379   6.911 -1.2061  1.0044 -1.2584
  168SAPE   C2518959   4.316   4.233   7.085  0.6460 -0.4728 -0.4984
  168SAPE   H5R18960   4.372   4.158   7.028 -0.0198 -1.3795  0.0274
  168SAPE   C2618961   4.295   4.204   7.215  0.4911 -0.3155  0.4600
  168SAPE   H6R18962   4.352   4.125   7.266 -1.9745 -1.2416  1.9681
  168SAPE   C2718963   4.188   4.267   7.301  0.6769 -0.0180  0.3670
  168SAPE   H7R18964   4.137   4.357   7.259  1.6628  2.0780  3.3124
  168SAPE   H7S18965   4.234   4.307   7.394  0.7435  2.0548 -0.5118
  168SAPE   C2818966   4.072   4.178   7.337 -0.7424 -0.0440  0.4998
  168SAPE   H8R18967   3.975   4.215   7.300 -0.8253  0.4014  1.1406
  168SAPE   C2918968   4.068   4.079   7.429 -0.2349 -0.7922  0.4989
  168SAPE   H9R18969   3.972   4.032   7.451  0.1238 -1.9679 -0.3373
  168SAPE  C21018970   4.182   4.047   7.516 -0.3681  0.1145 -0.4079
  168SAPE  H10R18971   4.141   4.031   7.617  0.9106 -1.0198 -0.0437
  168SAPE  H10S18972   4.265   4.120   7.518  0.3013 -0.6486  0.0884
  168SAPE  C21118973   4.243   3.919   7.466 -0.3221  0.1525  0.0806
  168SAPE  H11R18974   4.240   3.904   7.357 -0.1595 -1.4084  0.2679
  168SAPE  C21218975   4.317   3.832   7.535  0.7016 -0.1886  0.7965
  168SAPE  H12R18976   4.361   3.749   7.477 -2.0010 -0.4186 -1.1269
  168SAPE  C21318977   4.346   3.828   7.684 -0.4980 -0.0832  0.3281
  168SAPE  H13R18978   4.289   3.741   7.724  1.1946 -0.7167  1.4916
  168SAPE  H13S18979   4.315   3.924   7.730  0.9145 -0.1231  1.4349
  168SAPE  C21418980   4.498   3.829   7.708 -0.9231  0.3792  0.6155
  168SAPE  H14R18981   4.546   3.923   7.677 -3.4839  0.9788 -1.9976
  168SAPE  C21518982   4.571   3.745   7.787 -0.7028 -0.1133 -0.4774
  168SAPE  H15R18983   4.678   3.765   7.774 -0.2530 -0.4402  2.1409
  168SAPE  C21618984   4.516   3.616   7.851 -0.8952 -0.0322  1.1642
  168SAPE  H16R18985   4.582   3.532   7.820 -0.7029  0.0469  1.3586
  168SAPE  H16S18986   4.408   3.594   7.839 -0.7448 -0.3583  0.3427
  168SAPE  C21718987   4.549   3.636   8.004  0.4822  0.0522 -0.2258
  168SAPE  H17R18988   4.650   3.682   8.007 -0.9437  3.6070 -1.5501
  168SAPE  H17S18989   4.563   3.531   8.037 -0.4982 -1.0152 -2.9196
  168SAPE  C21818990   4.447   3.724   8.080  0.6043  0.0496  0.6158
  168SAPE  H18R18991   4.348   3.693   8.039  0.9528  0.8493 -0.9021
  168SAPE  H18S18992   4.458   3.829   8.046  1.9175 -0.7170 -1.5933
  168SAPE  C21918993   4.463   3.714   8.236 -0.2482 -0.6278  0.0208
  168SAPE  H19R18994   4.532   3.794   8.271  0.3476 -1.3035  0.4108
  168SAPE  H19S18995   4.507   3.615   8.258 -0.3462 -0.8293 -0.6815
  168SAPE  C22018996   4.329   3.717   8.309 -0.1911 -0.0338  0.0504
  168SAPE  H20R18997   4.275   3.621   8.295 -0.0934 -0.1881  0.6985
  168SAPE  H20S18998   4.268   3.798   8.265 -1.1839 -1.1950 -0.7947
  168SAPE  H20T18999   4.349   3.723   8.418 -0.2617 -3.8756  0.4148
  168SAPE   C3319000   3.749   4.077   7.057 -0.1203 -0.2894  0.4449
  168SAPE   H3X19001   3.722   4.148   6.976 -0.6061 -1.0522 -0.0765
  168SAPE   H3Y19002   3.858   4.059   7.052 -0.4395 -2.5420  0.7772
  168SAPE   C3419003   3.710   4.145   7.190 -0.6369 -0.5179 -0.4053
  168SAPE   H4X19004   3.612   4.197   7.185 -0.2984  0.1043 -0.5143
  168SAPE   H4Y19005   3.783   4.225   7.211 -0.8753  0.0895 -1.8154
  168SAPE   C3519006   3.704   4.049   7.309  0.2786  0.2507 -0.0310
  168SAPE   H5X19007   3.793   3.983   7.303 -1.4780 -2.1048 -2.8798
  168SAPE   H5Y19008   3.618   3.979   7.304  1.9437 -1.9951  0.9959
  168SAPE   C3619009   3.695   4.129   7.440 -0.2034  0.1195 -0.0557
  168SAPE   H6X19010   3.594   4.176   7.440 -1.7325 -2.8258  1.9524
  168SAPE   H6Y19011   3.766   4.213   7.435 -1.8736  1.5015 -3.5905
  168SAPE   C3719012   3.698   4.042   7.566  0.1784 -1.3007 -0.3457
  168SAPE   H7X19013   3.797   4.025   7.612  1.6223 -2.3636 -3.5279
  168SAPE   H7Y19014   3.667   3.942   7.528  1.5321 -1.0785 -2.1468
  168SAPE   C3819015   3.611   4.103   7.681 -0.6663  0.2058  0.4121
  168SAPE   H8X19016   3.506   4.114   7.648 -0.0986  0.7119 -1.3459
  168SAPE   H8Y19017   3.656   4.204   7.693  0.6259 -0.2703 -0.2357
  168SAPE   C3919018   3.604   4.010   7.804  0.2907 -0.8618  0.0285
  168SAPE   H9X19019   3.705   3.987   7.843  1.9063  1.1560 -2.6277
  168SAPE   H9Y19020   3.539   3.923   7.780 -0.1780 -1.0272  1.7639
  168SAPE  C31019021   3.523   4.089   7.908  0.3148  0.9296 -0.0259
  168SAPE  H10X19022   3.477   4.014   7.975  0.2584  1.9156  1.0818
  168SAPE  H10Y19023   3.447   4.151   7.854  1.5140  1.0130 -1.7017
  168SAPE  C31119024   3.613   4.175   7.991 -0.0636 -0.2171 -0.7748
  168SAPE  H11X19025   3.677   4.233   7.920  1.3877  1.1986  1.5523
  168SAPE  H11Y19026   3.683   4.124   8.060  1.0906  0.6293 -1.2760
  168SAPE  C31219027   3.540   4.276   8.085  0.4781 -0.2849  0.1889
  168SAPE  H12X19028   3.485   4.349   8.022 -0.2271 -0.0139  1.0916
  168SAPE  H12Y19029   3.619   4.334   8.137 -1.4242  1.2869  1.4431
  168SAPE  C31319030   3.439   4.207   8.185 -0.3359  0.0871  0.7473
  168SAPE  H13X19031   3.364   4.148   8.128 -0.0901  0.8591 -0.3925
  168SAPE  H13Y19032   3.373   4.285   8.228 -0.9598 -1.1118  2.0415
  168SAPE  C31419033   3.514   4.123   8.291  0.0430  0.4056  0.0562
  168SAPE  H14X19034   3.597   4.187   8.329 -0.2608  1.0486 -0.3295
  168SAPE  H14Y19035   3.557   4.031   8.247  0.9254  1.1220 -0.6340
  168SAPE  C31519036   3.421   4.085   8.406 -0.4384 -0.3737  0.0248
  168SAPE  H15X19037   3.323   4.043   8.374 -0.5196 -0.4387  0.3502
  168SAPE  H15Y19038   3.390   4.179   8.456 -1.2751 -0.1701 -0.8605
  168SAPE  C31619039   3.470   3.975   8.501 -0.2677 -0.0223  0.2073
  168SAPE  H16X19040   3.572   4.002   8.537 -0.3791 -0.4896  0.8942
  168SAPE  H16Y19041   3.468   3.876   8.450  0.4227  0.5730 -1.0251
  168SAPE  C31719042   3.383   3.954   8.631  0.1279  0.4571  0.3932
  168SAPE  H17X19043   3.276   3.948   8.602  0.5342  2.0297 -1.7153
  168SAPE  H17Y19044   3.390   4.041   8.699  0.0684  1.6994 -1.1367
  168SAPE  C31819045   3.409   3.816   8.711 -0.3283 -0.2818 -0.1839
  168SAPE  H18X19046   3.320   3.784   8.770 -0.6679 -2.3528 -1.6958
  168SAPE  H18Y19047   3.502   3.814   8.771 -0.9066 -0.8894  0.7259
  168SAPE  H18Z19048   3.433   3.733   8.642  0.2633 -0.9920  0.8399
  169SAPE     N19049   1.396   0.376   6.261  0.3961  0.2884  0.6364
  169SAPE   HN119050   1.481   0.352   6.205 -0.2541 -2.1065  0.5332
  169SAPE   HN219051   1.311   0.381   6.201  0.7951 -0.6225 -0.0296
  169SAPE   HN319052   1.418   0.469   6.302  3.1521 -0.0289  0.0708
  169SAPE   C1219053   1.366   0.273   6.365  0.4931 -0.0854 -0.1116
  169SAPE  H12A19054   1.332   0.182   6.310 -0.6064 -0.0569  0.4858
  169SAPE  H12B19055   1.284   0.305   6.433  0.9478  0.7174  0.0586
  169SAPE   C1119056   1.500   0.246   6.428 -0.3408 -0.2457  0.6143
  169SAPE  H11A19057   1.464   0.185   6.513 -1.4328 -1.8483 -0.9388
  169SAPE  H11B19058   1.555   0.331   6.474  2.0684 -2.0091  1.2010
  169SAPE     P19059   1.734   0.171   6.335  0.0859 -0.4211 -0.2684
  169SAPE   O1319060   1.775   0.079   6.224 -0.4247  0.2849  0.0550
  169SAPE   O1419061   1.780   0.313   6.330 -0.2523 -0.1931  0.0235
  169SAPE   O1219062   1.578   0.174   6.331 -0.1208 -0.3099  0.1316
  169SAPE   O1119063   1.764   0.100   6.476  0.5037  0.5901 -0.2890
  169SAPE    C119064   1.881   0.053   6.528 -0.4598  0.1313 -0.2310
  169SAPE    HA19065   1.857  -0.054   6.544  0.1663  0.0674  0.3308
  169SAPE    HB19066   1.974   0.076   6.471  0.0226 -0.1392  0.4333
  169SAPE    C219067   1.911   0.118   6.670 -0.1772 -0.3272 -0.3529
  169SAPE    HS19068   2.006   0.068   6.700  0.8913  0.5646 -2.0955
  169SAPE   O2119069   1.804   0.093   6.763  0.2174 -0.2379 -0.9179
  169SAPE   C2119070   1.814  -0.018   6.825 -0.3649  0.4152  1.1939
  169SAPE   O2219071   1.905  -0.101   6.816  0.4533  0.3304 -0.0347
  169SAPE   C2219072   1.699  -0.025   6.926  0.0543  0.4744  0.1359
  169SAPE   H2R19073   1.655   0.077   6.932  1.6428  1.2767 -1.0386
  169SAPE   H2S19074   1.627  -0.103   6.893 -0.2465  0.3518  1.0498
  169SAPE    C319075   1.939   0.279   6.665 -0.1860 -0.1023  0.6774
  169SAPE    HX19076   1.849   0.329   6.624  0.2548  0.4878  0.4165
  169SAPE    HY19077   2.019   0.285   6.588 -2.0091  2.2742 -1.1887
  169SAPE   O3119078   1.983   0.320   6.795  0.3245 -0.0986 -0.6419
  169SAPE   C3119079   1.893   0.375   6.872 -0.4862  0.4939  0.4959
  169SAPE   O3219080   1.775   0.387   6.845  0.2001 -0.2459 -0.0082
  169SAPE   C3219081   1.953   0.407   7.014 -0.2399  0.1950 -0.1229
  169SAPE   H2X19082   1.961   0.317   7.079 -0.7196  0.4302  0.2719
  169SAPE   H2Y19083   1.891   0.485   7.063 -1.1886 -0.2014 -0.6606
  169SAPE   C2319084   1.752  -0.061   7.060 -0.7764 -0.3016 -0.9681
  169SAPE   H3R19085   1.807  -0.157   7.054 -1.0505 -0.5747  0.4211
  169SAPE   H3S19086   1.673  -0.089   7.133 -1.5568 -0.4602 -1.8537
  169SAPE   C2419087   1.837   0.051   7.126  0.0894 -0.2519  0.3922
  169SAPE   H4R19088   1.781   0.143   7.153  1.3026  0.2793  1.1957
  169SAPE   H4S19089   1.916   0.086   7.056  0.6307 -0.1197  1.0518
  169SAPE   C2519090   1.915   0.005   7.251  0.2262 -0.7533  0.9122
  169SAPE   H5R19091   1.997  -0.064   7.223  0.7036  1.0395 -2.6553
  169SAPE   C2619092   1.915   0.061   7.376 -0.2069 -0.1596  0.3169
  169SAPE   H6R19093   1.985   0.010   7.444  0.0516  1.5545  1.4157
  169SAPE   C2719094   1.831   0.168   7.443  0.4224  0.3078 -0.7603
  169SAPE   H7R19095   1.776   0.235   7.374  1.2684  1.9313  0.0942
  169SAPE   H7S19096   1.894   0.242   7.495  0.8279 -0.0561 -0.7292
  169SAPE   C2819097   1.726   0.113   7.545 -0.5588  0.6689  0.0152
  169SAPE   H8R19098   1.635   0.074   7.498 -0.2444  0.1227 -0.1527
  169SAPE   C2919099   1.738   0.121   7.675 -0.0684 -1.0604 -0.3128
  169SAPE   H9R19100   1.663   0.081   7.746  0.4723  1.4462  1.8020
  169SAPE  C21019101   1.852   0.180   7.752  0.2807  0.1786  0.2116
  169SAPE  H10R19102   1.817   0.279   7.789  0.1375  0.7718 -1.4038
  169SAPE  H10S19103   1.942   0.199   7.690 -0.1774 -2.4174 -1.4047
  169SAPE  C21119104   1.902   0.093   7.869  0.2082 -0.0008  0.6660
  169SAPE  H11R19105   1.834   0.014   7.905  0.5961 -0.3093  0.7224
  169SAPE  C21219106   2.021   0.103   7.930  0.0821 -0.6870  0.1682
  169SAPE  H12R19107   2.054   0.035   8.010  1.4804  0.1801  0.3720
  169SAPE  C21319108   2.126   0.209   7.904  0.2305  0.2920 -0.3118
  169SAPE  H13R19109   2.137   0.290   7.979 -0.1573  2.0137 -2.0179
  169SAPE  H13S19110   2.088   0.264   7.814 -2.6889  1.2879  1.3781
  169SAPE  C21419111   2.265   0.151   7.882  0.3229  0.2635  0.0159
  169SAPE  H14R19112   2.291   0.117   7.781  0.8008  0.4756  0.0647
  169SAPE  C21519113   2.373   0.138   7.969  0.1284 -0.5993 -0.8364
  169SAPE  H15R19114   2.468   0.094   7.937  0.9160  1.9326 -2.2284
  169SAPE  C21619115   2.370   0.190   8.114 -0.5813 -0.3987  0.4260
  169SAPE  H16R19116   2.400   0.101   8.175  0.9135 -0.9178 -0.9656
  169SAPE  H16S19117   2.263   0.210   8.131 -0.4111  0.1196  0.9318
  169SAPE  C21719118   2.429   0.330   8.146 -0.2634  0.4628  0.1402
  169SAPE  H17R19119   2.384   0.404   8.076 -0.2600  2.3074  2.0079
  169SAPE  H17S19120   2.539   0.328   8.131 -0.3743  1.0456 -0.8395
  169SAPE  C21819121   2.382   0.380   8.281  0.1544  0.2881 -0.2520
  169SAPE  H18R19122   2.272   0.373   8.283  0.0672  0.0630 -3.0761
  169SAPE  H18S19123   2.407   0.488   8.281 -0.3449  0.4223 -1.8204
  169SAPE  C21919124   2.446   0.300   8.395  0.7370 -0.1521  0.1197
  169SAPE  H19R19125   2.552   0.328   8.412  0.8506 -1.6963  2.2268
  169SAPE  H19S19126   2.455   0.192   8.374  2.9745  0.2689 -1.5256
  169SAPE  C22019127   2.380   0.330   8.531  0.6860 -0.4287  0.2492
  169SAPE  H20R19128   2.272   0.315   8.513  0.5983  0.2430  0.1885
  169SAPE  H20S19129   2.396   0.438   8.552  0.4495 -0.1794 -0.8141
  169SAPE  H20T19130   2.412   0.268   8.618  1.5186 -0.6310 -0.1909
  169SAPE   C3319131   2.099   0.460   7.003  0.6755  0.2796  0.6768
  169SAPE   H3X19132   2.101   0.551   6.938  2.9015  1.3369  2.0841
  169SAPE   H3Y19133   2.160   0.386   6.947 -2.0738 -0.7872 -1.0876
  169SAPE   C3419134   2.153   0.484   7.145 -0.9595 -0.4784 -0.0481
  169SAPE   H4X19135   2.263   0.492   7.150 -0.9359  0.0693 -1.0990
  169SAPE   H4Y19136   2.116   0.405   7.214 -2.6167  0.1546 -0.1669
  169SAPE   C3519137   2.112   0.623   7.189 -0.1550  0.0726  0.0931
  169SAPE   H5X19138   2.003   0.629   7.208 -0.1640 -1.7648  0.7415
  169SAPE   H5Y19139   2.143   0.698   7.113  1.4521 -1.0501 -0.4262
  169SAPE   C3619140   2.185   0.657   7.314  0.8134  0.1320 -0.3633
  169SAPE   H6X19141   2.158   0.759   7.347 -1.8659  0.1457 -2.2624
  169SAPE   H6Y19142   2.293   0.649   7.289  0.2313 -1.6493 -2.6559
  169SAPE   C3719143   2.163   0.569   7.432  0.1642  0.1872 -0.1629
  169SAPE   H7X19144   2.194   0.465   7.405  0.6789  0.2020  0.3553
  169SAPE   H7Y19145   2.052   0.571   7.439  0.0354 -1.2982 -1.2429
  169SAPE   C3819146   2.224   0.614   7.563 -0.4230 -0.6935  0.5745
  169SAPE   H8X19147   2.159   0.692   7.607 -1.2845 -1.7662  1.2507
  169SAPE   H8Y19148   2.324   0.657   7.540  0.4716 -2.3636  1.1453
  169SAPE   C3919149   2.241   0.494   7.651  0.0211  0.2191  0.7722
  169SAPE   H9X19150   2.330   0.432   7.629  0.1289 -1.2661  4.6337
  169SAPE   H9Y19151   2.146   0.441   7.674  1.0277 -1.5390  1.0245
  169SAPE  C31019152   2.279   0.548   7.785 -0.6578  0.3738  0.3009
  169SAPE  H10X19153   2.359   0.621   7.762  0.4675 -1.3357 -1.5258
  169SAPE  H10Y19154   2.319   0.467   7.849 -0.7628 -0.7673 -1.0171
  169SAPE  C31119155   2.164   0.615   7.862 -0.0890 -0.2618 -0.9646
  169SAPE  H11X19156   2.062   0.574   7.842 -0.4788  0.9083 -1.4465
  169SAPE  H11Y19157   2.158   0.716   7.817 -2.4015  0.3795  0.6130
  169SAPE  C31219158   2.197   0.636   8.016 -0.1372  0.2365 -0.6499
  169SAPE  H12X19159   2.291   0.583   8.041 -1.5555 -1.7898  0.7335
  169SAPE  H12Y19160   2.120   0.588   8.080  0.0295 -0.0216 -0.6443
  169SAPE  C31319161   2.229   0.777   8.071  0.4661  0.1647  0.5605
  169SAPE  H13X19162   2.252   0.760   8.179  0.5210 -1.0349  0.3709
  169SAPE  H13Y19163   2.136   0.837   8.067  0.6709  0.4655  0.2572
  169SAPE  C31419164   2.345   0.857   8.018  0.6791  0.3844 -0.0812
  169SAPE  H14X19165   2.329   0.869   7.908  1.5470  0.6708 -0.1844
  169SAPE  H14Y19166   2.439   0.798   8.029 -0.2186 -0.9864  0.5511
  169SAPE  C31519167   2.365   0.985   8.087  0.0064  0.1388  0.1961
  169SAPE  H15X19168   2.469   1.018   8.065 -0.2268  2.8222  2.4682
  169SAPE  H15Y19169   2.368   0.983   8.198 -0.7850 -1.0578  0.2063
  169SAPE  C31619170   2.281   1.108   8.045  0.6512  0.6676  1.0096
  169SAPE  H16X19171   2.175   1.094   8.076  0.8803 -1.4073  0.9799
  169SAPE  H16Y19172   2.287   1.098   7.935  4.1380 -1.9418  1.2817
  169SAPE  C31719173   2.323   1.241   8.099 -0.1593 -0.6239  0.2253
  169SAPE  H17X19174   2.309   1.255   8.209  0.7634  2.7899  0.0217
  169SAPE  H17Y19175   2.254   1.313   8.050 -2.6806 -1.2665  2.5737
  169SAPE  C31819176   2.467   1.285   8.067 -0.0658  0.3633  0.9889
  169SAPE  H18X19177   2.480   1.270   7.957  0.5465 -3.1513  1.4220
  169SAPE  H18Y19178   2.534   1.212   8.118  2.0405  2.7943  1.8912
  169SAPE  H18Z19179   2.499   1.386   8.098  2.3358 -0.2624  0.7720
  170SAPE     N19180   3.451   3.021   6.706  0.1713  0.0715 -0.6293
  170SAPE   HN119181   3.533   2.988   6.760 -1.5260 -1.7911  0.9431
  170SAPE   HN219182   3.382   3.049   6.778  0.4115  0.3005 -0.4846
  170SAPE   HN319183   3.408   2.939   6.659  3.4311 -2.1633 -0.0787
  170SAPE   C1219184   3.483   3.135   6.611  0.4930 -0.2863  0.1499
  170SAPE  H12A19185   3.589   3.128   6.577  0.1557  2.3478 -1.6471
  170SAPE  H12B19186   3.466   3.226   6.672 -0.9320 -0.5838  0.2291
  170SAPE   C1119187   3.405   3.109   6.479 -1.0192  0.5691 -0.6181
  170SAPE  H11A19188   3.432   3.004   6.454 -0.8481  0.6307 -0.6953
  170SAPE  H11B19189   3.445   3.173   6.398 -0.9111  1.3671  0.0506
  170SAPE     P19190   3.174   3.181   6.399 -0.0022  0.4872 -0.2241
  170SAPE   O1319191   3.224   3.312   6.361  0.3872  0.0391 -0.5281
  170SAPE   O1419192   3.150   3.083   6.294 -0.0573  0.4229  0.9538
  170SAPE   O1219193   3.267   3.116   6.506 -0.6005 -0.0989  0.3120
  170SAPE   O1119194   3.034   3.212   6.468 -0.6177  0.2825 -0.4499
  170SAPE    C119195   3.049   3.314   6.573  0.1624 -0.7435 -0.0600
  170SAPE    HA19196   3.132   3.386   6.553  0.0955 -0.6577 -0.0293
  170SAPE    HB19197   2.964   3.385   6.565 -0.0665 -0.9052  0.9110
  170SAPE    C219198   3.062   3.248   6.715 -0.3148 -0.9436 -1.0601
  170SAPE    HS19199   3.125   3.157   6.713 -1.5590 -2.0149  2.3304
  170SAPE   O2119200   2.936   3.217   6.768  0.0823  0.4470 -0.8869
  170SAPE   C2119201   2.926   3.122   6.858 -0.4860 -0.0310 -0.3275
  170SAPE   O2219202   3.008   3.034   6.879  0.0060 -0.1912  0.6400
  170SAPE   C2219203   2.797   3.147   6.941 -0.0621 -0.0869  0.4324
  170SAPE   H2R19204   2.716   3.129   6.866  1.0953 -1.4966 -0.5466
  170SAPE   H2S19205   2.785   3.070   7.021  0.2234 -0.9636 -0.3419
  170SAPE    C319206   3.125   3.360   6.804 -0.1546 -0.1358  0.0780
  170SAPE    HX19207   3.053   3.445   6.798 -1.2833 -1.0507  0.3070
  170SAPE    HY19208   3.226   3.380   6.761 -0.0828 -2.1153 -0.7797
  170SAPE   O3119209   3.146   3.327   6.947  0.5448  0.0711  0.3908
  170SAPE   C3119210   3.236   3.238   6.974  0.2421 -0.2359  0.6298
  170SAPE   O3219211   3.314   3.187   6.899 -0.2541  0.3427 -0.5132
  170SAPE   C3219212   3.232   3.211   7.121 -0.6451 -1.0270  0.2257
  170SAPE   H2X19213   3.266   3.296   7.185 -1.4932 -0.0073 -0.6403
  170SAPE   H2Y19214   3.302   3.125   7.131  1.4008  0.5034 -0.2016
  170SAPE   C2319215   2.778   3.287   7.001  0.6917  0.1466  0.1947
  170SAPE   H3R19216   2.793   3.369   6.927 -0.8012 -0.1584 -0.4843
  170SAPE   H3S19217   2.857   3.315   7.074 -0.8808  2.0882  1.2275
  170SAPE   C2419218   2.635   3.294   7.062 -0.1682  0.1249 -0.4191
  170SAPE   H4R19219   2.642   3.218   7.143  0.0343 -0.2549 -0.7889
  170SAPE   H4S19220   2.575   3.249   6.980  0.2275 -1.0020 -0.1174
  170SAPE   C2519221   2.581   3.434   7.098  0.3574  0.2724 -0.5184
  170SAPE   H5R19222   2.576   3.511   7.020  4.3128 -0.4124 -1.6364
  170SAPE   C2619223   2.546   3.471   7.222 -0.1635 -0.3023 -0.2990
  170SAPE   H6R19224   2.508   3.573   7.235  0.6961 -0.1870  1.6052
  170SAPE   C2719225   2.545   3.395   7.353 -0.1801 -0.1239  1.3526
  170SAPE   H7R19226   2.563   3.286   7.335  0.6998  0.6008 -3.5037
  170SAPE   H7S19227   2.446   3.401   7.402 -0.9428 -0.7149 -0.0445
  170SAPE   C2819228   2.647   3.452   7.445  0.0146  0.6105 -0.3431
  170SAPE   H8R19229   2.736   3.504   7.406  1.1225 -1.5154 -0.8197
  170SAPE   C2919230   2.648   3.444   7.582 -0.2731  0.6621 -0.5703
  170SAPE   H9R19231   2.741   3.488   7.620  0.2827 -0.4476 -0.5928
  170SAPE  C21019232   2.562   3.365   7.678  0.5917 -0.7166 -0.5409
  170SAPE  H10R19233   2.456   3.384   7.649  0.8489  0.8587 -0.5609
  170SAPE  H10S19234   2.567   3.417   7.777 -1.4214 -0.2357 -0.6385
  170SAPE  C21119235   2.583   3.218   7.693 -0.2510  0.4233 -0.0438
  170SAPE  H11R19236   2.654   3.179   7.618  0.9199 -0.7800  1.6089
  170SAPE  C21219237   2.544   3.135   7.790 -0.4367  0.4505 -0.0813
  170SAPE  H12R19238   2.567   3.028   7.788 -0.6967  0.3590  0.9851
  170SAPE  C21319239   2.457   3.181   7.910 -0.8630  0.7725  0.1238
  170SAPE  H13R19240   2.359   3.130   7.920 -1.0056  1.1833  0.9230
  170SAPE  H13S19241   2.416   3.282   7.894 -1.7419  0.5520  0.9003
  170SAPE  C21419242   2.533   3.167   8.039 -0.4169  0.0697  0.2362
  170SAPE  H14R19243   2.600   3.254   8.044 -2.0936  1.6782 -2.5403
  170SAPE  C21519244   2.526   3.069   8.131  0.1363 -0.0324 -1.8704
  170SAPE  H15R19245   2.567   3.082   8.232 -0.3181  2.3869 -1.9292
  170SAPE  C21619246   2.433   2.946   8.122  0.3317  0.6017  0.0170
  170SAPE  H16R19247   2.483   2.849   8.104 -1.2335 -0.4396  1.0994
  170SAPE  H16S19248   2.372   2.946   8.029 -0.6939  0.3277  0.6785
  170SAPE  C21719249   2.333   2.937   8.237 -0.1126 -0.2758 -0.1934
  170SAPE  H17R19250   2.270   2.848   8.212  1.5315 -2.1425  1.8931
  170SAPE  H17S19251   2.260   3.020   8.245  0.9767  0.7766 -0.8403
  170SAPE  C21819252   2.396   2.909   8.370  0.0572  0.1774 -0.0377
  170SAPE  H18R19253   2.318   2.908   8.450 -1.0321  0.3489 -1.0703
  170SAPE  H18S19254   2.464   2.989   8.406 -0.0808 -0.2931  1.3460
  170SAPE  C21919255   2.460   2.772   8.377  0.4033 -0.1478  0.1194
  170SAPE  H19R19256   2.553   2.772   8.317  0.4398 -1.0007  0.1662
  170SAPE  H19S19257   2.389   2.698   8.335  0.1598 -0.1996  0.6170
  170SAPE  C22019258   2.488   2.732   8.525  0.6341  0.4879  0.1249
  170SAPE  H20R19259   2.562   2.801   8.572 -0.4750  1.8713 -0.0781
  170SAPE  H20S19260   2.530   2.630   8.524  0.8664  0.5611  1.0031
  170SAPE  H20T19261   2.392   2.728   8.582  0.5587  1.8386  0.1205
  170SAPE   C3319262   3.101   3.164   7.179  0.4320  0.6661 -0.6232
  170SAPE   H3X19263   3.066   3.083   7.111 -2.9459  0.7250  0.8635
  170SAPE   H3Y19264   3.019   3.237   7.169 -1.1735 -0.8210  0.9399
  170SAPE   C3419265   3.112   3.105   7.322 -0.0659 -0.5815  0.1819
  170SAPE   H4X19266   3.215   3.083   7.359  0.3112  0.6403 -0.0830
  170SAPE   H4Y19267   3.050   3.014   7.328 -0.4392 -0.2249  3.1242
  170SAPE   C3519268   3.035   3.201   7.422  0.6770  0.8056  0.1848
  170SAPE   H5X19269   2.927   3.215   7.399  0.5304 -1.5570 -0.7800
  170SAPE   H5Y19270   3.076   3.305   7.420 -0.7269  1.3738 -0.0028
  170SAPE   C3619271   3.045   3.151   7.565  0.3830  0.0016 -0.2449
  170SAPE   H6X19272   3.149   3.170   7.599  0.1571  1.4198 -0.2698
  170SAPE   H6Y19273   3.025   3.043   7.552  1.0273 -0.4221  1.8890
  170SAPE   C3719274   2.938   3.201   7.672  0.4044 -0.1978  0.5448
  170SAPE   H7X19275   2.929   3.106   7.730  3.1900 -1.0141 -0.2107
  170SAPE   H7Y19276   2.848   3.228   7.612  0.2027  1.0135  1.3649
  170SAPE   C3819277   2.990   3.314   7.757 -0.4918 -0.0263  0.4808
  170SAPE   H8X19278   2.984   3.403   7.691  1.9827 -1.6556 -2.1651
  170SAPE   H8Y19279   3.097   3.295   7.781 -0.4033 -0.5110 -0.2621
  170SAPE   C3919280   2.898   3.308   7.884  0.3970  0.2838  0.0965
  170SAPE   H9X19281   2.902   3.208   7.933 -0.4770  0.2770  0.1791
  170SAPE   H9Y19282   2.790   3.324   7.864 -0.3438 -2.9750  0.9266
  170SAPE  C31019283   2.952   3.406   7.989  0.1675 -0.2324  0.1163
  170SAPE  H10X19284   2.935   3.513   7.966 -2.0292 -0.2460  1.4192
  170SAPE  H10Y19285   3.061   3.387   8.004  0.1380 -0.6452 -0.1773
  170SAPE  C31119286   2.885   3.385   8.123 -0.3510  0.0117  0.2112
  170SAPE  H11X19287   2.775   3.391   8.109 -0.4950 -1.5151  0.4534
  170SAPE  H11Y19288   2.910   3.467   8.193  0.6532  0.9155 -1.1355
  170SAPE  C31219289   2.898   3.249   8.195  0.4592 -0.1373  0.2444
  170SAPE  H12X19290   3.007   3.244   8.220  0.0216 -1.1703  2.1102
  170SAPE  H12Y19291   2.861   3.159   8.142 -0.8778  0.3638  0.3075
  170SAPE  C31319292   2.830   3.255   8.330 -0.4315  0.1483  0.1637
  170SAPE  H13X19293   2.725   3.284   8.306 -1.3171 -3.4461 -0.9035
  170SAPE  H13Y19294   2.882   3.326   8.397 -0.3296 -0.7796  1.0838
  170SAPE  C31419295   2.818   3.116   8.400  0.3017 -0.4261  0.3600
  170SAPE  H14X19296   2.921   3.073   8.397  0.4542 -0.1205  1.0496
  170SAPE  H14Y19297   2.752   3.043   8.349 -0.6440  0.0417  0.8895
  170SAPE  C31519298   2.779   3.121   8.545  0.4956 -0.0317  0.7386
  170SAPE  H15X19299   2.859   3.167   8.607 -0.2580 -1.1638  2.6278
  170SAPE  H15Y19300   2.765   3.021   8.592  0.3388 -0.0742  0.5993
  170SAPE  C31619301   2.660   3.212   8.564 -0.0868 -0.5239  0.2061
  170SAPE  H16X19302   2.569   3.183   8.507 -1.4571  0.6458  1.7130
  170SAPE  H16Y19303   2.699   3.311   8.532  0.0280  0.1679  2.3500
  170SAPE  C31719304   2.619   3.237   8.708  1.3787  0.0748 -0.4288
  170SAPE  H17X19305   2.575   3.144   8.751  1.0004 -0.5417 -2.0694
  170SAPE  H17Y19306   2.527   3.300   8.707  1.2601 -0.1045 -0.8124
  170SAPE  C31819307   2.728   3.293   8.798 -0.5080  1.1269  0.3508
  170SAPE  H18X19308   2.693   3.322   8.899  0.9985  1.6516  0.7561
  170SAPE  H18Y19309   2.772   3.387   8.757 -2.4965  1.7473 -0.4848
  170SAPE  H18Z19310   2.809   3.221   8.822  0.4692  1.2497 -2.2100
  171SAPE     N19311   6.254   4.059   6.443  0.0864  0.4269 -0.4500
  171SAPE   HN119312   6.279   4.159   6.436 -1.6488  0.9422  0.0747
  171SAPE   HN219313   6.251   4.018   6.347 -2.9226  0.7090 -0.6000
  171SAPE   HN319314   6.154   4.058   6.474  0.4133 -0.2825  0.6267
  171SAPE   C1219315   6.353   3.983   6.532 -0.5357  0.0814 -0.1145
  171SAPE  H12A19316   6.319   3.880   6.553  0.9755  0.0113  2.3999
  171SAPE  H12B19317   6.360   4.033   6.631  0.2580  0.4052 -0.3206
  171SAPE   C1119318   6.492   3.980   6.468  0.2259  0.1880 -0.8816
  171SAPE  H11A19319   6.571   3.920   6.517 -0.4282 -0.7795 -0.9809
  171SAPE  H11B19320   6.526   4.085   6.485 -1.2580  0.3957  1.2659
  171SAPE     P19321   6.495   3.798   6.275  0.2098  0.2795 -0.2054
  171SAPE   O1319322   6.362   3.741   6.298  1.1276 -0.2893 -0.2845
  171SAPE   O1419323   6.529   3.801   6.133 -0.1499  0.2314 -0.1799
  171SAPE   O1219324   6.488   3.951   6.327 -0.4496 -0.0965  0.4743
  171SAPE   O1119325   6.604   3.733   6.367 -0.0364  0.0514  0.6088
  171SAPE    C119326   6.745   3.756   6.342 -0.4380 -0.2981 -0.6306
  171SAPE    HA19327   6.773   3.725   6.239  2.7748  3.0948 -1.0307
  171SAPE    HB19328   6.770   3.863   6.362 -1.7979 -0.1193  0.2300
  171SAPE    C219329   6.832   3.675   6.444 -0.0794 -0.4087  0.0212
  171SAPE    HS19330   6.817   3.569   6.418  1.8965 -0.9338  0.8038
  171SAPE   O2119331   6.796   3.718   6.576  0.2897  0.4066 -0.2508
  171SAPE   C2119332   6.770   3.618   6.664  0.8658  1.3393  0.0199
  171SAPE   O2219333   6.780   3.499   6.643 -0.3132  0.8082 -0.2568
  171SAPE   C2219334   6.719   3.672   6.797 -0.7398 -0.5603  0.4910
  171SAPE   H2R19335   6.689   3.584   6.858 -0.8171 -0.4374  0.6318
  171SAPE   H2S19336   6.791   3.728   6.861 -0.1798 -0.2278 -0.4200
  171SAPE    C319337   6.986   3.702   6.422  0.5489 -0.5670 -0.3009
  171SAPE    HX19338   7.005   3.811   6.434 -1.3345 -0.2423  0.0192
  171SAPE    HY19339   7.014   3.671   6.318  0.7680 -1.7756  0.1018
  171SAPE   O3119340   7.075   3.634   6.506 -0.5459  0.3084 -0.2919
  171SAPE   C3119341   7.091   3.503   6.496  0.1172  0.8274  0.1472
  171SAPE   O3219342   7.033   3.430   6.413 -0.4941 -0.5458  0.6060
  171SAPE   C3219343   7.191   3.453   6.598 -0.7528 -0.1198  0.4639
  171SAPE   H2X19344   7.281   3.516   6.586  0.2825 -1.6286  0.0393
  171SAPE   H2Y19345   7.220   3.352   6.562  0.7967 -0.0105  1.3527
  171SAPE   C2319346   6.583   3.741   6.782 -0.3585 -0.2563 -0.4728
  171SAPE   H3R19347   6.532   3.669   6.715 -1.6093 -1.3267  1.5495
  171SAPE   H3S19348   6.586   3.847   6.748 -2.9979 -0.0573 -0.2907
  171SAPE   C2419349   6.505   3.754   6.912 -0.1837  0.1403  0.2621
  171SAPE   H4R19350   6.547   3.844   6.961  0.9432 -0.1444 -0.1398
  171SAPE   H4S19351   6.547   3.669   6.969 -2.1868 -1.6009 -0.7064
  171SAPE   C2519352   6.355   3.739   6.906 -0.2067  0.3153  0.5850
  171SAPE   H5R19353   6.311   3.676   6.827  1.7868  1.5205 -1.6574
  171SAPE   C2619354   6.275   3.794   6.997 -0.2779  0.0367  0.4150
  171SAPE   H6R19355   6.167   3.776   6.985 -0.1227  0.7812 -2.7045
  171SAPE   C2719356   6.309   3.871   7.119  0.0645 -0.2546 -0.3587
  171SAPE   H7R19357   6.412   3.854   7.157 -0.2015 -1.5109 -0.1499
  171SAPE   H7S19358   6.247   3.825   7.200 -1.8069 -0.3490 -1.7804
  171SAPE   C2819359   6.267   4.018   7.111  0.1974 -0.3429 -0.2013
  171SAPE   H8R19360   6.256   4.064   7.012  3.0397  0.7929 -0.0914
  171SAPE   C2919361   6.249   4.107   7.215  0.5833  0.7973  0.1979
  171SAPE   H9R19362   6.217   4.208   7.184 -2.4935 -0.3189 -0.6152
  171SAPE  C21019363   6.272   4.086   7.367  0.4603 -0.0663  0.1785
  171SAPE  H10R19364   6.261   4.183   7.419 -1.2896 -0.3274  0.3651
  171SAPE  H10S19365   6.371   4.039   7.385  0.5022 -1.4649 -2.9219
  171SAPE  C21119366   6.167   4.001   7.426 -0.0296 -0.6001 -0.6342
  171SAPE  H11R19367   6.079   3.976   7.365  0.8864 -2.7236 -1.1805
  171SAPE  C21219368   6.170   3.955   7.558 -0.2497  0.0884  0.8272
  171SAPE  H12R19369   6.077   3.909   7.596  0.7093 -0.3811  2.7458
  171SAPE  C21319370   6.276   3.977   7.661 -0.2785 -1.4271 -0.2996
  171SAPE  H13R19371   6.374   3.985   7.610  1.4005  2.3784  2.9812
  171SAPE  H13S19372   6.283   3.884   7.723  1.8809 -1.3823 -0.4155
  171SAPE  C21419373   6.257   4.105   7.743  0.9353 -0.1886  0.3124
  171SAPE  H14R19374   6.338   4.177   7.724  0.6421 -0.5698 -2.9047
  171SAPE  C21519375   6.162   4.145   7.825 -0.2816  0.1153  0.1913
  171SAPE  H15R19376   6.170   4.248   7.863 -1.8659 -0.2792  1.7174
  171SAPE  C21619377   6.045   4.066   7.878  0.0738 -0.1857 -0.3015
  171SAPE  H16R19378   6.055   3.961   7.842  1.2867 -1.2179  2.7278
  171SAPE  H16S19379   5.945   4.095   7.840 -0.5847 -1.6177  0.2635
  171SAPE  C21719380   6.052   4.070   8.031 -0.5909  0.2936  0.2154
  171SAPE  H17R19381   5.953   4.030   8.060 -0.8081 -0.0572 -0.9705
  171SAPE  H17S19382   6.065   4.172   8.073  2.1232  0.3599 -0.5485
  171SAPE  C21819383   6.171   3.993   8.082 -0.5476 -0.2604 -0.3178
  171SAPE  H18R19384   6.275   4.022   8.055  0.0686 -2.2872 -0.3270
  171SAPE  H18S19385   6.162   3.885   8.054 -2.3061  0.0933 -1.2632
  171SAPE  C21919386   6.165   3.995   8.232  0.6525 -0.1377 -0.5005
  171SAPE  H19R19387   6.088   3.923   8.270  1.0313  0.8302  2.3547
  171SAPE  H19S19388   6.148   4.099   8.267 -1.5904 -0.9993  1.2763
  171SAPE  C22019389   6.290   3.953   8.308 -0.6633  0.2258  0.5448
  171SAPE  H20R19390   6.325   3.854   8.272 -0.7930 -0.3267  1.8552
  171SAPE  H20S19391   6.274   3.923   8.414 -0.2904 -1.6056  0.1160
  171SAPE  H20T19392   6.370   4.030   8.295 -0.2327 -0.2628  0.2499
  171SAPE   C3319393   7.132   3.458   6.740  0.1198 -0.1442  0.5086
  171SAPE   H3X19394   7.062   3.544   6.747 -0.7272 -0.9740  3.5308
  171SAPE   H3Y19395   7.212   3.457   6.818  1.0247  0.4371 -0.3794
  171SAPE   C3419396   7.036   3.337   6.752 -0.3142  0.2809  0.6646
  171SAPE   H4X19397   7.080   3.235   6.746  0.9589  0.8957 -1.5458
  171SAPE   H4Y19398   6.963   3.337   6.668 -0.0052 -2.4403  0.2935
  171SAPE   C3519399   6.948   3.342   6.877  0.0001 -0.9631  0.3741
  171SAPE   H5X19400   6.880   3.255   6.868 -2.3898  0.8661 -0.1166
  171SAPE   H5Y19401   6.880   3.429   6.876 -1.2213 -1.8933  0.3394
  171SAPE   C3619402   7.031   3.332   7.001 -0.3888  0.5040  0.2951
  171SAPE   H6X19403   7.100   3.418   7.017 -1.9499  2.0736 -1.0066
  171SAPE   H6Y19404   7.091   3.239   7.002 -0.0228  0.6264 -2.7035
  171SAPE   C3719405   6.937   3.336   7.128 -0.4725 -0.0343  0.3447
  171SAPE   H7X19406   6.864   3.252   7.129 -1.3132  0.5966 -1.8362
  171SAPE   H7Y19407   6.876   3.426   7.109 -1.7131 -0.7974  0.5989
  171SAPE   C3819408   7.027   3.337   7.253  0.5075  0.0515 -0.0743
  171SAPE   H8X19409   7.094   3.426   7.259  2.7509 -1.6303  2.2189
  171SAPE   H8Y19410   7.100   3.254   7.262 -0.0623 -0.3440  1.2050
  171SAPE   C3919411   6.947   3.319   7.381  0.3956 -0.9278  1.0805
  171SAPE   H9X19412   6.866   3.243   7.387  0.5041 -0.9736  2.1984
  171SAPE   H9Y19413   6.894   3.415   7.396 -0.2499 -0.5538 -2.5993
  171SAPE  C31019414   7.043   3.293   7.497  0.3881 -0.3467  0.1360
  171SAPE  H10X19415   7.127   3.364   7.482 -0.0751  0.0826 -0.4823
  171SAPE  H10Y19416   7.076   3.190   7.474  2.4618  0.9580 -3.6978
  171SAPE  C31119417   6.981   3.299   7.636 -0.2248  0.5674  0.4349
  171SAPE  H11X19418   6.878   3.256   7.637  0.7807 -2.3195 -2.3930
  171SAPE  H11Y19419   6.976   3.408   7.659 -1.3373  0.2429  1.8426
  171SAPE  C31219420   7.075   3.241   7.749 -0.2171  0.3668 -0.0353
  171SAPE  H12X19421   7.177   3.284   7.738 -0.4221  0.4668 -2.0686
  171SAPE  H12Y19422   7.080   3.130   7.746  0.0091  0.3764  0.0143
  171SAPE  C31319423   7.001   3.258   7.887 -0.7226 -0.2554  0.2449
  171SAPE  H13X19424   7.038   3.173   7.947  0.8805 -0.0160 -0.3306
  171SAPE  H13Y19425   6.891   3.250   7.874 -0.7422 -0.1127  0.3195
  171SAPE  C31419426   7.020   3.389   7.961  0.4430  0.1716  0.0007
  171SAPE  H14X19427   6.979   3.479   7.909 -1.9473  1.0637  3.0826
  171SAPE  H14Y19428   7.128   3.405   7.979  0.2976  0.5820  0.5639
  171SAPE  C31519429   6.937   3.390   8.095 -0.3600 -0.4069  0.1944
  171SAPE  H15X19430   6.974   3.478   8.152  0.8399  0.2608 -1.5318
  171SAPE  H15Y19431   6.957   3.300   8.157 -0.6467 -2.1396 -2.0928
  171SAPE  C31619432   6.787   3.407   8.061 -0.4604  0.2670 -0.6272
  171SAPE  H16X19433   6.743   3.313   8.022 -1.9938 -0.6512  2.9742
  171SAPE  H16Y19434   6.773   3.484   7.982 -0.2832  1.2256  0.2482
  171SAPE  C31719435   6.714   3.461   8.192  0.1560  0.5760  0.8659
  171SAPE  H17X19436   6.735   3.404   8.285  1.9493  1.9262  1.3281
  171SAPE  H17Y19437   6.609   3.449   8.157 -0.2639  1.3992  1.8156
  171SAPE  C31819438   6.736   3.608   8.218  0.0867 -0.1857 -0.1737
  171SAPE  H18X19439   6.845   3.632   8.211  0.8883 -1.8528  3.8837
  171SAPE  H18Y19440   6.703   3.628   8.322  1.9764  2.4192  0.0436
  171SAPE  H18Z19441   6.688   3.664   8.135  1.4233 -0.9792 -1.5459
  172SAPE     N19442   4.296   1.594   6.065  0.6046 -0.2856  0.6319
  172SAPE   HN119443   4.300   1.528   6.145  1.7658 -0.8777  0.1139
  172SAPE   HN219444   4.267   1.687   6.100 -0.6197 -0.5232  0.3067
  172SAPE   HN319445   4.224   1.555   6.000  2.3966  1.6123 -2.7911
  172SAPE   C1219446   4.435   1.603   6.007 -0.4100  0.4152 -0.4909
  172SAPE  H12A19447   4.431   1.672   5.920 -2.9461  3.4953  1.8184
  172SAPE  H12B19448   4.476   1.504   5.976  3.0230  1.9682 -1.3156
  172SAPE   C1119449   4.514   1.671   6.115  0.2289 -0.8536 -0.2818
  172SAPE  H11A19450   4.618   1.685   6.079  0.3190  2.7776  0.9929
  172SAPE  H11B19451   4.521   1.610   6.208 -1.4466 -0.2976  0.2403
  172SAPE     P19452   4.499   1.935   6.110  0.0754 -0.5118  0.2695
  172SAPE   O1319453   4.574   1.935   5.982 -0.3621  0.4290 -0.0332
  172SAPE   O1419454   4.379   2.027   6.121  0.5177  0.4478 -0.4162
  172SAPE   O1219455   4.454   1.795   6.155 -0.7395  0.5229 -0.4210
  172SAPE   O1119456   4.605   1.985   6.221  0.6562 -0.1788 -0.6560
  172SAPE    C119457   4.685   1.901   6.310  0.2915  0.1535 -0.5771
  172SAPE    HA19458   4.710   1.801   6.266 -1.1504 -1.7668  2.6401
  172SAPE    HB19459   4.788   1.940   6.326  0.0491  0.4323  0.3233
  172SAPE    C219460   4.631   1.881   6.453  0.1763 -0.8840 -0.6902
  172SAPE    HS19461   4.520   1.881   6.449  0.0997 -1.7573  0.7689
  172SAPE   O2119462   4.671   1.982   6.548 -0.5371  0.0675  0.1209
  172SAPE   C2119463   4.604   2.106   6.544 -1.2691  0.6101 -0.4295
  172SAPE   O2219464   4.506   2.126   6.483  0.7920 -0.3918 -0.3476
  172SAPE   C2219465   4.684   2.212   6.617 -0.4575 -0.5407 -1.0176
  172SAPE   H2R19466   4.647   2.218   6.722  1.6865  0.5880 -0.2707
  172SAPE   H2S19467   4.792   2.188   6.623 -0.1694  0.5411 -1.6709
  172SAPE    C319468   4.670   1.751   6.514  0.2637  0.2756 -0.5246
  172SAPE    HX19469   4.771   1.710   6.496 -0.7121 -2.1543 -0.8436
  172SAPE    HY19470   4.607   1.688   6.448 -1.8853  0.2367  1.4135
  172SAPE   O3119471   4.615   1.732   6.649  0.1372  0.1625  0.2438
  172SAPE   C3119472   4.708   1.747   6.739  0.6241  0.6261  0.4138
  172SAPE   O3219473   4.824   1.752   6.710 -1.0101 -0.2210 -0.6309
  172SAPE   C3219474   4.659   1.747   6.882  0.4169 -0.5979 -0.2477
  172SAPE   H2X19475   4.550   1.724   6.882 -0.0404  1.3419 -1.5514
  172SAPE   H2Y19476   4.661   1.855   6.907 -1.7406 -0.5606  0.0177
  172SAPE   C2319477   4.664   2.352   6.547  0.3517 -0.2508 -0.5225
  172SAPE   H3R19478   4.555   2.369   6.560 -0.0243 -2.9734  0.4553
  172SAPE   H3S19479   4.690   2.349   6.439 -2.5854  1.9322 -1.4060
  172SAPE   C2419480   4.739   2.471   6.606 -0.7482 -0.8747 -0.0227
  172SAPE   H4R19481   4.732   2.565   6.547 -0.5497 -0.5456  0.4732
  172SAPE   H4S19482   4.849   2.453   6.606 -0.6642 -0.4590 -1.0248
  172SAPE   C2519483   4.676   2.485   6.743  0.6986 -0.3912  0.5045
  172SAPE   H5R19484   4.571   2.518   6.741  0.8737  0.5918  3.0963
  172SAPE   C2619485   4.729   2.501   6.865 -0.3447  0.1919  0.1303
  172SAPE   H6R19486   4.664   2.508   6.953  1.6978 -1.8614  1.9593
  172SAPE   C2719487   4.876   2.495   6.894  0.0372  0.8786 -0.0325
  172SAPE   H7R19488   4.944   2.471   6.810  0.2831  1.0670  0.1094
  172SAPE   H7S19489   4.887   2.405   6.958 -1.9325  0.9229  0.4268
  172SAPE   C2819490   4.931   2.616   6.972 -0.4129 -0.4878  1.0025
  172SAPE   H8R19491   4.955   2.706   6.914  1.3970 -0.7111  1.3543
  172SAPE   C2919492   4.957   2.623   7.105 -0.3104 -0.5620 -0.3229
  172SAPE   H9R19493   4.982   2.718   7.154 -2.5666 -0.8492  1.5705
  172SAPE  C21019494   4.928   2.513   7.204  0.4087  0.3224 -0.0096
  172SAPE  H10R19495   5.003   2.517   7.285 -1.4875 -1.4349  1.9561
  172SAPE  H10S19496   4.940   2.414   7.153  1.8344  0.1317  0.6589
  172SAPE  C21119497   4.795   2.514   7.269  0.3073 -0.2350 -0.2822
  172SAPE  H11R19498   4.707   2.500   7.205  0.1447 -2.0215  0.2591
  172SAPE  C21219499   4.766   2.529   7.400  0.6256  0.3775  0.0243
  172SAPE  H12R19500   4.662   2.553   7.430  0.7003  1.9632 -0.8526
  172SAPE  C21319501   4.863   2.538   7.515  0.2946  0.4148 -0.1173
  172SAPE  H13R19502   4.858   2.644   7.550 -0.3038  0.1277  0.6741
  172SAPE  H13S19503   4.965   2.510   7.483  0.3852 -0.3913  0.8455
  172SAPE  C21419504   4.823   2.432   7.611 -0.1391  0.9001  0.1682
  172SAPE  H14R19505   4.812   2.331   7.569 -1.8200  1.1703 -0.0945
  172SAPE  C21519506   4.809   2.449   7.743 -0.0766  0.8165  0.4736
  172SAPE  H15R19507   4.780   2.359   7.801  0.4426 -0.0883 -0.6316
  172SAPE  C21619508   4.829   2.567   7.825 -0.9470 -0.3752 -0.7775
  172SAPE  H16R19509   4.896   2.638   7.773 -2.0284 -0.6700 -2.6505
  172SAPE  H16S19510   4.892   2.536   7.912 -0.2128  0.9600 -0.7997
  172SAPE  C21719511   4.701   2.637   7.863 -0.5231 -0.5922 -0.2404
  172SAPE  H17R19512   4.634   2.572   7.924 -1.8180  0.0137 -0.9683
  172SAPE  H17S19513   4.646   2.669   7.772 -3.5582  0.6309  1.8585
  172SAPE  C21819514   4.718   2.772   7.946 -0.1343  0.4438  0.7284
  172SAPE  H18R19515   4.765   2.752   8.044  0.3683 -2.1780  0.0452
  172SAPE  H18S19516   4.616   2.816   7.958  0.7116  2.9810 -0.6936
  172SAPE  C21919517   4.802   2.866   7.860  0.2856  1.3101 -0.1430
  172SAPE  H19R19518   4.759   2.862   7.757 -1.5839  0.9344  0.6179
  172SAPE  H19S19519   4.905   2.826   7.854 -0.0617 -0.0122  2.0394
  172SAPE  C22019520   4.807   3.004   7.911 -0.3105 -0.2047 -0.5826
  172SAPE  H20R19521   4.887   3.013   7.987 -1.1256 -0.4827  0.3298
  172SAPE  H20S19522   4.715   3.055   7.947  0.6296  1.6018 -0.6506
  172SAPE  H20T19523   4.834   3.062   7.820  0.4563 -0.9578 -0.8481
  172SAPE   C3319524   4.731   1.653   6.983 -0.6384  0.3383 -1.2770
  172SAPE   H3X19525   4.841   1.658   6.970 -0.1695  1.5522  2.2043
  172SAPE   H3Y19526   4.698   1.554   6.943  1.8846 -1.1244 -0.0184
  172SAPE   C3419527   4.664   1.662   7.118 -0.8660  0.0111 -0.5090
  172SAPE   H4X19528   4.665   1.564   7.170 -0.4385  0.0587 -0.4275
  172SAPE   H4Y19529   4.558   1.678   7.088 -0.5906 -0.3057 -1.6948
  172SAPE   C3519530   4.708   1.783   7.200  0.3536 -0.0227  0.0806
  172SAPE   H5X19531   4.694   1.876   7.141 -0.1077  0.6493  1.2135
  172SAPE   H5Y19532   4.815   1.764   7.224  0.2870 -1.5063 -0.6505
  172SAPE   C3619533   4.630   1.787   7.334  0.0402 -0.1876 -0.6494
  172SAPE   H6X19534   4.623   1.688   7.384  1.7608 -0.8885 -1.7123
  172SAPE   H6Y19535   4.535   1.839   7.311  0.4267  1.1008  0.5329
  172SAPE   C3719536   4.688   1.881   7.445  0.1510  0.0349  0.0639
  172SAPE   H7X19537   4.706   1.984   7.406 -1.9382  0.0625 -0.9212
  172SAPE   H7Y19538   4.791   1.854   7.476 -0.4662 -2.0186  0.4482
  172SAPE   C3819539   4.581   1.898   7.558 -0.4291 -0.4058  0.3679
  172SAPE   H8X19540   4.541   1.800   7.591 -1.7710 -0.5974 -1.6656
  172SAPE   H8Y19541   4.490   1.950   7.523  1.2938  1.8206 -1.0982
  172SAPE   C3919542   4.639   1.948   7.690  0.4731  0.0558  0.4912
  172SAPE   H9X19543   4.607   2.054   7.696  0.0118 -0.1064  1.0036
  172SAPE   H9Y19544   4.748   1.929   7.693  0.4791  0.1384  2.3889
  172SAPE  C31019545   4.583   1.885   7.816 -0.3595  0.4895  0.0501
  172SAPE  H10X19546   4.609   1.777   7.810  1.9213  1.0322 -1.1021
  172SAPE  H10Y19547   4.475   1.907   7.824  0.1160  3.1310  0.2046
  172SAPE  C31119548   4.657   1.934   7.942 -0.2827 -0.8677 -0.0047
  172SAPE  H11X19549   4.636   2.043   7.951 -0.3554 -0.6842 -1.9002
  172SAPE  H11Y19550   4.767   1.919   7.937 -0.0338  0.3131  1.4888
  172SAPE  C31219551   4.606   1.873   8.079 -0.7106 -0.7859 -0.2389
  172SAPE  H12X19552   4.634   1.766   8.066  2.8533 -0.3066  2.2332
  172SAPE  H12Y19553   4.498   1.885   8.100 -0.6849 -2.7090  1.2733
  172SAPE  C31319554   4.666   1.942   8.201 -0.4202 -0.4065  0.4197
  172SAPE  H13X19555   4.652   2.052   8.193 -0.9480 -0.3800  1.4927
  172SAPE  H13Y19556   4.775   1.929   8.189 -0.1287 -0.3783  2.5337
  172SAPE  C31419557   4.613   1.893   8.335 -0.3632  0.2521  0.1167
  172SAPE  H14X19558   4.504   1.876   8.321 -0.1508 -1.9506  0.7794
  172SAPE  H14Y19559   4.613   1.965   8.419 -0.1390  0.8290 -0.3734
  172SAPE  C31519560   4.668   1.750   8.375  0.4247 -0.1930 -0.2234
  172SAPE  H15X19561   4.774   1.734   8.346  0.8727 -0.4180  1.4178
  172SAPE  H15Y19562   4.614   1.674   8.315  2.9652 -1.6657 -0.8287
  172SAPE  C31619563   4.644   1.707   8.517  0.4773 -0.2289 -0.1129
  172SAPE  H16X19564   4.537   1.726   8.542  0.8145 -0.9097  2.0156
  172SAPE  H16Y19565   4.704   1.764   8.591 -1.4307 -1.3936  2.4974
  172SAPE  C31719566   4.663   1.554   8.534  0.1861 -0.0675 -0.4857
  172SAPE  H17X19567   4.617   1.493   8.454 -0.7663 -1.4007  1.0023
  172SAPE  H17Y19568   4.624   1.505   8.626 -0.7050 -0.4393 -1.0474
  172SAPE  C31819569   4.806   1.525   8.542 -0.8491  0.5686  0.0464
  172SAPE  H18X19570   4.821   1.417   8.562 -0.1735  0.4599 -0.9571
  172SAPE  H18Y19571   4.864   1.581   8.619  0.8695 -0.5405 -0.3796
  172SAPE  H18Z19572   4.853   1.550   8.444  0.9083 -0.8997  0.4576
  173SOPE     N19573   6.036   0.155  10.732  0.4925  0.1965 -0.5719
  173SOPE   HN119574   6.130   0.173  10.774  1.0302 -1.4728 -0.9903
  173SOPE   HN219575   6.058   0.122  10.636 -0.0421 -0.5603 -0.4447
  173SOPE   HN319576   5.992   0.249  10.729  0.5488  0.2188 -0.7031
  173SOPE   C1219577   5.960   0.053  10.818  0.0320  0.1137  0.2282
  173SOPE  H12A19578   5.980  -0.049  10.778  0.7177  0.3818 -0.1385
  173SOPE  H12B19579   5.852   0.065  10.799  0.1251 -0.4488 -0.7471
  173SOPE   C1119580   5.997   0.067  10.970 -0.2445  0.2231 -0.3315
  173SOPE  H11A19581   5.920   0.002  11.018  1.6090 -1.8056  0.0659
  173SOPE  H11B19582   5.971   0.171  11.000 -2.7821 -0.5247  0.3379
  173SOPE     P19583   6.180  -0.122  11.013 -0.1241  0.2757  0.0231
  173SOPE   O1319584   6.083  -0.207  10.936  0.4206 -0.0922 -0.4971
  173SOPE   O1419585   6.185  -0.157  11.157 -0.1288  0.3457 -0.0599
  173SOPE   O1219586   6.132   0.029  10.999  0.0842 -0.7874  0.0930
  173SOPE   O1119587   6.326  -0.133  10.957  0.0705 -0.3128 -0.4920
  173SOPE    C119588   6.369  -0.065  10.844 -0.0421 -0.3707 -0.4070
  173SOPE    HA19589   6.480  -0.064  10.838 -0.0159  3.0044 -1.6278
  173SOPE    HB19590   6.331   0.040  10.843 -0.5732 -0.5669 -1.2354
  173SOPE    C219591   6.328  -0.127  10.707  0.1608 -0.2126 -0.1199
  173SOPE    HS19592   6.217  -0.121  10.707  0.0134 -1.4935  2.6181
  173SOPE   O2119593   6.360  -0.262  10.703 -0.7111 -0.0866 -0.3875
  173SOPE   C2119594   6.292  -0.336  10.615 -0.3266 -0.3652  0.4507
  173SOPE   O2219595   6.207  -0.291  10.541 -0.3213 -0.0554 -0.1008
  173SOPE   C2219596   6.336  -0.477  10.634  0.5331  0.0536 -0.8117
  173SOPE   H2R19597   6.280  -0.524  10.718  0.9713  0.8649 -0.0528
  173SOPE   H2S19598   6.445  -0.475  10.658  0.4925  0.8527 -0.6731
  173SOPE    C319599   6.400  -0.042  10.594 -0.4054  0.3906 -0.6358
  173SOPE    HX19600   6.505  -0.069  10.618 -0.6461 -0.1711 -0.1835
  173SOPE    HY19601   6.392   0.066  10.618  0.8426  0.5084 -0.7222
  173SOPE   O3119602   6.370  -0.071  10.457 -0.2407  0.1185 -0.5500
  173SOPE   C3119603   6.242  -0.033  10.429 -0.6975  0.3933  0.2935
  173SOPE   O3219604   6.168   0.026  10.501  0.0540  0.3117  0.2502
  173SOPE   C3219605   6.199  -0.101  10.299  0.4157 -0.2085 -0.3751
  173SOPE   H2X19606   6.140  -0.194  10.313  0.4979 -0.2075 -0.0340
  173SOPE   H2Y19607   6.292  -0.120  10.241  1.8707  1.1187  1.4215
  173SOPE   C2319608   6.295  -0.571  10.516  0.1528  0.9193 -0.2535
  173SOPE   H3R19609   6.197  -0.534  10.479  0.2495  1.4931  0.0424
  173SOPE   H3S19610   6.271  -0.673  10.551  0.9066  0.1281 -1.9416
  173SOPE   C2419611   6.393  -0.579  10.399 -0.5973 -0.0031  1.0098
  173SOPE   H4R19612   6.494  -0.597  10.442 -0.4503 -0.7280  0.3795
  173SOPE   H4S19613   6.374  -0.677  10.350  0.1288  0.2352  0.2295
  173SOPE   C2519614   6.374  -0.465  10.299 -0.0411 -0.3595 -0.1956
  173SOPE   H5R19615   6.265  -0.447  10.292  0.1144  0.6406 -0.2679
  173SOPE   H5S19616   6.424  -0.369  10.325  0.7296 -0.6139 -0.6911
  173SOPE   C2619617   6.417  -0.505  10.155  0.1818 -0.2848  0.2664
  173SOPE   H6R19618   6.528  -0.509  10.158  0.2352 -0.2429 -1.1789
  173SOPE   H6S19619   6.371  -0.604  10.131  0.2827 -0.3026  0.1492
  173SOPE   C2719620   6.366  -0.394  10.069 -0.3674  0.1034  0.6366
  173SOPE   H7R19621   6.256  -0.383  10.082 -0.5956  0.7244 -1.3634
  173SOPE   H7S19622   6.413  -0.300  10.102  2.6007 -0.9989 -0.1412
  173SOPE   C2819623   6.392  -0.408   9.914  0.4042 -0.2545  0.2829
  173SOPE   H8R19624   6.501  -0.433   9.912  0.4620  0.0218 -0.6131
  173SOPE   H8S19625   6.334  -0.494   9.874  2.0498 -0.8640 -0.9072
  173SOPE   C2919626   6.357  -0.284   9.843 -0.1141  0.8104  0.3915
  173SOPE   H9119627   6.285  -0.215   9.890 -0.4980  1.2575 -0.8320
  173SOPE  C21019628   6.395  -0.254   9.715  1.0651  0.1541  0.3085
  173SOPE  H10119629   6.370  -0.157   9.669 -1.1344 -1.0647 -1.2360
  173SOPE  C21119630   6.473  -0.350   9.624  0.1704  0.5348  1.5944
  173SOPE  H11R19631   6.393  -0.408   9.574  0.4275  3.3411 -2.5438
  173SOPE  H11S19632   6.547  -0.401   9.688  1.4833 -0.3060 -0.5095
  173SOPE  C21219633   6.556  -0.281   9.515 -0.5028 -0.0984 -0.0237
  173SOPE  H12R19634   6.640  -0.345   9.482 -0.2668 -1.1068  2.3979
  173SOPE  H12S19635   6.607  -0.191   9.555  1.0869 -0.5819 -0.9008
  173SOPE  C21319636   6.474  -0.233   9.392  0.2617 -0.6578  0.4043
  173SOPE  H13R19637   6.530  -0.147   9.351  1.0640 -0.9119  0.9352
  173SOPE  H13S19638   6.383  -0.185   9.433 -0.6104 -0.0927 -2.0397
  173SOPE  C21419639   6.438  -0.329   9.281  0.0769  0.1098 -0.1549
  173SOPE  H14R19640   6.361  -0.285   9.214  0.2241  0.6625  0.0340
  173SOPE  H14S19641   6.375  -0.400   9.338 -1.4845  3.1759  2.2784
  173SOPE  C21519642   6.552  -0.394   9.201 -0.7950  0.0630  0.0617
  173SOPE  H15R19643   6.497  -0.476   9.151 -1.1199  0.3177 -0.0098
  173SOPE  H15S19644   6.646  -0.424   9.251 -1.3939 -0.8635  0.6774
  173SOPE  C21619645   6.603  -0.311   9.085  0.7026 -0.5009 -0.6360
  173SOPE  H16R19646   6.647  -0.214   9.115 -0.0899  0.2234 -1.7418
  173SOPE  H16S19647   6.513  -0.288   9.023  0.4388 -1.0335 -0.4561
  173SOPE  C21719648   6.702  -0.387   8.991  0.2758 -0.0895  0.2190
  173SOPE  H17R19649   6.793  -0.409   9.052  0.7921  2.4559  0.4988
  173SOPE  H17S19650   6.738  -0.327   8.905 -2.9997 -1.6024 -2.3928
  173SOPE  C21819651   6.647  -0.507   8.908  0.6433 -0.3210 -0.8087
  173SOPE  H18R19652   6.707  -0.537   8.820  3.4942 -0.1932  0.9606
  173SOPE  H18S19653   6.541  -0.497   8.876  0.3478 -0.0268  0.2137
  173SOPE  H18T19654   6.645  -0.592   8.980 -3.0083  2.2990  2.6851
  173SOPE   C3319655   6.094  -0.029  10.213  0.1598 -0.1806  0.1277
  173SOPE   H3X19656   6.137   0.073  10.200 -0.9097  0.0786 -1.6852
  173SOPE   H3Y19657   5.991  -0.026  10.252 -0.6885 -1.7132 -1.8598
  173SOPE   C3419658   6.088  -0.088  10.067 -0.9025 -0.6835  0.7642
  173SOPE   H4X19659   6.027  -0.180  10.070  0.1819 -1.4016  2.4812
  173SOPE   H4Y19660   6.190  -0.119  10.036 -0.2613 -0.0324  2.1137
  173SOPE   C3519661   6.037   0.011   9.957  0.1877  0.2830  0.1957
  173SOPE   H5X19662   6.101   0.101   9.966  1.1927 -0.5407  1.7013
  173SOPE   H5Y19663   5.933   0.039   9.985  0.4855  1.8613 -0.2041
  173SOPE   C3619664   6.029  -0.043   9.812 -0.6315 -0.2403  0.3541
  173SOPE   H6X19665   5.986  -0.146   9.818 -0.7413 -0.1655  0.9439
  173SOPE   H6Y19666   6.131  -0.049   9.770 -0.0910 -0.9911  1.7131
  173SOPE   C3719667   5.929   0.031   9.719  0.4243 -0.5504  0.8610
  173SOPE   H7X19668   5.959   0.138   9.716 -0.1051 -0.4066  0.4514
  173SOPE   H7Y19669   5.828   0.020   9.764 -0.4748 -2.2477 -1.3467
  173SOPE   C3819670   5.923  -0.025   9.575  0.3889  0.1064  0.1758
  173SOPE   H8X19671   5.836   0.021   9.524  0.5184  2.3000  1.7379
  173SOPE   H8Y19672   5.903  -0.133   9.585  0.3981  0.1037  0.1628
  173SOPE   C3919673   6.055  -0.002   9.491  0.0305  0.0683 -0.4347
  173SOPE   H9X19674   6.148  -0.023   9.547 -0.3822  1.8402  1.0047
  173SOPE   H9Y19675   6.059   0.108   9.476  0.4198  0.0714 -0.3172
  173SOPE  C31019676   6.065  -0.066   9.357  0.1354 -0.0307  0.3221
  173SOPE  H10X19677   5.970  -0.037   9.306  0.9606 -1.7464 -2.3483
  173SOPE  H10Y19678   6.061  -0.177   9.362  1.0613 -0.1379 -0.8935
  173SOPE  C31119679   6.175  -0.023   9.266 -0.3700 -0.6837 -0.1111
  173SOPE  H11X19680   6.276  -0.049   9.304 -0.0984  0.5089  0.0185
  173SOPE  H11Y19681   6.166   0.088   9.263 -0.8133 -0.7169 -3.3804
  173SOPE  C31219682   6.164  -0.073   9.119 -0.2762  0.3911 -0.9151
  173SOPE  H12X19683   6.087  -0.034   9.049 -2.1232 -1.5131 -0.0377
  173SOPE  H12Y19684   6.134  -0.179   9.132 -2.2015  0.7810 -1.8508
  173SOPE  C31319685   6.299  -0.067   9.040  0.8815 -0.3019  0.4360
  173SOPE  H13X19686   6.382  -0.117   9.094  0.1520 -2.6668 -0.4981
  173SOPE  H13Y19687   6.321   0.039   9.016 -2.6014  0.1028 -1.6672
  173SOPE  C31419688   6.292  -0.132   8.900  0.0037  0.2697 -0.1466
  173SOPE  H14X19689   6.199  -0.107   8.844 -0.0274  1.3104  0.3440
  173SOPE  H14Y19690   6.281  -0.242   8.912 -0.0409  0.3001  0.0906
  173SOPE  C31519691   6.411  -0.098   8.807  0.0422 -0.5115 -0.3052
  173SOPE  H15X19692   6.500  -0.139   8.858 -1.2241 -0.4412  2.0838
  173SOPE  H15Y19693   6.423   0.012   8.796 -0.2440 -0.4028  0.4407
  173SOPE  C31619694   6.388  -0.159   8.669  0.3079 -0.3362 -0.1986
  173SOPE  H16X19695   6.479  -0.125   8.617 -0.4878 -0.5259 -1.7875
  173SOPE  H16Y19696   6.301  -0.125   8.608  1.1601 -0.5156 -1.5446
  173SOPE  C31719697   6.368  -0.310   8.642 -0.9688  0.6254 -0.6788
  173SOPE  H17X19698   6.273  -0.350   8.683 -0.1049  0.2003  1.0252
  173SOPE  H17Y19699   6.448  -0.360   8.701 -1.2940  0.8327 -0.0564
  173SOPE  C31819700   6.368  -0.355   8.499  0.0285  0.0750 -0.6110
  173SOPE  H18X19701   6.461  -0.333   8.442  1.0668 -1.7822  0.2491
  173SOPE  H18Y19702   6.273  -0.333   8.447 -1.7089 -0.9706  1.9303
  173SOPE  H18Z19703   6.365  -0.466   8.503 -0.1367  0.1157  1.4903
  174SOPE     N19704   6.248   0.823  10.957  0.4303  0.1061  1.4655
  174SOPE   HN119705   6.231   0.917  11.000 -1.4338 -0.4945  2.1248
  174SOPE   HN219706   6.329   0.780  11.007  0.7177 -1.3673 -0.1729
  174SOPE   HN319707   6.270   0.843  10.857  0.6980  2.0371  1.8541
  174SOPE   C1219708   6.126   0.735  10.963  0.2895 -0.0127 -0.4098
  174SOPE  H12A19709   6.037   0.790  10.926  0.5999  0.0900 -1.0059
  174SOPE  H12B19710   6.114   0.712  11.072 -1.1220  1.2268 -0.2761
  174SOPE   C1119711   6.151   0.605  10.888  0.3025  0.3893  0.4885
  174SOPE  H11A19712   6.185   0.635  10.786  0.7892  3.8545  1.5665
  174SOPE  H11B19713   6.052   0.556  10.881 -0.0812  1.2575 -0.5392
  174SOPE     P19714   6.312   0.397  10.875 -0.0224 -0.1100 -0.0248
  174SOPE   O1319715   6.207   0.294  10.876  0.2247 -0.2370 -0.0353
  174SOPE   O1419716   6.442   0.361  10.938  0.0127  0.4258  0.6258
  174SOPE   O1219717   6.262   0.527  10.943  0.6184 -0.4716  0.0879
  174SOPE   O1119718   6.335   0.454  10.723  0.1510 -0.0155 -0.2623
  174SOPE    C119719   6.433   0.552  10.705  0.5753 -0.0338  0.4158
  174SOPE    HA19720   6.527   0.528  10.760  1.5316 -1.3516 -1.6866
  174SOPE    HB19721   6.414   0.655  10.741  1.9994  0.4602 -0.1471
  174SOPE    C219722   6.454   0.576  10.551 -0.4952  0.5450 -0.2103
  174SOPE    HS19723   6.351   0.597  10.515 -1.0992 -0.6569  0.7496
  174SOPE   O2119724   6.514   0.460  10.492  0.0947  0.3970 -0.0915
  174SOPE   C2119725   6.435   0.393  10.408 -0.2819 -0.3485  0.1013
  174SOPE   O2219726   6.317   0.426  10.383 -0.1541 -0.1636 -1.1528
  174SOPE   C2219727   6.520   0.278  10.352 -0.1931 -0.5959  0.2884
  174SOPE   H2R19728   6.551   0.216  10.438  1.6998  1.4536  1.1715
  174SOPE   H2S19729   6.613   0.322  10.310 -1.3675  1.1092 -0.6665
  174SOPE    C319730   6.530   0.703  10.505 -0.5593 -0.3439 -0.2834
  174SOPE    HX19731   6.633   0.696  10.546  0.0349  0.5785 -1.5398
  174SOPE    HY19732   6.484   0.796  10.547  1.4614  1.1646 -1.2099
  174SOPE   O3119733   6.533   0.713  10.356 -0.0946  0.5981 -0.2016
  174SOPE   C3119734   6.640   0.671  10.290 -0.0735 -0.0550 -0.0437
  174SOPE   O3219735   6.747   0.643  10.346  0.0061 -0.0321  0.5874
  174SOPE   C3219736   6.612   0.705  10.141  0.4688  0.7506  0.5101
  174SOPE   H2X19737   6.670   0.797  10.122  2.6768 -0.2338  2.0521
  174SOPE   H2Y19738   6.503   0.723  10.131  0.0633 -2.2516 -2.0213
  174SOPE   C2319739   6.452   0.189  10.241 -0.6353  0.9031 -0.6067
  174SOPE   H3R19740   6.346   0.170  10.271 -0.4597  2.4814  1.2059
  174SOPE   H3S19741   6.498   0.088  10.233 -0.7274  0.8322 -0.2430
  174SOPE   C2419742   6.453   0.252  10.102  0.4496 -0.5598 -0.3856
  174SOPE   H4R19743   6.415   0.356  10.110  2.0167  0.0003  0.0415
  174SOPE   H4S19744   6.560   0.266  10.075  0.7027 -1.4819  0.0879
  174SOPE   C2519745   6.373   0.179   9.994  0.3073 -0.2306 -0.4337
  174SOPE   H5R19746   6.396   0.070   9.997  0.6758 -0.1339  1.1338
  174SOPE   H5S19747   6.269   0.200  10.026  0.1836 -0.1465 -0.8798
  174SOPE   C2619748   6.393   0.251   9.862  0.0624  0.1752 -0.1450
  174SOPE   H6R19749   6.381   0.362   9.870 -0.0948  0.0419  1.8448
  174SOPE   H6S19750   6.495   0.216   9.835 -0.0807 -0.4106  0.0779
  174SOPE   C2719751   6.290   0.203   9.756  0.2143 -0.2219  0.1964
  174SOPE   H7R19752   6.260   0.099   9.780  0.9077 -0.3270  0.6373
  174SOPE   H7S19753   6.202   0.270   9.762  0.5991  0.2231  1.0202
  174SOPE   C2819754   6.336   0.197   9.604  0.4252  0.4262 -0.3320
  174SOPE   H8R19755   6.257   0.167   9.532  1.8383 -1.8108 -1.0560
  174SOPE   H8S19756   6.372   0.300   9.583 -0.2426  1.1674  1.8605
  174SOPE   C2919757   6.445   0.095   9.582 -0.5128 -0.0290 -1.1772
  174SOPE   H9119758   6.465   0.040   9.675 -1.6942 -0.5158 -1.1947
  174SOPE  C21019759   6.536   0.098   9.484  0.2467 -0.4635 -1.0750
  174SOPE  H10119760   6.625   0.034   9.478  1.5970  1.3951 -1.4496
  174SOPE  C21119761   6.541   0.206   9.378 -0.5077 -0.2892  0.0008
  174SOPE  H11R19762   6.637   0.262   9.379 -0.3435 -0.5679 -0.0780
  174SOPE  H11S19763   6.459   0.281   9.385 -0.1389  0.1053  0.1243
  174SOPE  C21219764   6.534   0.152   9.233 -0.5529  0.5449 -0.1800
  174SOPE  H12R19765   6.498   0.235   9.169 -0.4605  0.6122 -0.1441
  174SOPE  H12S19766   6.456   0.074   9.229  0.9939 -0.9935 -2.3684
  174SOPE  C21319767   6.671   0.103   9.186 -0.7047  0.0146 -0.1161
  174SOPE  H13R19768   6.717   0.026   9.251  1.4769  0.2364 -1.2911
  174SOPE  H13S19769   6.726   0.200   9.184 -1.3697  0.3919 -0.1254
  174SOPE  C21419770   6.672   0.062   9.035  0.2678  0.1882  0.0796
  174SOPE  H14R19771   6.638   0.155   8.986 -1.8490 -0.2272  0.6469
  174SOPE  H14S19772   6.591  -0.010   9.010  0.4976 -0.9097  2.2510
  174SOPE  C21519773   6.801   0.004   8.976 -0.0327 -0.4076  0.6109
  174SOPE  H15R19774   6.809  -0.100   9.013 -1.7462  0.0214  2.3294
  174SOPE  H15S19775   6.888   0.064   9.009 -0.3885 -0.9272  2.5923
  174SOPE  C21619776   6.796  -0.007   8.822 -0.1521 -0.0954 -0.0054
  174SOPE  H16R19777   6.769   0.094   8.784  0.4070  0.6384  1.4292
  174SOPE  H16S19778   6.713  -0.079   8.805 -1.0146  1.3166 -2.2482
  174SOPE  C21719779   6.936  -0.042   8.758 -0.8727  0.5077  0.1395
  174SOPE  H17R19780   7.006   0.037   8.792 -1.1537 -0.2641  2.7041
  174SOPE  H17S19781   6.907  -0.043   8.651  1.1557 -0.9927 -0.4584
  174SOPE  C21819782   7.011  -0.170   8.795 -0.2318  0.3712 -1.0085
  174SOPE  H18R19783   6.940  -0.251   8.769  0.1130 -0.8729  1.6589
  174SOPE  H18S19784   7.024  -0.186   8.904  1.9145  0.4087 -1.2170
  174SOPE  H18T19785   7.112  -0.178   8.749  0.1901  1.9634 -0.4329
  174SOPE   C3319786   6.656   0.599  10.032 -0.3590 -0.3401  0.5723
  174SOPE   H3X19787   6.616   0.499  10.058  0.6335 -1.4980 -1.9879
  174SOPE   H3Y19788   6.766   0.592  10.039 -0.3411 -2.2428 -0.7744
  174SOPE   C3419789   6.613   0.638   9.895 -0.6140 -0.0029  0.2862
  174SOPE   H4X19790   6.640   0.741   9.863  2.0506 -0.1779  1.6467
  174SOPE   H4Y19791   6.504   0.619   9.891 -0.1614 -3.8663  1.7535
  174SOPE   C3519792   6.688   0.548   9.788  0.5557 -0.0134  0.6323
  174SOPE   H5X19793   6.662   0.441   9.798 -2.0638  0.4943  0.0588
  174SOPE   H5Y19794   6.795   0.574   9.804 -0.0293  2.3021  1.1176
  174SOPE   C3619795   6.657   0.593   9.645 -0.4285 -0.2782  0.1951
  174SOPE   H6X19796   6.654   0.704   9.641  0.8066 -0.1787  1.3772
  174SOPE   H6Y19797   6.558   0.548   9.620 -0.6964  1.6453 -2.7544
  174SOPE   C3719798   6.746   0.530   9.536 -0.0471 -0.0168 -0.6120
  174SOPE   H7X19799   6.739   0.419   9.525 -2.5935  0.2591 -2.6523
  174SOPE   H7Y19800   6.854   0.554   9.550 -0.4820  1.1615  0.9624
  174SOPE   C3819801   6.693   0.575   9.397 -0.7419  0.2390 -0.9389
  174SOPE   H8X19802   6.685   0.685   9.406 -0.5216  0.1365  0.8762
  174SOPE   H8Y19803   6.592   0.528   9.388 -2.1777  2.7012  1.2522
  174SOPE   C3919804   6.791   0.536   9.288  0.0562 -1.1171 -0.8025
  174SOPE   H9X19805   6.805   0.426   9.279 -1.8175 -1.2323 -3.2779
  174SOPE   H9Y19806   6.895   0.566   9.314  1.3261 -3.4397 -2.8358
  174SOPE  C31019807   6.757   0.584   9.148  0.1345 -0.8293  0.7134
  174SOPE  H10X19808   6.758   0.694   9.131  1.4135 -1.1216 -1.4752
  174SOPE  H10Y19809   6.658   0.542   9.123 -0.5215  0.4843  1.0553
  174SOPE  C31119810   6.869   0.534   9.045  0.1009 -0.7055 -0.4617
  174SOPE  H11X19811   6.887   0.425   9.057  3.7308 -0.0472  1.4136
  174SOPE  H11Y19812   6.965   0.580   9.077  0.5653 -0.0579 -2.6703
  174SOPE  C31219813   6.857   0.578   8.895  0.2302 -0.5870  0.3342
  174SOPE  H12X19814   6.934   0.520   8.840  1.1979  0.1394  0.8965
  174SOPE  H12Y19815   6.873   0.687   8.879 -0.9475 -0.5632 -0.9070
  174SOPE  C31319816   6.722   0.543   8.824  0.7766 -0.0436 -0.5290
  174SOPE  H13X19817   6.640   0.609   8.859  0.8006 -0.4373  0.2844
  174SOPE  H13Y19818   6.694   0.438   8.844  0.5133 -0.1094 -1.2173
  174SOPE  C31419819   6.733   0.565   8.675 -0.0366  0.2512 -0.0411
  174SOPE  H14X19820   6.794   0.489   8.622  1.0542 -0.1658  1.7082
  174SOPE  H14Y19821   6.773   0.667   8.655  3.9266 -0.7759  1.6482
  174SOPE  C31519822   6.588   0.561   8.628  0.5235 -0.7734 -0.0821
  174SOPE  H15X19823   6.530   0.627   8.697  2.4790 -1.3768  2.3063
  174SOPE  H15Y19824   6.545   0.459   8.626  2.3128 -1.5603 -1.0150
  174SOPE  C31619825   6.569   0.597   8.481 -0.4860  0.1971  0.2504
  174SOPE  H16X19826   6.609   0.526   8.406 -2.2085 -0.6471  0.0904
  174SOPE  H16Y19827   6.617   0.695   8.463  0.7420 -0.2949  0.7107
  174SOPE  C31719828   6.423   0.625   8.445  0.5123  0.6465  0.4702
  174SOPE  H17X19829   6.374   0.638   8.544  2.7004 -2.3829  2.1052
  174SOPE  H17Y19830   6.377   0.537   8.396 -0.3541  0.6584  1.2452
  174SOPE  C31819831   6.407   0.747   8.349  0.5910  0.4690 -0.6503
  174SOPE  H18X19832   6.297   0.763   8.349  0.1303 -2.0567  1.0090
  174SOPE  H18Y19833   6.444   0.728   8.246 -0.2296  0.3478 -0.9290
  174SOPE  H18Z19834   6.460   0.837   8.386 -0.5553  0.7185  0.4291
  175SOPE     N19835   2.130   2.198  10.524  0.2561  0.1538 -0.3060
  175SOPE   HN119836   2.182   2.128  10.582 -0.1807  0.5301  0.5598
  175SOPE   HN219837   2.199   2.223  10.450 -0.7779  2.2850 -0.6391
  175SOPE   HN319838   2.117   2.287  10.577  1.7102  0.7618 -0.9003
  175SOPE   C1219839   1.994   2.156  10.475 -0.6475 -0.1416 -0.2815
  175SOPE  H12A19840   1.937   2.125  10.565  2.2045  1.2195  2.1449
  175SOPE  H12B19841   2.017   2.074  10.403  0.1432 -0.3301  0.1775
  175SOPE   C1119842   1.924   2.277  10.405 -0.1503 -0.2179 -0.2784
  175SOPE  H11A19843   1.822   2.250  10.370 -2.2697  1.4161  3.9714
  175SOPE  H11B19844   1.998   2.294  10.324  0.8150 -0.1068  0.6073
  175SOPE     P19845   1.778   2.448  10.542 -0.5753  0.2126 -0.3812
  175SOPE   O1319846   1.798   2.577  10.609 -0.3633 -0.0628  0.5878
  175SOPE   O1419847   1.699   2.344  10.601 -0.0029 -0.7418  0.3928
  175SOPE   O1219848   1.913   2.382  10.495  0.0511  0.3330 -0.5811
  175SOPE   O1119849   1.715   2.489  10.407  0.2546  0.1510  0.2700
  175SOPE    C119850   1.776   2.563  10.305 -0.4229 -0.0838  0.3340
  175SOPE    HA19851   1.880   2.527  10.287  0.8809  3.1678  0.7582
  175SOPE    HB19852   1.780   2.670  10.335 -0.3838 -0.2924  1.0751
  175SOPE    C219853   1.692   2.537  10.175 -0.2123  0.3679  0.0252
  175SOPE    HS19854   1.717   2.433  10.144 -1.1616  0.3255 -0.6407
  175SOPE   O2119855   1.730   2.631  10.079  0.2410 -0.3707  0.0934
  175SOPE   C2119856   1.834   2.605  10.009  0.2392  0.9397 -0.5252
  175SOPE   O2219857   1.914   2.514  10.014  0.7287 -0.3290 -0.1746
  175SOPE   C2219858   1.859   2.717   9.905 -0.1328  0.4920 -0.0180
  175SOPE   H2R19859   1.966   2.746   9.896 -0.0949  0.5849  0.6910
  175SOPE   H2S19860   1.805   2.812   9.930 -1.6709 -0.5854  0.9209
  175SOPE    C319861   1.535   2.542  10.205 -0.2676 -0.1482 -0.2952
  175SOPE    HX19862   1.523   2.644  10.248 -2.3771  0.2367 -1.6290
  175SOPE    HY19863   1.508   2.472  10.287  1.6936 -0.7713 -0.1347
  175SOPE   O3119864   1.451   2.531  10.089 -0.6486  0.5596  0.3133
  175SOPE   C3119865   1.419   2.403  10.051  0.5955  0.0428  0.8230
  175SOPE   O3219866   1.458   2.299  10.101  0.1447  0.3870 -0.5097
  175SOPE   C3219867   1.324   2.411   9.940  0.1491  0.5645 -0.3550
  175SOPE   H2X19868   1.235   2.474   9.957 -1.1193 -1.7042  2.0635
  175SOPE   H2Y19869   1.290   2.307   9.923 -0.8916  0.5642  1.5101
  175SOPE   C2319870   1.821   2.674   9.759  0.2800 -0.3238 -0.7706
  175SOPE   H3R19871   1.717   2.634   9.758 -2.1524  5.0155 -0.5382
  175SOPE   H3S19872   1.887   2.588   9.734  2.1105 -0.8185  4.4346
  175SOPE   C2419873   1.819   2.775   9.650 -0.3007  0.0404  0.2467
  175SOPE   H4R19874   1.731   2.841   9.663 -0.7253 -0.0668 -1.8634
  175SOPE   H4S19875   1.914   2.832   9.666  0.4400 -1.2155  0.4891
  175SOPE   C2519876   1.828   2.716   9.515  0.1738 -0.2412  0.2040
  175SOPE   H5R19877   1.914   2.645   9.510 -1.4611 -2.2005 -2.3953
  175SOPE   H5S19878   1.731   2.667   9.496  0.2219  0.6468 -2.8862
  175SOPE   C2619879   1.838   2.819   9.406 -0.7169 -1.3508  1.1002
  175SOPE   H6R19880   1.739   2.869   9.398  0.0461  0.3536  1.7061
  175SOPE   H6S19881   1.915   2.894   9.435 -1.0336 -0.4376 -0.3217
  175SOPE   C2719882   1.866   2.775   9.257 -0.7136  0.1411  0.5433
  175SOPE   H7R19883   1.948   2.700   9.254  1.5610  2.4769 -0.2087
  175SOPE   H7S19884   1.781   2.707   9.237 -0.6758  0.5170 -1.0195
  175SOPE   C2819885   1.869   2.891   9.161  0.0054 -0.0562  0.1509
  175SOPE   H8R19886   1.801   2.965   9.207 -0.9496  0.7614 -2.3619
  175SOPE   H8S19887   1.969   2.939   9.168 -0.0332  0.0262  0.1384
  175SOPE   C2919888   1.819   2.867   9.020 -0.5155  0.5574 -0.6176
  175SOPE   H9119889   1.759   2.775   9.014  0.1039 -0.0399  1.4788
  175SOPE  C21019890   1.845   2.928   8.906  0.0852  0.8362 -0.1885
  175SOPE  H10119891   1.806   2.877   8.817  2.7312 -1.3799 -0.2231
  175SOPE  C21119892   1.929   3.044   8.881  0.7655 -0.1062 -0.7716
  175SOPE  H11R19893   1.950   3.099   8.975 -2.0273  0.5412 -0.4509
  175SOPE  H11S19894   1.857   3.104   8.821  0.4680  0.6464  0.3033
  175SOPE  C21219895   2.062   3.024   8.797  0.6150  0.0123 -0.4484
  175SOPE  H12R19896   2.138   2.975   8.861 -1.0886  0.7078  2.2787
  175SOPE  H12S19897   2.092   3.129   8.776 -1.5202  0.3996 -1.9597
  175SOPE  C21319898   2.054   2.950   8.665 -0.1418  0.2298 -1.0864
  175SOPE  H13R19899   2.016   2.847   8.683 -4.0271  1.4447 -1.4791
  175SOPE  H13S19900   2.157   2.955   8.623  0.1608  0.7624 -0.2929
  175SOPE  C21419901   1.954   3.008   8.555  0.4318 -0.2268 -0.1930
  175SOPE  H14R19902   2.008   3.092   8.506  2.9790 -1.7053 -0.1144
  175SOPE  H14S19903   1.867   3.059   8.603  0.4292  2.6763 -2.9519
  175SOPE  C21519904   1.916   2.909   8.443 -0.7816  0.0864  0.3166
  175SOPE  H15R19905   1.866   2.816   8.478 -0.7406 -0.4551 -1.0002
  175SOPE  H15S19906   2.017   2.887   8.403  0.3640 -0.5751  3.3394
  175SOPE  C21619907   1.840   2.969   8.326 -0.2045 -0.6424  0.2095
  175SOPE  H16R19908   1.872   3.074   8.304 -2.4356  0.2127  0.7253
  175SOPE  H16S19909   1.731   2.971   8.349 -0.4141 -0.0812 -0.7700
  175SOPE  C21719910   1.853   2.885   8.200  0.1259 -0.0953  0.2263
  175SOPE  H17R19911   1.826   2.780   8.227 -2.4161  0.3411 -0.4461
  175SOPE  H17S19912   1.960   2.886   8.168  0.2272 -1.2929  0.4668
  175SOPE  C21819913   1.770   2.933   8.075 -0.4700 -0.3322  0.7620
  175SOPE  H18R19914   1.825   2.884   7.993 -0.9490 -1.4094  1.0586
  175SOPE  H18S19915   1.769   3.044   8.068 -1.5971 -0.4063 -0.6889
  175SOPE  H18T19916   1.664   2.898   8.070 -0.6441  0.3348 -3.0021
  175SOPE   C3319917   1.400   2.451   9.806  0.3521  0.0313 -0.5698
  175SOPE   H3X19918   1.473   2.375   9.771  0.5277 -0.5464  0.9645
  175SOPE   H3Y19919   1.455   2.542   9.836  0.2578 -0.7407  2.2095
  175SOPE   C3419920   1.317   2.471   9.687  0.0083 -0.3314 -0.2568
  175SOPE   H4X19921   1.261   2.566   9.702  0.4990 -0.1819  0.6760
  175SOPE   H4Y19922   1.238   2.395   9.667  0.3635 -0.2135 -2.3300
  175SOPE   C3519923   1.404   2.498   9.561  0.2928  0.2170 -0.0993
  175SOPE   H5X19924   1.440   2.396   9.535  0.9287 -0.7247  3.8977
  175SOPE   H5Y19925   1.499   2.556   9.568  0.9415 -0.2614 -3.2391
  175SOPE   C3619926   1.304   2.534   9.439 -0.4699  0.0151  0.4067
  175SOPE   H6X19927   1.261   2.634   9.460  0.2628  0.5909 -0.7632
  175SOPE   H6Y19928   1.223   2.458   9.433 -1.7136  1.4031 -3.0389
  175SOPE   C3719929   1.370   2.530   9.303  0.0809 -0.5401  0.1415
  175SOPE   H7X19930   1.400   2.428   9.272  1.3742  0.0559 -0.6575
  175SOPE   H7Y19931   1.455   2.602   9.300 -2.2252  2.3965 -0.0886
  175SOPE   C3819932   1.288   2.591   9.184 -0.0013  0.6954 -0.5524
  175SOPE   H8X19933   1.276   2.700   9.202 -1.3615  0.9236 -2.4622
  175SOPE   H8Y19934   1.187   2.543   9.182 -0.0598  0.7340  0.7357
  175SOPE   C3919935   1.361   2.574   9.052  0.5467 -0.0653  0.0793
  175SOPE   H9X19936   1.359   2.467   9.022  1.5537  0.2240 -1.0912
  175SOPE   H9Y19937   1.464   2.612   9.066  1.0073 -1.4895  0.7503
  175SOPE  C31019938   1.299   2.665   8.944 -0.2687 -0.1265 -0.2266
  175SOPE  H10X19939   1.301   2.768   8.984 -0.0692 -1.0916  2.4468
  175SOPE  H10Y19940   1.195   2.627   8.930 -0.2423 -0.1152 -0.4510
  175SOPE  C31119941   1.375   2.661   8.811 -0.6021 -0.4475  0.5119
  175SOPE  H11X19942   1.468   2.718   8.829  0.1546 -1.7683  0.8503
  175SOPE  H11Y19943   1.312   2.722   8.743  0.2846 -1.1124 -0.9604
  175SOPE  C31219944   1.396   2.515   8.751 -0.5511 -0.0219 -0.5710
  175SOPE  H12X19945   1.293   2.484   8.721  0.0172 -0.4969 -2.0668
  175SOPE  H12Y19946   1.440   2.457   8.835  3.9081  2.1133 -1.1509
  175SOPE  C31319947   1.483   2.494   8.620 -0.2963  0.1585  0.3888
  175SOPE  H13X19948   1.455   2.575   8.550 -0.3227 -1.4488 -1.5383
  175SOPE  H13Y19949   1.457   2.398   8.569  1.2619  0.4625 -1.0539
  175SOPE  C31419950   1.636   2.486   8.636  0.4299  0.1085  0.6847
  175SOPE  H14X19951   1.683   2.486   8.536  1.8486  3.0919  1.2406
  175SOPE  H14Y19952   1.667   2.391   8.686  1.2728  0.4225  0.7751
  175SOPE  C31519953   1.696   2.610   8.697  0.3565 -0.2701  0.0518
  175SOPE  H15X19954   1.682   2.598   8.807  0.6094 -1.1638 -0.0060
  175SOPE  H15Y19955   1.647   2.704   8.663  1.0048  0.2142  0.4332
  175SOPE  C31619956   1.852   2.627   8.681  0.3378  0.2164 -0.1944
  175SOPE  H16X19957   1.866   2.737   8.682 -4.0283  0.9503 -0.3828
  175SOPE  H16Y19958   1.881   2.593   8.579  2.7636  1.3361  0.0573
  175SOPE  C31719959   1.940   2.567   8.792  0.4068 -0.7214 -0.1286
  175SOPE  H17X19960   1.927   2.457   8.779 -1.0056 -0.4062 -1.5736
  175SOPE  H17Y19961   1.894   2.603   8.886  3.7146  2.9508  0.3484
  175SOPE  C31819962   2.085   2.616   8.788 -0.5311  0.0787 -0.3324
  175SOPE  H18X19963   2.146   2.563   8.865 -0.4458 -0.0969 -0.5226
  175SOPE  H18Y19964   2.098   2.724   8.809  0.3810  0.2117 -1.5335
  175SOPE  H18Z19965   2.140   2.605   8.693  0.6445  2.9746 -0.0707
  176SOPE     N19966   2.600   0.804  10.879 -0.3563 -0.1826 -0.1224
  176SOPE   HN119967   2.686   0.860  10.891  1.0582 -2.2998  0.0490
  176SOPE   HN219968   2.536   0.833  10.956 -2.0011 -0.3784 -1.3623
  176SOPE   HN319969   2.632   0.708  10.903  2.4384  0.7611  0.2794
  176SOPE   C1219970   2.522   0.798  10.750 -0.1202 -0.3299  0.3382
  176SOPE  H12A19971   2.593   0.784  10.666  1.4768  0.1584  1.5686
  176SOPE  H12B19972   2.479   0.898  10.730  0.0642  0.0457  1.7370
  176SOPE   C1119973   2.413   0.691  10.747  0.4724  0.2645  0.0304
  176SOPE  H11A19974   2.364   0.703  10.648 -2.2327 -0.9017  1.1068
  176SOPE  H11B19975   2.337   0.709  10.827  0.2979 -0.2480 -0.0148
  176SOPE     P19976   2.399   0.436  10.825 -0.7554 -0.0017  0.3942
  176SOPE   O1319977   2.254   0.455  10.814 -0.3755  0.0480  0.2607
  176SOPE   O1419978   2.452   0.403  10.957 -0.1904 -0.6223 -0.3277
  176SOPE   O1219979   2.473   0.566  10.776  0.5529  0.0387  0.5311
  176SOPE   O1119980   2.461   0.336  10.716  0.0591 -0.1669  0.3665
  176SOPE    C119981   2.600   0.303  10.703 -0.0266 -0.0060 -1.0259
  176SOPE    HA19982   2.610   0.204  10.752 -4.2710  0.0507  0.3474
  176SOPE    HB19983   2.665   0.378  10.752 -0.0751  0.3716 -1.5323
  176SOPE    C219984   2.644   0.290  10.554  0.3021  0.1184 -0.3439
  176SOPE    HS19985   2.753   0.313  10.548  0.3066 -0.0607 -1.0844
  176SOPE   O2119986   2.568   0.377  10.471  0.3076 -0.3267  0.3801
  176SOPE   C2119987   2.608   0.499  10.485 -0.3852  0.3433  0.2988
  176SOPE   O2219988   2.701   0.538  10.555  0.4170  0.3900  0.5419
  176SOPE   C2219989   2.535   0.585  10.380 -0.4148 -0.1453 -0.3350
  176SOPE   H2R19990   2.532   0.688  10.422 -0.1364 -0.4890  0.5570
  176SOPE   H2S19991   2.428   0.561  10.365 -1.2986  2.4434  1.1702
  176SOPE    C319992   2.619   0.148  10.495  0.5157  0.8532  0.0141
  176SOPE    HX19993   2.515   0.117  10.517 -0.1089  1.3920 -1.9560
  176SOPE    HY19994   2.681   0.075  10.551  0.5203  0.4093 -0.5563
  176SOPE   O3119995   2.638   0.130  10.353  0.2749 -0.1482 -0.2053
  176SOPE   C3119996   2.765   0.138  10.310  0.3758  0.2178 -0.5642
  176SOPE   O3219997   2.862   0.158  10.377 -0.0430 -0.2260 -0.0724
  176SOPE   C3219998   2.752   0.129  10.155  0.7812  0.4737 -0.1545
  176SOPE   H2X19999   2.703   0.225  10.129  0.1862  0.4817  0.9592
  176SOPE   H2Y20000   2.690   0.043  10.122  0.4612  0.4527  0.5001
  176SOPE   C2320001   2.620   0.578  10.247  0.3520  0.0202  0.6933
  176SOPE   H3R20002   2.616   0.475  10.205  1.8865 -0.2422  1.1197
  176SOPE   H3S20003   2.728   0.590  10.270  0.9320 -2.7157 -0.1769
  176SOPE   C2420004   2.569   0.671  10.133  0.1099  0.2789 -0.6447
  176SOPE   H4R20005   2.465   0.643  10.106  0.4259 -1.4483 -0.1985
  176SOPE   H4S20006   2.582   0.776  10.165 -0.0331 -1.1037  5.0066
  176SOPE   C2520007   2.651   0.648  10.006 -0.1685  0.0183 -0.0880
  176SOPE   H5R20008   2.759   0.672  10.014 -0.5299  1.4580  0.9245
  176SOPE   H5S20009   2.642   0.547   9.961  2.2499  0.9717 -3.1046
  176SOPE   C2620010   2.599   0.722   9.884  0.2591  0.0347 -0.1846
  176SOPE   H6R20011   2.491   0.696   9.874  0.6339 -1.8635  0.4017
  176SOPE   H6S20012   2.599   0.833   9.884 -1.4934  0.1470 -3.1179
  176SOPE   C2720013   2.673   0.682   9.752  0.3205 -0.3426  0.1502
  176SOPE   H7R20014   2.781   0.697   9.774  1.1857 -0.5914 -3.3760
  176SOPE   H7S20015   2.660   0.581   9.706  0.8199  0.0179 -0.8142
  176SOPE   C2820016   2.646   0.782   9.634  0.1422 -0.0053 -0.3996
  176SOPE   H8R20017   2.640   0.883   9.681 -1.8437 -0.0151 -0.5311
  176SOPE   H8S20018   2.726   0.779   9.557  1.0997 -3.1887  0.5744
  176SOPE   C2920019   2.517   0.742   9.573  0.0117 -0.0235  0.3681
  176SOPE   H9120020   2.434   0.725   9.644 -1.1658  2.2011 -0.3810
  176SOPE  C21020021   2.485   0.724   9.446  0.7811 -0.3605 -0.2265
  176SOPE  H10120022   2.381   0.691   9.433 -0.3401  2.4505  0.7657
  176SOPE  C21120023   2.584   0.722   9.329 -0.2797 -0.4172  0.4852
  176SOPE  H11R20024   2.682   0.675   9.350  0.6485 -0.9346 -3.9073
  176SOPE  H11S20025   2.626   0.816   9.287 -0.4201 -0.9532 -0.9299
  176SOPE  C21220026   2.519   0.648   9.204 -0.1599  0.2728 -0.5141
  176SOPE  H12R20027   2.434   0.707   9.163  1.7293  1.9900 -2.2323
  176SOPE  H12S20028   2.487   0.549   9.243  1.7997 -0.5778 -0.9377
  176SOPE  C21320029   2.613   0.617   9.086  0.4026 -0.2097  0.0417
  176SOPE  H13R20030   2.716   0.608   9.128  0.6205  2.4202  0.2293
  176SOPE  H13S20031   2.633   0.709   9.028  0.7714  0.8745  1.8146
  176SOPE  C21420032   2.587   0.491   9.005 -0.1086  0.0528 -0.0789
  176SOPE  H14R20033   2.487   0.479   8.960 -0.0227 -0.6596 -0.0955
  176SOPE  H14S20034   2.583   0.415   9.087  0.9354  0.5373  0.4432
  176SOPE  C21520035   2.704   0.454   8.914 -0.0210 -0.0050 -0.1771
  176SOPE  H15R20036   2.782   0.387   8.956  0.4087  0.5024 -0.1591
  176SOPE  H15S20037   2.744   0.554   8.887  0.6844 -0.8109 -2.2496
  176SOPE  C21620038   2.662   0.369   8.791  0.3274 -0.6347 -0.1175
  176SOPE  H16R20039   2.571   0.410   8.743 -0.1750  0.0309  1.3531
  176SOPE  H16S20040   2.623   0.270   8.822  0.3613 -0.4907  0.4025
  176SOPE  C21720041   2.771   0.359   8.681  1.0577 -0.9140 -0.0439
  176SOPE  H17R20042   2.730   0.290   8.604 -1.0895  1.3553 -1.0768
  176SOPE  H17S20043   2.869   0.320   8.717  1.2869 -0.5987 -0.3182
  176SOPE  C21820044   2.799   0.493   8.605  0.1302  0.0382  0.5100
  176SOPE  H18R20045   2.762   0.583   8.658  0.4103  2.3629 -2.8888
  176SOPE  H18S20046   2.754   0.483   8.504  2.9488  1.6262 -1.0261
  176SOPE  H18T20047   2.907   0.504   8.582 -0.1681  2.3715 -0.0188
  176SOPE   C3320048   2.891   0.135  10.080  0.0060  0.0886 -0.3992
  176SOPE   H3X20049   2.962   0.058  10.118 -0.3741  0.7379  1.7348
  176SOPE   H3Y20050   2.929   0.237  10.097 -1.8776  0.7936 -0.1677
  176SOPE   C3420051   2.884   0.111   9.928  0.1140 -0.3813 -0.1857
  176SOPE   H4X20052   2.833   0.013   9.921 -1.8565  0.7020 -1.9039
  176SOPE   H4Y20053   2.982   0.095   9.878 -0.6167 -3.7565 -0.7608
  176SOPE   C3520054   2.793   0.205   9.854  0.4892 -0.2231  0.3837
  176SOPE   H5X20055   2.806   0.309   9.891 -1.5441  0.3089 -0.2508
  176SOPE   H5Y20056   2.691   0.179   9.891  0.1803  0.8865  0.3490
  176SOPE   C3620057   2.805   0.186   9.699  0.1398  1.1136 -0.6322
  176SOPE   H6X20058   2.801   0.078   9.672  2.6322  1.4347 -2.6955
  176SOPE   H6Y20059   2.906   0.226   9.673 -0.5475  2.4124 -1.3726
  176SOPE   C3720060   2.708   0.273   9.613 -0.4662  0.4218 -0.4603
  176SOPE   H7X20061   2.706   0.371   9.665  1.8578  1.0289 -1.3829
  176SOPE   H7Y20062   2.602   0.241   9.612 -0.0277 -1.1349 -0.2190
  176SOPE   C3820063   2.754   0.291   9.470 -0.0105 -0.4148  0.3256
  176SOPE   H8X20064   2.853   0.340   9.460 -1.0356  1.7831  0.4237
  176SOPE   H8Y20065   2.689   0.367   9.423 -1.1086 -0.7305  1.2881
  176SOPE   C3920066   2.781   0.159   9.388 -0.2710  0.2509  0.7536
  176SOPE   H9X20067   2.684   0.107   9.383 -0.2804  0.4245 -2.1276
  176SOPE   H9Y20068   2.852   0.091   9.439 -0.9098 -0.0298  1.2733
  176SOPE  C31020069   2.840   0.187   9.242 -0.3932 -0.5093 -0.1543
  176SOPE  H10X20070   2.942   0.231   9.257 -0.1069 -0.2050 -2.5664
  176SOPE  H10Y20071   2.783   0.264   9.186  0.7006 -0.1892 -0.8581
  176SOPE  C31120072   2.865   0.076   9.140  0.0501 -0.1111 -0.2996
  176SOPE  H11X20073   2.770   0.040   9.093  0.2547  1.4930 -2.0296
  176SOPE  H11Y20074   2.911  -0.004   9.202  0.9139  0.7988  0.2424
  176SOPE  C31220075   2.961   0.113   9.019 -0.1377 -0.6710 -0.0605
  176SOPE  H12X20076   3.059   0.141   9.064  0.1294 -1.2487 -0.2758
  176SOPE  H12Y20077   2.917   0.203   8.970 -0.0170 -0.9886 -0.7560
  176SOPE  C31320078   2.989   0.007   8.916  0.0918  0.3148 -0.2060
  176SOPE  H13X20079   3.011  -0.089   8.967  0.9899  1.3944  1.5303
  176SOPE  H13Y20080   3.073   0.025   8.845 -0.9267 -0.7658 -1.7667
  176SOPE  C31420081   2.871  -0.034   8.828 -0.1350 -0.1962  0.6673
  176SOPE  H14X20082   2.829   0.060   8.784 -0.6043 -0.7761 -0.1481
  176SOPE  H14Y20083   2.790  -0.070   8.895 -1.5697  2.7803  0.7239
  176SOPE  C31520084   2.898  -0.126   8.706  0.1882 -0.3217 -0.3700
  176SOPE  H15X20085   2.944  -0.063   8.627  0.2845  0.7252  0.4988
  176SOPE  H15Y20086   2.808  -0.173   8.661  0.4805 -0.7248 -0.5415
  176SOPE  C31620087   2.985  -0.253   8.735 -0.1472 -0.0272 -0.1275
  176SOPE  H16X20088   2.954  -0.288   8.835 -1.7110 -1.4294 -1.0455
  176SOPE  H16Y20089   3.089  -0.213   8.734 -0.3113  0.4569 -1.7213
  176SOPE  C31720090   2.974  -0.374   8.648 -0.2680 -0.8409  0.9640
  176SOPE  H17X20091   3.005  -0.350   8.544 -0.6221  0.4885  1.1510
  176SOPE  H17Y20092   2.865  -0.397   8.646 -0.1095 -1.5816 -0.3861
  176SOPE  C31820093   3.056  -0.491   8.699  0.1393 -0.1520  0.1977
  176SOPE  H18X20094   3.161  -0.456   8.700 -0.1902  0.8436  1.0987
  176SOPE  H18Y20095   3.058  -0.571   8.621  0.1938 -0.3367  0.3897
  176SOPE  H18Z20096   3.035  -0.537   8.798 -1.9465 -1.4257 -0.7599
  177SOPE     N20097   0.167   0.070  11.117  0.1821  0.8037 -0.5044
  177SOPE   HN120098   0.125   0.026  11.032 -0.9140  2.0587 -0.6476
  177SOPE   HN220099   0.151   0.014  11.203 -0.8342 -0.3113 -1.3780
  177SOPE   HN320100   0.131   0.164  11.142  1.9188  1.6401 -0.9995
  177SOPE   C1220101   0.320   0.076  11.106  0.9931 -0.5067  0.1285
  177SOPE  H12A20102   0.343   0.151  11.185 -0.2206  1.7313 -1.5386
  177SOPE  H12B20103   0.348   0.117  11.007 -0.2474  0.6548  0.2166
  177SOPE   C1120104   0.387  -0.064  11.118  0.1108  0.1013 -0.7001
  177SOPE  H11A20105   0.391  -0.081  11.228 -2.0527 -0.1526 -0.6095
  177SOPE  H11B20106   0.495  -0.077  11.093 -0.1875  0.7766 -2.4516
  177SOPE     P20107   0.338  -0.266  10.944 -0.4754 -0.3368  0.1076
  177SOPE   O1320108   0.215  -0.329  10.883  0.1715 -0.0761  0.2977
  177SOPE   O1420109   0.445  -0.359  10.996  0.3304  0.1905 -0.3974
  177SOPE   O1220110   0.292  -0.171  11.067  0.1983 -0.1873 -0.2383
  177SOPE   O1120111   0.401  -0.160  10.841  0.0723 -0.3289 -0.0065
  177SOPE    C120112   0.316  -0.074  10.773  0.0310  0.2979  0.5389
  177SOPE    HA20113   0.357   0.029  10.784 -0.1202  0.3398  0.7119
  177SOPE    HB20114   0.216  -0.066  10.820  0.3216  2.7834  0.8731
  177SOPE    C220115   0.303  -0.105  10.618 -0.5260  0.7760  0.8213
  177SOPE    HS20116   0.255  -0.013  10.579  0.4377  0.6736 -0.6804
  177SOPE   O2120117   0.226  -0.222  10.594  0.3161  0.7252  0.6500
  177SOPE   C2120118   0.092  -0.210  10.621  0.3109 -0.2706  0.1482
  177SOPE   O2220119   0.033  -0.110  10.654  0.3917 -0.4454 -0.2094
  177SOPE   C2220120   0.023  -0.351  10.623  0.3992 -0.4757  1.3992
  177SOPE   H2R20121  -0.033  -0.357  10.719  1.0742  0.7708  1.8935
  177SOPE   H2S20122   0.103  -0.427  10.622  0.8402 -0.1080 -1.8752
  177SOPE    C320123   0.440  -0.130  10.550  0.0181  0.3744 -0.0143
  177SOPE    HX20124   0.474  -0.222  10.602  1.5994  1.1970  0.4759
  177SOPE    HY20125   0.516  -0.057  10.586  0.6956 -0.9885  1.4709
  177SOPE   O3120126   0.425  -0.144  10.407  0.4633 -0.0652 -0.5657
  177SOPE   C3120127   0.485  -0.240  10.349  0.0131 -0.4072 -0.1863
  177SOPE   O3220128   0.547  -0.333  10.401  0.5149  0.1421  0.1259
  177SOPE   C3220129   0.474  -0.227  10.200  0.3761  1.4179  0.5633
  177SOPE   H2X20130   0.366  -0.232  10.176  0.5022 -0.4497  0.2794
  177SOPE   H2Y20131   0.506  -0.316  10.141 -0.8273 -0.3922  2.5349
  177SOPE   C2320132  -0.078  -0.352  10.502  0.0413  0.5520  0.1540
  177SOPE   H3R20133  -0.146  -0.264  10.500 -1.8326 -0.5132  4.5976
  177SOPE   H3S20134  -0.149  -0.430  10.536  2.0018 -0.7732  1.4570
  177SOPE   C2420135  -0.008  -0.381  10.365 -0.4160  0.3085 -0.2568
  177SOPE   H4R20136  -0.079  -0.359  10.282 -0.4403  2.3504  0.2452
  177SOPE   H4S20137   0.070  -0.302  10.361  0.6105 -0.5657  1.5678
  177SOPE   C2520138   0.036  -0.528  10.339 -0.1109 -0.2769  0.1433
  177SOPE   H5R20139   0.122  -0.550  10.406  0.6699  0.6288 -0.5343
  177SOPE   H5S20140  -0.048  -0.600  10.344  0.1602 -0.6898 -0.9797
  177SOPE   C2620141   0.075  -0.554  10.190 -0.3948  0.5121 -0.5782
  177SOPE   H6R20142   0.062  -0.662  10.168  0.4805  0.3568 -0.3619
  177SOPE   H6S20143   0.000  -0.501  10.127  1.1650  4.3073  0.4299
  177SOPE   C2720144   0.214  -0.486  10.161 -0.4556 -0.1096 -0.1916
  177SOPE   H7R20145   0.193  -0.386  10.117  0.7238 -0.0915 -0.7354
  177SOPE   H7S20146   0.278  -0.478  10.252  0.2918 -1.9243 -0.5268
  177SOPE   C2820147   0.304  -0.580  10.068  0.2309  0.1317 -0.5357
  177SOPE   H8R20148   0.401  -0.533  10.043  1.2166 -1.2102  0.5592
  177SOPE   H8S20149   0.331  -0.674  10.122  2.3964  0.7446 -0.4431
  177SOPE   C2920150   0.226  -0.598   9.934  0.3101  0.8283 -0.2054
  177SOPE   H9120151   0.119  -0.622   9.942 -0.1077  1.7880 -2.3090
  177SOPE  C21020152   0.270  -0.577   9.807 -0.4973 -0.2877  0.1966
  177SOPE  H10120153   0.200  -0.597   9.725  0.1669 -0.0439 -0.4424
  177SOPE  C21120154   0.410  -0.525   9.763  0.3500 -0.7137 -0.2540
  177SOPE  H11R20155   0.464  -0.601   9.703 -1.7684 -1.7772 -0.9073
  177SOPE  H11S20156   0.476  -0.500   9.849  0.3915 -2.3718  0.2431
  177SOPE  C21220157   0.374  -0.401   9.668  0.0445  0.2619 -0.4473
  177SOPE  H12R20158   0.303  -0.439   9.593  1.0320  0.2712 -1.4135
  177SOPE  H12S20159   0.473  -0.371   9.626  0.8093 -1.5384 -0.0383
  177SOPE  C21320160   0.314  -0.273   9.738 -0.3287  0.8265  0.5109
  177SOPE  H13R20161   0.372  -0.180   9.722  0.1583  0.5467  0.6562
  177SOPE  H13S20162   0.313  -0.290   9.848  1.2681  2.1978  0.7640
  177SOPE  C21420163   0.170  -0.241   9.687  0.0219 -0.5785  0.7412
  177SOPE  H14R20164   0.113  -0.335   9.702  0.9060 -0.8620  2.5825
  177SOPE  H14S20165   0.164  -0.203   9.582 -4.1277  0.7148  1.2421
  177SOPE  C21520166   0.121  -0.122   9.765  0.0201  0.5155 -0.5181
  177SOPE  H15R20167   0.047  -0.058   9.712  1.5914  2.9177  0.0101
  177SOPE  H15S20168   0.207  -0.054   9.786 -0.9735  1.4832  0.6685
  177SOPE  C21620169   0.051  -0.162   9.897 -0.1644  1.0264  0.3064
  177SOPE  H16R20170   0.128  -0.214   9.958  1.3429  3.1748  0.3472
  177SOPE  H16S20171  -0.029  -0.234   9.869  0.2101  1.2298 -1.4144
  177SOPE  C21720172  -0.010  -0.041   9.970 -0.1758 -0.4606  0.4113
  177SOPE  H17R20173  -0.100  -0.007   9.915  0.9209  1.0131 -0.5278
  177SOPE  H17S20174   0.069   0.037   9.963 -1.1415  0.5517  0.5312
  177SOPE  C21820175  -0.028  -0.073  10.118 -0.4540  0.4325  0.1917
  177SOPE  H18R20176  -0.108  -0.149  10.122 -0.5373  0.5912  3.1307
  177SOPE  H18S20177  -0.063   0.005  10.189 -2.3501 -2.1006  2.1968
  177SOPE  H18T20178   0.065  -0.114  10.162  0.5166  0.7076 -1.4813
  177SOPE   C3320179   0.534  -0.102  10.144  0.1432 -0.1757  0.5760
  177SOPE   H3X20180   0.642  -0.099  10.167  0.5432 -1.4124 -0.9778
  177SOPE   H3Y20181   0.497  -0.007  10.189  3.4033  1.2842  0.4376
  177SOPE   C3420182   0.529  -0.095   9.990  0.2022  0.4624 -0.1974
  177SOPE   H4X20183   0.421  -0.091   9.961  0.1818 -1.2162 -0.4693
  177SOPE   H4Y20184   0.564  -0.191   9.945 -0.5777 -0.2484  0.6796
  177SOPE   C3520185   0.620   0.010   9.931 -0.3830  0.6632 -0.1248
  177SOPE   H5X20186   0.684  -0.035   9.853 -3.0702 -1.0483 -1.5278
  177SOPE   H5Y20187   0.686   0.054  10.008 -0.7543 -0.5879  0.9530
  177SOPE   C3620188   0.534   0.126   9.876 -0.2632 -0.7373 -0.0223
  177SOPE   H6X20189   0.460   0.141   9.958  0.0948 -0.9403  0.3393
  177SOPE   H6Y20190   0.470   0.088   9.794  1.0060 -0.0169 -1.3995
  177SOPE   C3720191   0.619   0.247   9.829  0.0604  0.3250 -0.0211
  177SOPE   H7X20192   0.685   0.277   9.913  1.5852 -0.5892 -0.8338
  177SOPE   H7Y20193   0.555   0.336   9.818  2.0916  1.6438 -2.3259
  177SOPE   C3820194   0.693   0.242   9.693 -0.7278 -0.3556 -0.2706
  177SOPE   H8X20195   0.617   0.223   9.615 -2.4199  1.0376  0.9307
  177SOPE   H8Y20196   0.753   0.149   9.684  0.2418  0.2041  0.2434
  177SOPE   C3920197   0.759   0.382   9.663  0.2835  0.0191 -0.0146
  177SOPE   H9X20198   0.811   0.421   9.753  0.7003 -1.3011  0.3314
  177SOPE   H9Y20199   0.675   0.451   9.640 -0.2110 -0.9039 -1.0809
  177SOPE  C31020200   0.859   0.385   9.539 -0.1524  0.3654 -0.1514
  177SOPE  H10X20201   0.953   0.352   9.589 -0.2872 -1.3862 -0.9737
  177SOPE  H10Y20202   0.876   0.485   9.495  1.1610 -0.1225 -0.7931
  177SOPE  C31120203   0.820   0.285   9.425 -0.3688  0.2259 -0.0595
  177SOPE  H11X20204   0.713   0.291   9.397  0.2338  0.1528 -2.5707
  177SOPE  H11Y20205   0.840   0.183   9.466 -0.0000  1.2387  2.4630
  177SOPE  C31220206   0.908   0.309   9.297 -0.2436 -0.3471 -0.4507
  177SOPE  H12X20207   1.016   0.300   9.321 -0.6324 -1.8455  0.9992
  177SOPE  H12Y20208   0.892   0.414   9.265  2.1124  1.1362  2.7504
  177SOPE  C31320209   0.862   0.212   9.183 -0.5360 -0.1766  0.3783
  177SOPE  H13X20210   0.753   0.231   9.169 -1.1300 -3.4431 -0.2903
  177SOPE  H13Y20211   0.883   0.107   9.213  0.3116 -0.2257 -0.3679
  177SOPE  C31420212   0.921   0.237   9.038 -0.0022  0.2081  0.0398
  177SOPE  H14X20213   0.875   0.158   8.975  0.3659 -1.8847  2.2450
  177SOPE  H14Y20214   1.032   0.228   9.033  0.0230  0.9058 -3.8822
  177SOPE  C31520215   0.898   0.379   8.995 -0.5752 -0.1225 -0.1117
  177SOPE  H15X20216   0.936   0.459   9.062 -1.5469  0.7605 -0.5732
  177SOPE  H15Y20217   0.789   0.400   8.988 -0.4067  1.1408  0.7914
  177SOPE  C31620218   0.959   0.399   8.856  0.2871 -0.9828  0.4424
  177SOPE  H16X20219   1.069   0.386   8.865  0.5288  0.8035  0.3908
  177SOPE  H16Y20220   0.946   0.506   8.833 -0.1452 -0.8315  1.3558
  177SOPE  C31720221   0.903   0.320   8.738 -0.1322 -0.2100  0.4651
  177SOPE  H17X20222   0.880   0.216   8.767  0.6040  0.0606  2.1466
  177SOPE  H17Y20223   0.968   0.308   8.649  0.7765  1.0334  0.9298
  177SOPE  C31820224   0.782   0.390   8.686  0.6753  0.0831  0.5330
  177SOPE  H18X20225   0.728   0.335   8.607  0.7652  0.5508  0.1422
  177SOPE  H18Y20226   0.804   0.493   8.650 -1.2221 -0.2384 -1.7592
  177SOPE  H18Z20227   0.709   0.398   8.770 -1.0318 -4.4964 -0.2614
  178SOPE     N20228   5.505   3.934  11.131 -0.3405  0.1473 -0.0270
  178SOPE   HN120229   5.537   3.950  11.229 -0.3456 -0.8364  0.1477
  178SOPE   HN220230   5.493   3.834  11.105  2.1269 -0.1726 -0.1920
  178SOPE   HN320231   5.560   3.977  11.054 -1.5269  0.4929 -0.6997
  178SOPE   C1220232   5.369   3.985  11.095  0.1786  0.0565 -0.2276
  178SOPE  H12A20233   5.372   4.096  11.089 -0.2306  0.1168  0.5868
  178SOPE  H12B20234   5.296   3.956  11.174 -0.3512  0.6869 -0.4840
  178SOPE   C1120235   5.327   3.924  10.963 -0.1744  0.3828  0.5112
  178SOPE  H11A20236   5.371   3.973  10.873 -1.3111 -1.8117 -1.3382
  178SOPE  H11B20237   5.219   3.948  10.955 -0.0095  1.3075  0.8801
  178SOPE     P20238   5.241   3.674  10.914  0.3299 -0.0264 -0.0834
  178SOPE   O1320239   5.142   3.727  10.823 -0.0698 -0.2351  0.3164
  178SOPE   O1420240   5.185   3.605  11.032  0.0742  0.2869  0.1752
  178SOPE   O1220241   5.346   3.785  10.949  0.0192 -0.1693 -0.6017
  178SOPE   O1120242   5.323   3.568  10.827 -0.0987  0.3806 -0.3558
  178SOPE    C120243   5.416   3.481  10.892 -0.1641 -0.3098  0.6313
  178SOPE    HA20244   5.419   3.503  11.001 -1.1165 -1.2969  0.8727
  178SOPE    HB20245   5.516   3.496  10.845  0.2055 -0.5831  1.3178
  178SOPE    C220246   5.383   3.331  10.884  0.4220 -0.1572  0.2051
  178SOPE    HS20247   5.467   3.263  10.911  0.1143 -1.0685 -1.0170
  178SOPE   O2120248   5.350   3.302  10.747  0.2128 -0.3723  0.0660
  178SOPE   C2120249   5.401   3.200  10.681  0.1122  0.3642  0.5023
  178SOPE   O2220250   5.479   3.118  10.725 -0.0242 -0.2131 -0.3320
  178SOPE   C2220251   5.346   3.187  10.540 -0.0133  0.8889  0.0638
  178SOPE   H2R20252   5.340   3.289  10.497 -0.6155 -0.0647 -2.2687
  178SOPE   H2S20253   5.243   3.147  10.556  0.3807  1.1701  4.7389
  178SOPE    C320254   5.254   3.292  10.974 -0.2946  0.2083  0.6640
  178SOPE    HX20255   5.181   3.372  10.946  1.0509  1.3007  0.1741
  178SOPE    HY20256   5.275   3.298  11.083  1.4404  1.8181  0.2879
  178SOPE   O3120257   5.205   3.163  10.941 -0.8646  0.0464 -0.0956
  178SOPE   C3120258   5.110   3.150  10.858  0.6201  0.0622 -0.3093
  178SOPE   O3220259   5.041   3.243  10.806 -0.0341  0.2975 -0.2152
  178SOPE   C3220260   5.069   3.001  10.843 -0.0507  0.2133 -0.0972
  178SOPE   H2X20261   4.959   2.995  10.859 -0.2054 -1.1713 -1.4385
  178SOPE   H2Y20262   5.123   2.939  10.918  1.6623  1.7289 -0.0052
  178SOPE   C2320263   5.438   3.101  10.445 -0.3225 -0.5887  0.1518
  178SOPE   H3R20264   5.484   3.014  10.497  2.4958  1.3489  1.1612
  178SOPE   H3S20265   5.530   3.161  10.429  0.6057 -1.9721  0.1349
  178SOPE   C2420266   5.359   3.069  10.312 -0.6545  0.7604 -0.1777
  178SOPE   H4R20267   5.300   2.976  10.325 -0.6539  0.6219 -1.0855
  178SOPE   H4S20268   5.304   3.163  10.291 -2.0007 -0.2356 -1.2511
  178SOPE   C2520269   5.461   3.040  10.209 -0.3549 -0.9758  0.0482
  178SOPE   H5R20270   5.525   3.130  10.205 -2.2119  0.3750 -0.2414
  178SOPE   H5S20271   5.526   2.954  10.238 -0.6184 -1.0058  0.5535
  178SOPE   C2620272   5.409   3.008  10.064 -0.2312 -0.0099  0.6429
  178SOPE   H6R20273   5.339   2.922  10.071  0.2906 -0.4101  1.0419
  178SOPE   H6S20274   5.348   3.098  10.042 -0.4169 -0.0933  0.8065
  178SOPE   C2720275   5.521   2.984   9.970 -0.3645 -0.3160  0.2158
  178SOPE   H7R20276   5.584   3.076   9.964 -1.5189  0.4141 -2.2440
  178SOPE   H7S20277   5.594   2.908  10.006  0.8736  0.4857 -0.4878
  178SOPE   C2820278   5.493   2.945   9.830 -0.8647 -0.5774 -0.8054
  178SOPE   H8R20279   5.584   2.944   9.767  0.0025 -2.3481  0.4130
  178SOPE   H8S20280   5.466   2.838   9.816  0.2859 -0.6717 -2.6838
  178SOPE   C2920281   5.385   3.033   9.774 -0.1143 -0.1137 -0.9468
  178SOPE   H9120282   5.298   3.029   9.842  1.5912 -2.8937  1.2671
  178SOPE  C21020283   5.377   3.114   9.669 -0.8571 -0.2855 -0.6831
  178SOPE  H10120284   5.291   3.178   9.645 -1.0450 -1.1798 -2.6152
  178SOPE  C21120285   5.488   3.136   9.571 -0.4561  0.1773  1.2569
  178SOPE  H11R20286   5.586   3.084   9.583  0.3731  1.2372 -0.5407
  178SOPE  H11S20287   5.510   3.245   9.570  3.7117 -0.4155 -2.0926
  178SOPE  C21220288   5.434   3.076   9.441 -0.1506  0.7224 -0.0918
  178SOPE  H12R20289   5.338   3.128   9.419 -0.6799 -1.1846 -2.6938
  178SOPE  H12S20290   5.409   2.968   9.446 -2.6570  1.2392  0.2773
  178SOPE  C21320291   5.534   3.089   9.319  0.1781  0.3381  0.1790
  178SOPE  H13R20292   5.596   2.996   9.325 -0.4736 -0.0622  0.9226
  178SOPE  H13S20293   5.598   3.175   9.346 -1.1487  1.1046  0.9519
  178SOPE  C21420294   5.476   3.098   9.182 -0.0691 -0.8118 -0.4497
  178SOPE  H14R20295   5.549   3.140   9.111  0.5205  2.9508  2.1033
  178SOPE  H14S20296   5.402   3.181   9.179 -0.6933 -1.3655 -0.7961
  178SOPE  C21520297   5.406   2.972   9.136 -0.5801 -0.2771 -0.4534
  178SOPE  H15R20298   5.305   2.960   9.179 -1.2783 -1.5285 -2.3306
  178SOPE  H15S20299   5.469   2.884   9.161  0.5793 -0.0883 -2.5094
  178SOPE  C21620300   5.385   2.982   8.982  0.0966  0.0042  0.5013
  178SOPE  H16R20301   5.486   2.984   8.934 -0.3451  1.2596 -0.4232
  178SOPE  H16S20302   5.338   3.079   8.957 -0.2214 -0.4222 -0.6233
  178SOPE  C21720303   5.300   2.871   8.918  0.1730  0.8306  0.7360
  178SOPE  H17R20304   5.192   2.876   8.940 -0.1328  2.1318 -0.8592
  178SOPE  H17S20305   5.331   2.775   8.964  0.0912  0.4005 -0.0796
  178SOPE  C21820306   5.314   2.859   8.767  0.4363 -0.1702  0.0901
  178SOPE  H18R20307   5.267   2.941   8.709  1.4154  1.8811  2.0285
  178SOPE  H18S20308   5.263   2.766   8.732 -1.9432  0.3404  1.8997
  178SOPE  H18T20309   5.420   2.848   8.738  0.8987  1.1816  1.1786
  178SOPE   C3320310   5.094   2.943  10.708  0.9192  0.4769  0.4477
  178SOPE   H3X20311   5.202   2.921  10.693  0.6554  0.7667 -2.3022
  178SOPE   H3Y20312   5.084   3.026  10.635  1.6724  1.2049  1.1480
  178SOPE   C3420313   4.988   2.831  10.669 -0.2980  0.3853 -0.4753
  178SOPE   H4X20314   4.884   2.869  10.671 -0.4082  0.1498  2.1439
  178SOPE   H4Y20315   4.988   2.756  10.751  0.7551  0.2452 -0.5870
  178SOPE   C3520316   5.015   2.761  10.529  0.7181 -0.2503 -0.0946
  178SOPE   H5X20317   4.948   2.674  10.516  1.8966 -1.1004 -0.6789
  178SOPE   H5Y20318   5.123   2.735  10.519  0.2775 -2.0152 -0.4822
  178SOPE   C3620319   4.979   2.860  10.411  0.2982 -1.3446  0.0516
  178SOPE   H6X20320   5.032   2.957  10.421  0.6610 -1.5130 -0.2475
  178SOPE   H6Y20321   4.871   2.890  10.412  0.7997  0.7026 -1.3672
  178SOPE   C3720322   5.025   2.791  10.281  0.6902  0.3117 -0.0807
  178SOPE   H7X20323   4.974   2.693  10.277  2.8420 -0.8749 -0.0085
  178SOPE   H7Y20324   5.134   2.775  10.296  0.9892  2.8345  0.9989
  178SOPE   C3820325   4.992   2.867  10.154  0.4945 -0.3157 -0.3942
  178SOPE   H8X20326   5.024   2.974  10.149 -1.6348  0.4549  0.9482
  178SOPE   H8Y20327   4.881   2.872  10.150  0.4345 -0.5233  0.5802
  178SOPE   C3920328   5.032   2.792  10.029  0.4478  0.5442 -0.2718
  178SOPE   H9X20329   4.974   2.697  10.024  1.6469 -0.1737 -0.7504
  178SOPE   H9Y20330   5.139   2.776  10.054  0.4923  0.6541 -0.3874
  178SOPE  C31020331   5.000   2.859   9.897 -0.0523 -0.2399 -0.0804
  178SOPE  H10X20332   5.066   2.948   9.891 -0.6570  0.2619  0.6445
  178SOPE  H10Y20333   4.894   2.890   9.882 -0.4039 -1.8798 -1.2673
  178SOPE  C31120334   5.029   2.762   9.779 -0.4132 -0.5999 -0.4172
  178SOPE  H11X20335   4.973   2.669   9.802  0.3817 -1.2673 -1.0910
  178SOPE  H11Y20336   5.140   2.748   9.781 -0.4378 -0.9293 -1.0597
  178SOPE  C31220337   5.000   2.818   9.635  0.2960  0.7464  0.2440
  178SOPE  H12X20338   5.082   2.885   9.600  0.4692  0.6596  0.4838
  178SOPE  H12Y20339   4.908   2.880   9.640 -1.0517 -1.1563 -0.1978
  178SOPE  C31320340   4.988   2.699   9.535  1.0253  0.3941  0.2522
  178SOPE  H13X20341   4.901   2.642   9.574  0.2968  1.6023  0.4530
  178SOPE  H13Y20342   5.084   2.648   9.558  0.8123  1.0071  2.9606
  178SOPE  C31420343   4.967   2.754   9.394  0.6076  0.1350 -0.8083
  178SOPE  H14X20344   5.056   2.811   9.361  1.3487  0.4820  1.5827
  178SOPE  H14Y20345   4.892   2.835   9.408 -0.9133 -1.3509  0.1071
  178SOPE  C31520346   4.917   2.650   9.290  1.0680 -0.5708 -0.0559
  178SOPE  H15X20347   4.864   2.701   9.207  2.2530 -0.8031 -0.9994
  178SOPE  H15Y20348   4.841   2.584   9.337  0.6532  0.3488  0.5736
  178SOPE  C31620349   5.020   2.556   9.237 -0.3996 -0.2499 -0.0274
  178SOPE  H16X20350   4.978   2.458   9.206 -1.8536  0.4841 -0.4419
  178SOPE  H16Y20351   5.095   2.539   9.318  0.9911 -2.1411 -1.6048
  178SOPE  C31720352   5.099   2.615   9.115 -0.2983  0.0031 -0.1876
  178SOPE  H17X20353   5.194   2.560   9.101 -0.3925  0.2359 -1.8945
  178SOPE  H17Y20354   5.126   2.722   9.124  1.3659 -0.3432 -0.7765
  178SOPE  C31820355   5.020   2.598   8.980 -0.0286  0.0572  0.5687
  178SOPE  H18X20356   4.912   2.577   8.995 -0.1746  1.2871  1.3616
  178SOPE  H18Y20357   5.055   2.509   8.923 -4.1291 -0.2190 -1.9734
  178SOPE  H18Z20358   5.020   2.691   8.920 -2.2130  0.8729  1.7381
  179SOPE     N20359   1.115   5.256   6.658  0.1655  0.0561 -0.1874
  179SOPE   HN120360   1.058   5.342   6.644  0.8793  1.2080  2.9420
  179SOPE   HN220361   1.174   5.239   6.575  0.1580 -2.2632  0.2111
  179SOPE   HN320362   1.050   5.179   6.684  0.1153  0.4792  1.0395
  179SOPE   C1220363   1.220   5.279   6.762  0.3234  0.2709  0.1115
  179SOPE  H12A20364   1.297   5.201   6.743 -0.1361  0.0902 -1.0902
  179SOPE  H12B20365   1.174   5.302   6.860 -2.9024  0.2986 -1.2962
  179SOPE   C1120366   1.301   5.409   6.721  0.4258 -0.0851  0.2512
  179SOPE  H11A20367   1.388   5.427   6.787  0.0522  3.0928  0.0423
  179SOPE  H11B20368   1.228   5.493   6.726  0.2741 -0.1914 -0.1242
  179SOPE     P20369   1.367   5.534   6.497 -0.7690 -0.3529 -0.2850
  179SOPE   O1320370   1.227   5.586   6.468 -0.5620 -0.4424  0.5306
  179SOPE   O1420371   1.446   5.500   6.374 -0.0516 -0.5364  0.3155
  179SOPE   O1220372   1.352   5.403   6.586 -0.2681 -0.2389  0.0017
  179SOPE   O1120373   1.444   5.638   6.594  0.9272  1.0289  0.6562
  179SOPE    C120374   1.582   5.626   6.621  0.0738  0.3756  0.4836
  179SOPE    HA20375   1.630   5.703   6.558 -1.7827  0.2796 -1.1735
  179SOPE    HB20376   1.613   5.523   6.592  0.0284  0.7384 -0.9394
  179SOPE    C220377   1.620   5.639   6.770 -0.2790 -0.0716  0.3023
  179SOPE    HS20378   1.722   5.682   6.771 -0.3798  0.2200 -0.6363
  179SOPE   O2120379   1.604   5.511   6.827  0.1453  0.1406 -0.1429
  179SOPE   C2120380   1.687   5.470   6.917  0.0424 -0.9785 -0.0540
  179SOPE   O2220381   1.776   5.541   6.964 -0.3175  0.0544 -0.2266
  179SOPE   C2220382   1.634   5.339   6.963 -0.4414  0.0495 -0.5718
  179SOPE   H2R20383   1.615   5.278   6.873 -0.1190 -1.1627  0.1594
  179SOPE   H2S20384   1.534   5.364   7.006 -1.8019  0.3766 -3.6663
  179SOPE    C320385   1.534   5.748   6.840 -0.6804  0.2505 -0.5139
  179SOPE    HX20386   1.429   5.711   6.834  0.0796 -2.7388  1.8017
  179SOPE    HY20387   1.542   5.849   6.795  1.2065  1.3139  1.9928
  179SOPE   O3120388   1.555   5.747   6.978 -0.0852  0.3010 -0.4345
  179SOPE   C3120389   1.641   5.835   7.026  0.3888  0.5661 -0.1018
  179SOPE   O3220390   1.708   5.910   6.962 -0.1371  0.5334 -0.2990
  179SOPE   C3220391   1.624   5.825   7.176  0.3748 -0.4286 -0.2163
  179SOPE   H2X20392   1.649   5.720   7.199 -0.9475 -0.3778  1.6760
  179SOPE   H2Y20393   1.516   5.846   7.184  0.5242  1.1300 -1.6726
  179SOPE   C2320394   1.736   5.260   7.057 -0.5418  0.6067  0.3769
  179SOPE   H3R20395   1.836   5.250   7.009  0.0017  0.6852  1.4674
  179SOPE   H3S20396   1.684   5.162   7.059 -0.7636  0.6931 -0.5123
  179SOPE   C2420397   1.747   5.316   7.197  0.1755  1.3986 -0.4628
  179SOPE   H4R20398   1.759   5.426   7.204 -0.8693  1.4429  1.6364
  179SOPE   H4S20399   1.652   5.298   7.251  0.6691  1.8061  0.5971
  179SOPE   C2520400   1.859   5.260   7.288  0.0910  0.7909 -0.1231
  179SOPE   H5R20401   1.852   5.150   7.275 -1.2144  0.8083  0.3117
  179SOPE   H5S20402   1.952   5.309   7.253 -0.9134  3.3006  0.5202
  179SOPE   C2620403   1.831   5.289   7.433 -0.1303  0.6585 -0.6548
  179SOPE   H6R20404   1.839   5.399   7.448 -1.7681  0.5463  1.5112
  179SOPE   H6S20405   1.729   5.266   7.470 -0.5870  0.2536 -2.0919
  179SOPE   C2720406   1.930   5.213   7.522 -0.2286  0.0781  0.0659
  179SOPE   H7R20407   1.904   5.105   7.518 -2.2935  0.5365  0.2510
  179SOPE   H7S20408   2.031   5.220   7.475 -1.0766  2.2151 -1.5970
  179SOPE   C2820409   1.924   5.262   7.666 -0.5574 -0.2818 -0.3521
  179SOPE   H8R20410   1.820   5.261   7.704 -0.9838  0.8972 -1.4250
  179SOPE   H8S20411   1.973   5.196   7.741  0.7243  1.2015  0.1780
  179SOPE   C2920412   1.987   5.394   7.689 -0.0164  0.0077  0.1061
  179SOPE   H9120413   2.083   5.393   7.635 -0.2341 -1.7347 -0.3201
  179SOPE  C21020414   1.941   5.504   7.758 -0.2864  0.7563 -0.1924
  179SOPE  H10120415   2.009   5.590   7.761  0.0997  0.4283  0.7007
  179SOPE  C21120416   1.806   5.512   7.818  0.2971  0.0857 -0.3174
  179SOPE  H11R20417   1.747   5.418   7.825  1.5370 -0.6447  0.7790
  179SOPE  H11S20418   1.740   5.578   7.758 -1.5535 -0.7169  0.7480
  179SOPE  C21220419   1.812   5.563   7.960 -0.2356 -0.1630  0.6335
  179SOPE  H12R20420   1.721   5.622   7.986 -0.0009 -0.1884  1.5639
  179SOPE  H12S20421   1.895   5.635   7.974  0.0984 -0.7450  1.7553
  179SOPE  C21320422   1.831   5.453   8.065  0.2755 -0.5108  0.0190
  179SOPE  H13R20423   1.917   5.396   8.025 -0.3610 -0.7972 -0.9949
  179SOPE  H13S20424   1.736   5.397   8.076  0.2551 -0.0517  3.0180
  179SOPE  C21420425   1.872   5.511   8.205  0.8362  0.0561 -0.5778
  179SOPE  H14R20426   1.818   5.607   8.213  0.5878  0.0868 -2.2435
  179SOPE  H14S20427   1.981   5.534   8.200  1.0969 -1.1706 -1.1891
  179SOPE  C21520428   1.837   5.432   8.335 -0.4295  0.2278  0.8584
  179SOPE  H15R20429   1.895   5.338   8.335 -0.8394 -0.0577 -0.6215
  179SOPE  H15S20430   1.731   5.404   8.319  0.5570 -3.3972 -0.2574
  179SOPE  C21620431   1.867   5.512   8.463  0.2730 -0.2214 -0.8380
  179SOPE  H16R20432   1.965   5.564   8.464 -0.3639  1.1131  2.0802
  179SOPE  H16S20433   1.864   5.436   8.544  1.1457 -0.9493 -1.4711
  179SOPE  C21720434   1.775   5.629   8.497 -0.7858  0.2878 -0.9656
  179SOPE  H17R20435   1.772   5.695   8.408  1.0392  0.6952 -0.7591
  179SOPE  H17S20436   1.823   5.685   8.580 -1.6941  0.7443 -0.7354
  179SOPE  C21820437   1.637   5.599   8.547 -0.6952  0.9985 -0.6934
  179SOPE  H18R20438   1.569   5.560   8.469  0.2096 -1.0459 -0.5177
  179SOPE  H18S20439   1.593   5.693   8.588  1.1470  1.5596  0.0948
  179SOPE  H18T20440   1.639   5.515   8.620 -3.3368 -1.4113 -3.1478
  179SOPE   C3320441   1.709   5.930   7.261  0.0009  0.3071  0.0636
  179SOPE   H3X20442   1.692   6.033   7.223  1.0204  0.4017 -0.1602
  179SOPE   H3Y20443   1.816   5.900   7.256  0.4479  1.6379  1.1178
  179SOPE   C3420444   1.673   5.925   7.413 -0.7875 -0.2916  0.3774
  179SOPE   H4X20445   1.579   5.869   7.425 -1.8104  0.8512 -1.8750
  179SOPE   H4Y20446   1.652   6.029   7.449 -3.3361 -0.7020  0.2139
  179SOPE   C3520447   1.790   5.872   7.509  0.6357 -0.1674  0.9332
  179SOPE   H5X20448   1.887   5.923   7.490 -0.4688  2.2440  1.4627
  179SOPE   H5Y20449   1.791   5.763   7.487  0.8604 -0.1231  0.7211
  179SOPE   C3620450   1.753   5.882   7.656  0.4546  0.3424 -0.0988
  179SOPE   H6X20451   1.819   5.804   7.699  0.6954  0.7902  0.3660
  179SOPE   H6Y20452   1.653   5.851   7.692  2.6139 -3.3492  3.5093
  179SOPE   C3720453   1.790   6.022   7.711  0.2108 -0.5181 -0.1842
  179SOPE   H7X20454   1.724   6.106   7.680 -0.2621 -1.0082 -0.5044
  179SOPE   H7Y20455   1.889   6.056   7.675  1.2896 -2.9096  0.3684
  179SOPE   C3820456   1.799   6.028   7.865  0.6083  0.7155 -0.2129
  179SOPE   H8X20457   1.701   6.000   7.909  0.5109  3.0845  1.2706
  179SOPE   H8Y20458   1.815   6.134   7.896 -0.4088  0.6534  0.5856
  179SOPE   C3920459   1.906   5.950   7.929 -0.0653  0.3165 -0.2154
  179SOPE   H9X20460   1.998   5.990   7.880 -0.0120  0.0644 -0.3203
  179SOPE   H9Y20461   1.879   5.844   7.912 -2.4226  0.8891 -0.2697
  179SOPE  C31020462   1.906   5.977   8.075  0.2925  0.1635 -0.0778
  179SOPE  H10X20463   1.806   5.954   8.117  0.8627  1.8892  2.4720
  179SOPE  H10Y20464   1.919   6.085   8.099 -2.2370  0.4607  0.2064
  179SOPE  C31120465   2.002   5.889   8.156  0.4372 -0.2194 -0.4861
  179SOPE  H11X20466   2.102   5.884   8.108  0.4675  1.2250 -0.6177
  179SOPE  H11Y20467   1.972   5.782   8.156  0.6668 -0.2858 -0.2036
  179SOPE  C31220468   2.011   5.937   8.301  0.8500 -0.9632  1.1273
  179SOPE  H12X20469   1.951   5.874   8.371 -0.6478  1.6693  2.3508
  179SOPE  H12Y20470   1.951   6.030   8.309 -0.5582 -1.2046 -3.6911
  179SOPE  C31320471   2.148   5.949   8.365 -0.9242 -0.3358 -0.7517
  179SOPE  H13X20472   2.153   6.025   8.446  1.2997 -0.4818 -0.6835
  179SOPE  H13Y20473   2.203   5.990   8.278  0.6890 -1.0632 -0.1233
  179SOPE  C31420474   2.219   5.818   8.413 -0.7075 -1.2530  0.1114
  179SOPE  H14X20475   2.327   5.832   8.390 -0.7779 -2.0860 -0.7657
  179SOPE  H14Y20476   2.184   5.734   8.350  0.3918 -0.9510 -0.9490
  179SOPE  C31520477   2.188   5.782   8.561  0.1674  0.8297  0.0684
  179SOPE  H15X20478   2.079   5.768   8.572  0.0942  1.7359  0.5977
  179SOPE  H15Y20479   2.194   5.871   8.628  0.9228  2.2453 -1.8096
  179SOPE  C31620480   2.256   5.645   8.607  0.0159 -0.4985 -0.2563
  179SOPE  H16X20481   2.247   5.561   8.534 -0.4352  0.4665 -1.3434
  179SOPE  H16Y20482   2.211   5.613   8.703 -0.5467  1.2831  0.1041
  179SOPE  C31720483   2.409   5.667   8.619  0.1558  0.0562 -0.3235
  179SOPE  H17X20484   2.455   5.711   8.528 -2.4814 -0.8585 -2.2384
  179SOPE  H17Y20485   2.460   5.570   8.638  1.8782  0.9776 -0.0398
  179SOPE  C31820486   2.435   5.748   8.750 -0.0525  0.0954 -0.3222
  179SOPE  H18X20487   2.538   5.766   8.786  0.0004  0.6167 -0.7156
  179SOPE  H18Y20488   2.380   5.691   8.828 -0.2975 -0.5673 -0.9694
  179SOPE  H18Z20489   2.393   5.848   8.727 -2.6099 -0.6880  0.5454
  180SOPE     N20490   2.513   3.866   5.894  0.8079 -0.2193 -1.0488
  180SOPE   HN120491   2.415   3.856   5.927  1.3493 -2.0431  0.1819
  180SOPE   HN220492   2.535   3.963   5.926 -1.3418 -0.4246  1.4034
  180SOPE   HN320493   2.527   3.854   5.792  0.9567  1.8619 -1.3112
  180SOPE   C1220494   2.580   3.754   5.967  0.3195  0.2098  0.0012
  180SOPE  H12A20495   2.688   3.776   5.970  0.0811  1.3802  0.7049
  180SOPE  H12B20496   2.553   3.655   5.922 -0.7341  1.7270 -3.0106
  180SOPE   C1120497   2.528   3.751   6.108  0.0430  0.3511 -0.4701
  180SOPE  H11A20498   2.576   3.666   6.161 -0.8127  0.4965  0.5787
  180SOPE  H11B20499   2.423   3.714   6.108  0.2855 -0.9167  3.8269
  180SOPE     P20500   2.677   3.905   6.263 -0.3039 -0.1127  0.2196
  180SOPE   O1320501   2.710   4.048   6.261 -0.4054  0.3323  0.2870
  180SOPE   O1420502   2.783   3.810   6.222 -0.1042 -0.2025 -0.0931
  180SOPE   O1220503   2.546   3.880   6.174 -0.7048  0.5872  0.1660
  180SOPE   O1120504   2.644   3.868   6.409 -0.0557  0.4425 -0.3530
  180SOPE    C120505   2.749   3.835   6.503 -0.2725 -0.4207 -0.1578
  180SOPE    HA20506   2.728   3.885   6.600 -1.3280 -0.9361 -0.1081
  180SOPE    HB20507   2.846   3.870   6.464 -1.6827  0.9243 -2.7080
  180SOPE    C220508   2.746   3.684   6.538 -0.6442  0.1602  0.1961
  180SOPE    HS20509   2.759   3.621   6.448 -0.6593  0.7843 -0.2432
  180SOPE   O2120510   2.620   3.660   6.603 -0.2391 -0.2053 -0.3603
  180SOPE   C2120511   2.588   3.533   6.620  0.2496 -0.1863 -0.3052
  180SOPE   O2220512   2.665   3.439   6.587  0.6569 -0.5521 -0.0314
  180SOPE   C2220513   2.453   3.523   6.702  0.0480  0.0810 -0.2865
  180SOPE   H2R20514   2.375   3.592   6.664  0.9031  2.3222  1.7462
  180SOPE   H2S20515   2.483   3.560   6.802  1.8688 -1.1907 -0.3138
  180SOPE    C320516   2.859   3.645   6.634 -0.3422 -0.3377  0.2257
  180SOPE    HX20517   2.951   3.644   6.572  0.0488  1.8885  0.6974
  180SOPE    HY20518   2.842   3.542   6.673 -3.1294  0.2177  0.6450
  180SOPE   O3120519   2.884   3.740   6.741  0.0389 -0.2903  0.1554
  180SOPE   C3120520   2.824   3.705   6.853 -0.9135 -0.0765 -0.6515
  180SOPE   O3220521   2.750   3.611   6.870  0.6057  0.4252  0.3659
  180SOPE   C3220522   2.851   3.806   6.965  0.4064  0.2947  0.1428
  180SOPE   H2X20523   2.781   3.891   6.957  0.7531  0.6589  0.8400
  180SOPE   H2Y20524   2.959   3.831   6.956  0.3395  0.6088  0.2189
  180SOPE   C2320525   2.372   3.382   6.705  0.1067 -0.2795 -0.3521
  180SOPE   H3R20526   2.442   3.300   6.731 -1.3109 -1.7018 -0.9135
  180SOPE   H3S20527   2.341   3.356   6.602  0.9705  0.9699 -0.9511
  180SOPE   C2420528   2.248   3.386   6.797 -0.0522 -0.3054 -0.7763
  180SOPE   H4R20529   2.272   3.460   6.877 -2.0400 -0.4816  0.0562
  180SOPE   H4S20530   2.154   3.422   6.749 -0.5167 -0.2782  0.1232
  180SOPE   C2520531   2.220   3.251   6.865 -0.6029  0.8748 -0.0019
  180SOPE   H5R20532   2.202   3.163   6.801  0.5734  0.3810  0.3323
  180SOPE   H5S20533   2.312   3.234   6.923  1.4333  3.3466 -2.2347
  180SOPE   C2620534   2.114   3.264   6.970  0.0749 -0.0228  0.4688
  180SOPE   H6R20535   2.148   3.338   7.046  3.4304 -1.8385  0.8851
  180SOPE   H6S20536   2.027   3.293   6.907  1.4488  0.8421 -1.0937
  180SOPE   C2720537   2.063   3.128   7.017  0.3553  0.1146 -0.0543
  180SOPE   H7R20538   1.975   3.139   7.084 -0.9116  0.7577 -1.7381
  180SOPE   H7S20539   2.031   3.073   6.925 -1.2738  0.2169  0.4189
  180SOPE   C2820540   2.168   3.047   7.098  0.3442  0.1383 -0.4271
  180SOPE   H8R20541   2.119   2.955   7.138 -2.0555  1.8586  0.8353
  180SOPE   H8S20542   2.256   3.014   7.039  1.7132 -0.0753  1.6503
  180SOPE   C2920543   2.208   3.128   7.210  0.5353 -0.2111  0.2099
  180SOPE   H9120544   2.278   3.204   7.171  1.3421 -1.4105 -0.7482
  180SOPE  C21020545   2.170   3.127   7.339  0.2755 -0.1007 -0.1443
  180SOPE  H10120546   2.222   3.205   7.396 -1.1675  1.7759 -1.2854
  180SOPE  C21120547   2.067   3.045   7.406 -0.3512  0.4753 -0.6815
  180SOPE  H11R20548   1.996   2.994   7.337 -1.1619  0.2782  0.2619
  180SOPE  H11S20549   1.997   3.114   7.458  1.2752  1.6664  0.0068
  180SOPE  C21220550   2.114   2.934   7.500 -0.0695  0.2994 -0.3346
  180SOPE  H12R20551   2.182   2.856   7.459 -0.7565 -0.7084  0.3858
  180SOPE  H12S20552   2.025   2.874   7.531  0.7842 -0.5238  0.5959
  180SOPE  C21320553   2.178   2.972   7.638  0.3254  0.3182 -0.0218
  180SOPE  H13R20554   2.101   3.028   7.694  1.4828  0.0673  1.9160
  180SOPE  H13S20555   2.266   3.039   7.631  0.0759  0.5428 -1.2112
  180SOPE  C21420556   2.234   2.847   7.716 -0.2337 -0.5713  0.2734
  180SOPE  H14R20557   2.267   2.891   7.813  0.6591 -1.6725  0.4891
  180SOPE  H14S20558   2.328   2.808   7.673  1.4316  3.6809 -0.4366
  180SOPE  C21520559   2.141   2.730   7.730  1.1937  0.0835 -0.7835
  180SOPE  H15R20560   2.140   2.691   7.626  1.0099  2.6014 -1.7831
  180SOPE  H15S20561   2.039   2.767   7.752  2.6379  3.4684  0.9581
  180SOPE  C21620562   2.182   2.623   7.835  0.3832 -0.5016 -0.4101
  180SOPE  H16R20563   2.289   2.592   7.829  0.3081 -1.6655  2.5267
  180SOPE  H16S20564   2.129   2.529   7.808 -0.2790  0.2348 -1.7639
  180SOPE  C21720565   2.151   2.666   7.972  0.6352  0.5867  0.4513
  180SOPE  H17R20566   2.047   2.706   7.974  0.9667  1.5437 -0.4980
  180SOPE  H17S20567   2.210   2.756   7.997  2.1762 -0.0587 -0.6557
  180SOPE  C21820568   2.162   2.567   8.086  0.4270 -0.3544 -0.3926
  180SOPE  H18R20569   2.110   2.469   8.075 -0.8898 -0.0327  2.2123
  180SOPE  H18S20570   2.128   2.619   8.178 -1.1160  1.3105 -1.8294
  180SOPE  H18T20571   2.270   2.549   8.104  0.7881  2.3599  0.5984
  180SOPE   C3320572   2.828   3.738   7.100  0.1330 -0.6398 -0.6483
  180SOPE   H3X20573   2.890   3.648   7.120  0.3951 -0.2613  0.2644
  180SOPE   H3Y20574   2.725   3.698   7.113 -0.1065  0.5991  1.8774
  180SOPE   C3420575   2.841   3.839   7.213 -0.4116  0.2381 -0.5968
  180SOPE   H4X20576   2.770   3.922   7.195  1.0746  1.5974 -0.4261
  180SOPE   H4Y20577   2.941   3.887   7.204 -0.5457  0.2509 -2.4047
  180SOPE   C3520578   2.810   3.773   7.352  0.5152 -0.1463 -0.5659
  180SOPE   H5X20579   2.876   3.692   7.389 -0.6723  0.2865  2.9154
  180SOPE   H5Y20580   2.706   3.734   7.345  0.6327 -0.6713  0.4277
  180SOPE   C3620581   2.823   3.870   7.470  0.1856  0.4348  0.2738
  180SOPE   H6X20582   2.741   3.945   7.460 -0.5804 -0.3375  0.5785
  180SOPE   H6Y20583   2.914   3.932   7.459 -0.2234  1.2615  1.3783
  180SOPE   C3720584   2.812   3.795   7.608  0.3693 -0.7565 -0.0193
  180SOPE   H7X20585   2.903   3.737   7.631  0.1315 -1.0724  0.1262
  180SOPE   H7Y20586   2.728   3.723   7.605 -0.1428 -0.2075  0.7886
  180SOPE   C3820587   2.800   3.886   7.732  0.5545  0.2506 -0.3102
  180SOPE   H8X20588   2.699   3.933   7.742  0.5917  0.2479  0.0749
  180SOPE   H8Y20589   2.882   3.961   7.732  1.1509 -0.3396 -2.0869
  180SOPE   C3920590   2.810   3.790   7.856 -0.0801  0.1616  0.0720
  180SOPE   H9X20591   2.896   3.720   7.856 -0.8411 -0.8402 -1.6358
  180SOPE   H9Y20592   2.721   3.724   7.862 -0.5001  0.8355  2.8427
  180SOPE  C31020593   2.807   3.873   7.993 -0.1967 -0.0876  0.1160
  180SOPE  H10X20594   2.702   3.911   7.994 -0.7104 -1.4514  0.3967
  180SOPE  H10Y20595   2.879   3.958   7.992 -2.6717  2.2210 -2.9642
  180SOPE  C31120596   2.832   3.787   8.119 -0.2893 -0.0310 -0.4137
  180SOPE  H11X20597   2.933   3.744   8.102 -0.9988 -2.2584  0.5695
  180SOPE  H11Y20598   2.742   3.722   8.112 -1.7790  1.5640  2.2884
  180SOPE  C31220599   2.832   3.864   8.249 -0.3194  0.0130  0.3276
  180SOPE  H12X20600   2.749   3.935   8.233  1.3051  1.5731 -1.6605
  180SOPE  H12Y20601   2.927   3.922   8.245 -0.3535  0.0791  0.4822
  180SOPE  C31320602   2.814   3.777   8.378 -0.6020  0.4871  0.0038
  180SOPE  H13X20603   2.838   3.850   8.458  3.4455  2.0312 -2.3014
  180SOPE  H13Y20604   2.895   3.701   8.374 -0.9997 -0.0501  1.5585
  180SOPE  C31420605   2.675   3.711   8.387 -0.0517  0.3194  0.0643
  180SOPE  H14X20606   2.662   3.662   8.288  2.2984 -1.9814  0.7852
  180SOPE  H14Y20607   2.601   3.794   8.393 -1.1748 -0.7484  2.8001
  180SOPE  C31520608   2.669   3.621   8.508 -0.2344 -1.0238 -0.4770
  180SOPE  H15X20609   2.734   3.534   8.486  0.3434 -0.1510 -2.4710
  180SOPE  H15Y20610   2.565   3.583   8.520 -0.3498 -0.8968 -1.0609
  180SOPE  C31620611   2.720   3.670   8.644  0.3991 -0.1449  0.1324
  180SOPE  H16X20612   2.828   3.697   8.646  0.3229  0.1093  1.4602
  180SOPE  H16Y20613   2.719   3.591   8.721  3.0796 -0.2092  0.1956
  180SOPE  C31720614   2.631   3.789   8.694  0.1538  0.0065 -0.3356
  180SOPE  H17X20615   2.550   3.744   8.755  0.5830 -0.1625  0.1201
  180SOPE  H17Y20616   2.581   3.828   8.603 -1.2634 -1.2971 -0.1510
  180SOPE  C31820617   2.711   3.897   8.761 -0.0144 -0.2584  0.4830
  180SOPE  H18X20618   2.649   3.986   8.786  0.6522  0.1335  0.7460
  180SOPE  H18Y20619   2.780   3.948   8.691 -1.4564  0.7032 -0.3150
  180SOPE  H18Z20620   2.761   3.866   8.855 -0.7129 -0.4966  0.7854
  181SOPE     N20621   1.177   3.400   5.688 -0.2087 -0.3071 -0.5567
  181SOPE   HN120622   1.232   3.483   5.659  0.4790 -0.1645  1.1030
  181SOPE   HN220623   1.143   3.354   5.601 -0.1640 -1.9161  0.2433
  181SOPE   HN320624   1.096   3.436   5.742 -0.5733 -0.6335 -0.8751
  181SOPE   C1220625   1.271   3.305   5.761 -0.6396 -0.0938  0.4506
  181SOPE  H12A20626   1.331   3.370   5.829 -2.4075 -0.1284  2.1244
  181SOPE  H12B20627   1.335   3.246   5.693 -0.4839 -1.4227  1.7034
  181SOPE   C1120628   1.185   3.207   5.842 -1.0834  0.4127  0.0612
  181SOPE  H11A20629   1.250   3.145   5.908 -1.1828 -0.4236 -0.6137
  181SOPE  H11B20630   1.137   3.139   5.769  1.7251 -0.6475 -0.9172
  181SOPE     P20631   1.124   3.312   6.071  0.5617  0.5505  0.4736
  181SOPE   O1320632   1.016   3.377   6.145  0.3978  0.4134 -0.2296
  181SOPE   O1420633   1.253   3.386   6.071 -0.2015 -0.1063 -0.1085
  181SOPE   O1220634   1.086   3.271   5.919  0.1621  0.1409 -0.3502
  181SOPE   O1120635   1.148   3.163   6.122 -0.0010  0.3949 -0.3587
  181SOPE    C120636   1.060   3.086   6.205 -0.0507 -0.2621 -0.3644
  181SOPE    HA20637   1.092   2.979   6.200 -2.0701 -0.8889 -4.5808
  181SOPE    HB20638   0.958   3.080   6.162 -0.1179 -2.9630 -0.0456
  181SOPE    C220639   1.053   3.142   6.355  0.2453 -0.8869  0.1928
  181SOPE    HS20640   0.994   3.236   6.359 -0.0416 -1.0721  0.3785
  181SOPE   O2120641   1.189   3.157   6.407  0.4832  0.7053  0.1909
  181SOPE   C2120642   1.234   3.269   6.459  0.2013  0.0624  0.0020
  181SOPE   O2220643   1.175   3.378   6.468 -0.3278 -0.1848 -0.1927
  181SOPE   C2220644   1.375   3.255   6.508  0.8318  0.9518 -0.2963
  181SOPE   H2R20645   1.401   3.353   6.554  3.0546 -0.8784  2.6498
  181SOPE   H2S20646   1.439   3.228   6.421 -1.5701  1.1193 -2.2139
  181SOPE    C320647   0.974   3.036   6.440 -0.1790  0.1213  0.3963
  181SOPE    HX20648   1.034   2.943   6.434 -0.7002 -0.2052  0.1730
  181SOPE    HY20649   0.880   3.001   6.393  0.6143  0.7670 -1.7729
  181SOPE   O3120650   0.946   3.087   6.573  0.1888  0.5809 -0.4517
  181SOPE   C3120651   0.853   3.186   6.565  0.1056  0.3417 -0.3980
  181SOPE   O3220652   0.802   3.225   6.464 -0.4118  0.1555 -0.1289
  181SOPE   C3220653   0.828   3.250   6.704 -0.5696  0.8702 -0.0965
  181SOPE   H2X20654   0.922   3.307   6.723  1.3748 -1.6853 -1.4217
  181SOPE   H2Y20655   0.815   3.168   6.778  2.1762  0.4471  0.0322
  181SOPE   C2320656   1.390   3.143   6.616 -0.5337  0.1128 -0.1878
  181SOPE   H3R20657   1.490   3.143   6.663 -0.8903  0.0666  0.6005
  181SOPE   H3S20658   1.375   3.040   6.578 -0.8860  0.9823 -2.5775
  181SOPE   C2420659   1.295   3.170   6.734  0.5091 -0.2674  0.0775
  181SOPE   H4R20660   1.297   3.275   6.772  1.7949 -0.0858 -0.4164
  181SOPE   H4S20661   1.194   3.156   6.690  0.2868  0.4631  0.3356
  181SOPE   C2520662   1.305   3.068   6.851  0.2014  0.0338 -0.0412
  181SOPE   H5R20663   1.285   2.967   6.811  0.0562  0.5553 -1.3401
  181SOPE   H5S20664   1.407   3.067   6.894  1.2852 -0.3813 -2.4798
  181SOPE   C2620665   1.205   3.100   6.960 -0.2764  0.1750 -0.6912
  181SOPE   H6R20666   1.241   3.192   7.011  1.8748 -2.3304  2.7608
  181SOPE   H6S20667   1.113   3.129   6.905 -0.6538  4.6399  1.8027
  181SOPE   C2720668   1.161   2.986   7.048  0.4259 -0.0924  1.1580
  181SOPE   H7R20669   1.077   3.032   7.104 -0.4013  1.4088 -1.1905
  181SOPE   H7S20670   1.121   2.896   6.996 -0.0996  0.6325  0.2806
  181SOPE   C2820671   1.267   2.933   7.149  0.1766 -0.0626  0.0766
  181SOPE   H8R20672   1.236   2.829   7.175 -0.0040 -0.3643 -1.2528
  181SOPE   H8S20673   1.369   2.922   7.104  0.4173 -1.2295  0.8596
  181SOPE   C2920674   1.287   3.023   7.265 -0.3974  0.1616  0.0039
  181SOPE   H9120675   1.347   3.112   7.241  2.2307 -1.2328  0.9826
  181SOPE  C21020676   1.252   3.012   7.394 -0.1758 -0.6236  0.0357
  181SOPE  H10120677   1.277   3.097   7.459 -0.6841 -1.6138  1.5886
  181SOPE  C21120678   1.164   2.905   7.453 -0.5342  0.3084  0.7867
  181SOPE  H11R20679   1.171   2.815   7.388 -0.8622  1.2910 -0.6491
  181SOPE  H11S20680   1.059   2.939   7.448  0.4577  3.6231 -1.7836
  181SOPE  C21220681   1.205   2.847   7.595 -0.0770  0.0194 -0.2068
  181SOPE  H12R20682   1.226   2.936   7.659  0.5594 -1.3914  1.6215
  181SOPE  H12S20683   1.291   2.780   7.574 -0.9657 -0.6299 -1.9744
  181SOPE  C21320684   1.081   2.778   7.658 -0.5276 -0.2741  0.1126
  181SOPE  H13R20685   1.062   2.686   7.599 -0.0429 -0.2594 -0.0708
  181SOPE  H13S20686   0.994   2.840   7.628  1.2783  2.1537 -0.4883
  181SOPE  C21420687   1.096   2.748   7.807 -1.0454  0.3672  0.5500
  181SOPE  H14R20688   1.128   2.842   7.857  2.1215  2.2546 -4.2021
  181SOPE  H14S20689   1.190   2.692   7.827 -0.9755  1.0311  2.2481
  181SOPE  C21520690   0.979   2.662   7.856  0.3425 -0.2957 -0.9620
  181SOPE  H15R20691   0.973   2.565   7.801  0.8300 -0.1409 -1.2924
  181SOPE  H15S20692   0.893   2.728   7.832  1.1188  0.2170 -2.4753
  181SOPE  C21620693   0.986   2.630   8.008  0.0556  0.0334 -0.2053
  181SOPE  H16R20694   1.015   2.725   8.058 -0.0796 -0.7026  1.3179
  181SOPE  H16S20695   1.064   2.556   8.032  0.8258  0.5576 -1.0298
  181SOPE  C21720696   0.851   2.580   8.058  0.0129 -0.5427  0.0615
  181SOPE  H17R20697   0.831   2.482   8.009 -0.0851 -0.7417  0.4969
  181SOPE  H17S20698   0.769   2.649   8.026 -1.0063 -1.4722  0.5872
  181SOPE  C21820699   0.836   2.557   8.211 -0.1934 -0.7580  0.4825
  181SOPE  H18R20700   0.867   2.644   8.272  0.2336 -0.2308 -0.4616
  181SOPE  H18S20701   0.895   2.466   8.240 -0.3524 -1.2914 -0.7879
  181SOPE  H18T20702   0.732   2.526   8.233 -0.4002 -2.3377 -2.2073
  181SOPE   C3320703   0.708   3.351   6.712  0.3498 -0.4264  0.3095
  181SOPE   H3X20704   0.607   3.303   6.714 -0.4019  1.1000  2.5041
  181SOPE   H3Y20705   0.712   3.420   6.625  0.9254 -1.1392 -0.2460
  181SOPE   C3420706   0.711   3.441   6.839  0.9296 -0.0330  1.1005
  181SOPE   H4X20707   0.638   3.525   6.837  1.3562  0.3918  2.4608
  181SOPE   H4Y20708   0.808   3.494   6.851  1.0513 -0.8531  4.9906
  181SOPE   C3520709   0.672   3.366   6.972 -0.4798 -0.0252 -0.3284
  181SOPE   H5X20710   0.758   3.301   6.997 -1.5537 -1.1945  0.3747
  181SOPE   H5Y20711   0.580   3.309   6.947 -2.0385  2.0402  0.3883
  181SOPE   C3620712   0.630   3.459   7.093 -0.2539 -0.1225  0.2775
  181SOPE   H6X20713   0.526   3.489   7.070 -0.3264 -1.6499 -1.5954
  181SOPE   H6Y20714   0.694   3.550   7.098  1.1529 -1.0993  0.5872
  181SOPE   C3720715   0.641   3.375   7.226 -0.1991 -0.1284  0.3247
  181SOPE   H7X20716   0.750   3.356   7.237  0.2072  1.0765 -1.3458
  181SOPE   H7Y20717   0.574   3.287   7.219  1.7820 -1.6444 -0.5400
  181SOPE   C3820718   0.596   3.457   7.351  0.0374  0.4141 -0.7528
  181SOPE   H8X20719   0.485   3.466   7.349  0.2036  4.3660 -2.9019
  181SOPE   H8Y20720   0.632   3.561   7.334 -1.4122  1.1090  0.2527
  181SOPE   C3920721   0.663   3.411   7.481 -0.4940 -0.4010  0.6544
  181SOPE   H9X20722   0.773   3.415   7.465 -0.6245  0.3727 -0.1038
  181SOPE   H9Y20723   0.638   3.303   7.495  1.5541 -1.5360 -3.1557
  181SOPE  C31020724   0.612   3.491   7.597 -0.1315 -0.2271 -0.1259
  181SOPE  H10X20725   0.504   3.475   7.617 -0.5780  1.1259 -1.2598
  181SOPE  H10Y20726   0.626   3.597   7.567  0.9259 -0.1610  0.5669
  181SOPE  C31120727   0.678   3.465   7.734  0.1236 -0.0177 -0.8804
  181SOPE  H11X20728   0.782   3.503   7.723  0.7622 -1.7345 -1.1112
  181SOPE  H11Y20729   0.691   3.358   7.760  0.1959  0.1806 -0.0891
  181SOPE  C31220730   0.602   3.528   7.860 -0.1835 -0.7178  0.1926
  181SOPE  H12X20731   0.502   3.483   7.872 -1.0618  1.1580  0.3439
  181SOPE  H12Y20732   0.605   3.639   7.861  0.7113 -0.7357  1.1865
  181SOPE  C31320733   0.678   3.498   7.989 -0.0653  0.5135  0.0083
  181SOPE  H13X20734   0.758   3.575   7.997  0.2569  0.3175 -1.1117
  181SOPE  H13Y20735   0.727   3.399   7.976  0.5910  0.6918  0.9806
  181SOPE  C31420736   0.577   3.486   8.106 -0.3989 -0.1842 -0.1013
  181SOPE  H14X20737   0.519   3.393   8.094 -1.3659  0.5789 -1.6415
  181SOPE  H14Y20738   0.509   3.573   8.119  2.6980  2.8940 -2.3506
  181SOPE  C31520739   0.651   3.469   8.241  0.5264  0.3309 -0.4022
  181SOPE  H15X20740   0.748   3.522   8.230  1.2400 -0.4280  1.7653
  181SOPE  H15Y20741   0.684   3.362   8.243  3.2664  1.0977 -0.0953
  181SOPE  C31620742   0.570   3.511   8.369  0.4867  0.2156  0.2163
  181SOPE  H16X20743   0.470   3.469   8.347  0.4455  0.6268 -0.4333
  181SOPE  H16Y20744   0.560   3.621   8.357 -1.4860  0.0041 -0.3420
  181SOPE  C31720745   0.632   3.468   8.507  0.2838 -0.1562  0.1276
  181SOPE  H17X20746   0.575   3.515   8.590 -0.8179  1.0499 -1.2490
  181SOPE  H17Y20747   0.731   3.517   8.516 -0.1473  0.9468 -0.8174
  181SOPE  C31820748   0.620   3.312   8.518  0.6797  0.3920 -0.8773
  181SOPE  H18X20749   0.511   3.297   8.501  0.5773 -1.2479  0.8081
  181SOPE  H18Y20750   0.641   3.264   8.616 -0.2491 -2.4333 -1.9399
  181SOPE  H18Z20751   0.681   3.251   8.448  1.5519 -3.2705  2.6606
  182SOPE     N20752   0.291   1.807   6.382 -0.1372  0.0382 -0.4256
  182SOPE   HN120753   0.346   1.775   6.465 -0.1357  1.6002  0.1960
  182SOPE   HN220754   0.355   1.861   6.320 -1.7671  1.4113 -0.9784
  182SOPE   HN320755   0.223   1.872   6.425 -0.0170 -0.8899  1.2379
  182SOPE   C1220756   0.224   1.695   6.298 -0.5799 -0.1688 -0.3557
  182SOPE  H12A20757   0.179   1.619   6.365 -4.2907  1.7452 -0.4104
  182SOPE  H12B20758   0.303   1.653   6.232 -1.6272 -2.5681 -0.1836
  182SOPE   C1120759   0.109   1.750   6.225  0.2621 -0.2213  0.2247
  182SOPE  H11A20760   0.047   1.659   6.209 -2.1460  0.4860  4.1442
  182SOPE  H11B20761   0.151   1.788   6.130  1.3852  0.8740  1.1300
  182SOPE     P20762  -0.096   1.896   6.264  0.5162  0.0031  0.1863
  182SOPE   O1320763  -0.158   1.812   6.154  0.0838  0.2162  0.5651
  182SOPE   O1420764  -0.095   2.037   6.244 -0.4954 -0.0464  0.9109
  182SOPE   O1220765   0.050   1.853   6.289  0.1989 -0.1693  0.1453
  182SOPE   O1120766  -0.171   1.858   6.401  0.0452 -0.1025  0.3342
  182SOPE    C120767  -0.145   1.737   6.468 -0.8112  0.0305 -0.8184
  182SOPE    HA20768  -0.071   1.673   6.416 -1.2019 -0.3085 -0.9636
  182SOPE    HB20769  -0.236   1.672   6.471 -0.5978 -0.2693 -0.7842
  182SOPE    C220770  -0.095   1.767   6.615 -0.4519  0.8652  0.2476
  182SOPE    HS20771   0.012   1.796   6.612  0.0322 -0.5586  2.0207
  182SOPE   O2120772  -0.124   1.644   6.693 -0.3311 -0.0361 -0.6065
  182SOPE   C2120773  -0.068   1.532   6.661 -0.4205 -0.2033 -0.1534
  182SOPE   O2220774   0.028   1.521   6.589 -0.1216  0.0775  0.0879
  182SOPE   C2220775  -0.137   1.416   6.741 -0.2619  0.1692  0.7785
  182SOPE   H2R20776  -0.070   1.328   6.732  1.1022  1.0195  2.1425
  182SOPE   H2S20777  -0.231   1.389   6.688 -0.6429  1.7550  0.5814
  182SOPE    C320778  -0.168   1.879   6.689  0.6249  0.1151  0.1474
  182SOPE    HX20779  -0.270   1.842   6.717  0.4522  0.4889  0.0107
  182SOPE    HY20780  -0.191   1.958   6.615 -0.8752 -1.5949 -1.3337
  182SOPE   O3120781  -0.097   1.926   6.806 -0.4982  0.2528 -0.0691
  182SOPE   C3120782  -0.029   2.039   6.789 -0.4024 -0.3136  0.4480
  182SOPE   O3220783  -0.003   2.092   6.682  0.1972  0.3795  0.0280
  182SOPE   C3220784   0.000   2.115   6.918  0.6357  0.0024  0.5267
  182SOPE   H2X20785   0.107   2.146   6.912  0.7472 -0.5933 -1.0360
  182SOPE   H2Y20786  -0.022   2.039   6.997 -1.2071 -1.8804 -1.6554
  182SOPE   C2320787  -0.164   1.442   6.890 -0.2492 -0.5474 -0.2939
  182SOPE   H3R20788  -0.275   1.432   6.891 -0.7593  2.8396 -3.4720
  182SOPE   H3S20789  -0.145   1.547   6.921  0.2960 -0.4067 -1.0847
  182SOPE   C2420790  -0.110   1.332   6.983  0.3316 -0.3040 -0.0432
  182SOPE   H4R20791  -0.117   1.226   6.951 -1.4987 -0.3167  0.3008
  182SOPE   H4S20792  -0.003   1.349   7.010  0.5514 -0.1845 -0.9369
  182SOPE   C2520793  -0.204   1.325   7.110  0.1682 -0.3841 -0.4102
  182SOPE   H5R20794  -0.232   1.429   7.139 -2.2794 -0.9799 -0.4087
  182SOPE   H5S20795  -0.292   1.261   7.088  1.0490 -1.9183  0.3749
  182SOPE   C2620796  -0.138   1.266   7.237  0.2031  0.4068  0.5910
  182SOPE   H6R20797  -0.035   1.306   7.234 -0.3312  1.8032 -0.6986
  182SOPE   H6S20798  -0.196   1.316   7.318 -0.6441  0.8418 -0.2557
  182SOPE   C2720799  -0.145   1.113   7.235  0.1238 -0.2936 -0.0398
  182SOPE   H7R20800  -0.249   1.098   7.199  0.4736  1.0002 -1.6748
  182SOPE   H7S20801  -0.075   1.079   7.156  0.5140 -1.4659  0.7811
  182SOPE   C2820802  -0.102   1.037   7.361 -0.1915 -0.0859  0.4390
  182SOPE   H8R20803  -0.088   0.930   7.336  4.0152  0.8851 -2.3145
  182SOPE   H8S20804   0.005   1.060   7.379 -0.0203  0.5769 -1.2948
  182SOPE   C2920805  -0.189   1.058   7.485  0.1477 -0.1218  0.3804
  182SOPE   H9120806  -0.287   1.009   7.487  0.5749 -1.0556 -0.5879
  182SOPE  C21020807  -0.158   1.133   7.590  0.1607  0.3437 -0.1755
  182SOPE  H10120808  -0.233   1.161   7.665  0.4442  0.7478 -0.0406
  182SOPE  C21120809  -0.030   1.208   7.604 -0.0744 -0.0554  0.4246
  182SOPE  H11R20810  -0.025   1.272   7.513  0.4829 -0.7281 -0.0269
  182SOPE  H11S20811   0.050   1.133   7.619  1.7693  1.8097  0.3692
  182SOPE  C21220812  -0.036   1.306   7.722  0.4211 -0.4556 -0.0001
  182SOPE  H12R20813  -0.130   1.365   7.728  1.1835  0.9522 -1.2001
  182SOPE  H12S20814   0.047   1.379   7.712  2.4423 -2.7568 -0.8869
  182SOPE  C21320815  -0.023   1.230   7.856  0.2493 -0.4270  0.1342
  182SOPE  H13R20816   0.073   1.174   7.855  0.6436  0.2534 -0.6724
  182SOPE  H13S20817  -0.113   1.169   7.877 -0.8743  1.3104  0.5400
  182SOPE  C21420818  -0.030   1.326   7.980 -0.2691  0.2182  0.2795
  182SOPE  H14R20819  -0.127   1.381   7.972 -1.0596 -1.3708 -2.4316
  182SOPE  H14S20820   0.055   1.397   7.978 -0.6449  0.7538  1.8201
  182SOPE  C21520821  -0.034   1.243   8.109  0.4608 -0.7574  0.8001
  182SOPE  H15R20822   0.011   1.305   8.189  0.6642  0.2237 -0.0563
  182SOPE  H15S20823   0.039   1.159   8.101 -1.1817 -2.3453  1.7189
  182SOPE  C21620824  -0.177   1.207   8.158 -0.0492  0.0288 -0.3643
  182SOPE  H16R20825  -0.198   1.103   8.127 -0.2716 -0.2611  0.7319
  182SOPE  H16S20826  -0.251   1.271   8.106 -0.3237  0.4445  0.5105
  182SOPE  C21720827  -0.178   1.208   8.315 -0.2670 -0.2202  0.6204
  182SOPE  H17R20828  -0.285   1.203   8.346 -0.1995  1.8926  1.3272
  182SOPE  H17S20829  -0.130   1.295   8.364  1.0484  0.4090 -1.6040
  182SOPE  C21820830  -0.125   1.076   8.372  0.0217 -0.4091 -0.2083
  182SOPE  H18R20831  -0.016   1.067   8.348  0.3437  1.3011  0.4850
  182SOPE  H18S20832  -0.195   0.998   8.335  0.9910 -1.8186  0.8468
  182SOPE  H18T20833  -0.130   1.087   8.482  0.1568  5.2718 -0.4694
  182SOPE   C3320834  -0.083   2.244   6.935 -0.3675  0.5627  0.0727
  182SOPE   H3X20835  -0.190   2.219   6.920  0.0744 -2.6862  1.4553
  182SOPE   H3Y20836  -0.047   2.323   6.865 -1.1779  1.6896  0.8867
  182SOPE   C3420837  -0.070   2.275   7.085  0.6087 -0.3793 -0.8678
  182SOPE   H4X20838   0.037   2.287   7.112 -0.0445  1.4389  1.1857
  182SOPE   H4Y20839  -0.103   2.183   7.136  2.9201  0.7231  3.0484
  182SOPE   C3520840  -0.145   2.389   7.144 -0.4139  0.0257  0.2293
  182SOPE   H5X20841  -0.249   2.389   7.106 -0.1828 -0.6257 -0.4304
  182SOPE   H5Y20842  -0.097   2.478   7.099 -2.6168  2.1100  1.7454
  182SOPE   C3620843  -0.129   2.408   7.297  0.1249  0.0607  0.7673
  182SOPE   H6X20844  -0.027   2.445   7.322 -0.3916  0.8865  1.7312
  182SOPE   H6Y20845  -0.139   2.306   7.341 -0.3344 -0.1558  0.1740
  182SOPE   C3720846  -0.230   2.496   7.359  0.2622 -0.4402  0.9025
  182SOPE   H7X20847  -0.332   2.478   7.319  0.0886  0.0742  1.1040
  182SOPE   H7Y20848  -0.199   2.599   7.331 -0.9448 -0.5936 -1.2543
  182SOPE   C3820849  -0.218   2.487   7.509 -0.1519 -0.9105  0.3715
  182SOPE   H8X20850  -0.114   2.508   7.544 -1.0192  1.8177  1.5828
  182SOPE   H8Y20851  -0.244   2.384   7.542 -0.6797 -0.4623  1.4098
  182SOPE   C3920852  -0.312   2.588   7.582  0.2491 -1.0586 -0.4376
  182SOPE   H9X20853  -0.416   2.575   7.544  0.4818 -1.2401 -1.0209
  182SOPE   H9Y20854  -0.289   2.693   7.556  0.3614 -1.0116 -0.1517
  182SOPE  C31020855  -0.306   2.568   7.734 -0.5266 -0.3223  0.0918
  182SOPE  H10X20856  -0.218   2.624   7.771 -0.8074  0.2051 -0.0247
  182SOPE  H10Y20857  -0.279   2.463   7.761  0.5979  0.0122  0.3049
  182SOPE  C31120858  -0.435   2.621   7.801  0.5346 -0.6255  0.5038
  182SOPE  H11X20859  -0.526   2.568   7.766 -2.2890  1.4617  3.9716
  182SOPE  H11Y20860  -0.453   2.727   7.771  0.2234 -0.6558  0.5823
  182SOPE  C31220861  -0.430   2.635   7.956 -1.1616 -0.3098 -0.1611
  182SOPE  H12X20862  -0.508   2.705   7.993 -2.8568 -2.1122 -0.1517
  182SOPE  H12Y20863  -0.330   2.677   7.979 -1.4200  0.9655 -1.1955
  182SOPE  C31320864  -0.433   2.499   8.035 -1.3521  0.3330  0.1461
  182SOPE  H13X20865  -0.339   2.449   8.003 -0.2686  1.0743  1.9945
  182SOPE  H13Y20866  -0.512   2.435   7.991  0.7468 -0.6570 -2.4613
  182SOPE  C31420867  -0.433   2.510   8.187 -0.8268  0.0985  0.4674
  182SOPE  H14X20868  -0.341   2.565   8.216  0.2242 -1.0926 -0.4859
  182SOPE  H14Y20869  -0.426   2.412   8.239  1.6611  1.2995  2.6531
  182SOPE  C31520870  -0.550   2.592   8.239 -0.2237  0.2472 -0.5095
  182SOPE  H15X20871  -0.645   2.542   8.211 -1.3167  1.3495  1.0917
  182SOPE  H15Y20872  -0.553   2.695   8.199 -2.9296 -0.0651 -1.3238
  182SOPE  C31620873  -0.534   2.602   8.387  0.3588 -0.6621  0.0266
  182SOPE  H16X20874  -0.431   2.636   8.411  0.7947 -1.8494 -0.0957
  182SOPE  H16Y20875  -0.545   2.497   8.421  2.3085 -1.1551 -0.7716
  182SOPE  C31720876  -0.634   2.693   8.460  0.3215 -0.9206  1.1528
  182SOPE  H17X20877  -0.622   2.691   8.570  2.8161 -0.2454  0.9695
  182SOPE  H17Y20878  -0.739   2.666   8.439  0.1310 -0.2318  1.1964
  182SOPE  C31820879  -0.622   2.843   8.414 -0.0879  0.1667 -0.8029
  182SOPE  H18X20880  -0.658   2.868   8.312 -1.9231  2.0584  0.2286
  182SOPE  H18Y20881  -0.518   2.882   8.417 -0.7748  2.4185 -2.5665
  182SOPE  H18Z20882  -0.685   2.903   8.483  0.0263 -1.4534  0.7957
  183SOPE     N20883   3.292   1.875   6.253  0.4107  0.6165  0.4993
  183SOPE   HN120884   3.238   1.963   6.263 -0.9460 -0.2716  1.3895
  183SOPE   HN220885   3.239   1.824   6.179  0.4329 -1.3908  1.7956
  183SOPE   HN320886   3.285   1.813   6.336  2.9622 -0.7521 -0.2099
  183SOPE   C1220887   3.428   1.905   6.215  0.6121  0.2247  0.0797
  183SOPE  H12A20888   3.429   1.934   6.108 -2.6413  0.5075  0.0192
  183SOPE  H12B20889   3.488   1.813   6.230  1.5732  0.9320  0.7406
  183SOPE   C1120890   3.505   2.008   6.302 -0.2879  0.1673 -0.0774
  183SOPE  H11A20891   3.606   2.021   6.256  0.6357  2.7163  2.3868
  183SOPE  H11B20892   3.521   1.962   6.401  1.4388 -0.1503 -0.4622
  183SOPE     P20893   3.322   2.173   6.383  0.1987 -0.0103 -0.3932
  183SOPE   O1320894   3.219   2.124   6.287  0.0695  0.7117  0.5403
  183SOPE   O1420895   3.320   2.315   6.426 -0.1970  0.0605  0.6392
  183SOPE   O1220896   3.452   2.144   6.301  0.2748 -0.1070 -0.3813
  183SOPE   O1120897   3.316   2.074   6.510 -0.8748 -0.5443  0.0559
  183SOPE    C120898   3.403   2.107   6.627  0.1785  0.0207 -0.0008
  183SOPE    HA20899   3.375   2.192   6.692 -0.5193 -0.2088  0.0108
  183SOPE    HB20900   3.507   2.127   6.593 -0.0484 -2.6049 -2.7094
  183SOPE    C220901   3.405   1.996   6.735  0.4613  0.2214 -0.3906
  183SOPE    HS20902   3.476   2.033   6.812  3.6561  0.1497 -3.0790
  183SOPE   O2120903   3.456   1.866   6.687 -0.5001  0.3333 -0.4660
  183SOPE   C2120904   3.584   1.854   6.671  0.6522 -0.1140  0.2297
  183SOPE   O2220905   3.667   1.943   6.684  0.5504  0.3024 -0.0003
  183SOPE   C2220906   3.609   1.702   6.646 -0.1754  0.3223  0.0810
  183SOPE   H2R20907   3.571   1.683   6.543 -1.9413  1.7050  0.4382
  183SOPE   H2S20908   3.546   1.649   6.720 -0.2638 -1.7265 -1.3827
  183SOPE    C320909   3.261   1.971   6.792  0.4115  0.8802  0.1838
  183SOPE    HX20910   3.198   1.919   6.717  1.8349 -0.3251 -0.2318
  183SOPE    HY20911   3.218   2.073   6.803  0.7210  1.0639 -0.2916
  183SOPE   O3120912   3.245   1.888   6.915  0.2709  0.1409 -0.1394
  183SOPE   C3120913   3.297   1.945   7.020 -0.5482 -0.7721 -0.0452
  183SOPE   O3220914   3.353   2.054   7.013  0.1453  0.3069 -0.6793
  183SOPE   C3220915   3.281   1.869   7.148 -0.4457  0.1772 -0.6198
  183SOPE   H2X20916   3.329   1.773   7.117 -0.3745  0.8774 -2.8390
  183SOPE   H2Y20917   3.173   1.854   7.170 -0.1896 -1.5806 -0.3833
  183SOPE   C2320918   3.753   1.669   6.673 -0.9071  0.4770  0.3410
  183SOPE   H3R20919   3.822   1.739   6.623 -1.3684 -0.5273 -1.8277
  183SOPE   H3S20920   3.771   1.568   6.630 -1.3611 -0.0031  1.2326
  183SOPE   C2420921   3.788   1.658   6.820  0.3397 -0.1836 -0.4299
  183SOPE   H4R20922   3.754   1.751   6.870 -1.5454 -1.0799  0.0340
  183SOPE   H4S20923   3.726   1.573   6.853 -2.2282  2.0912  1.0162
  183SOPE   C2520924   3.932   1.617   6.860 -0.0571 -0.6259 -0.1391
  183SOPE   H5R20925   3.960   1.524   6.806 -0.3361 -0.1498 -1.1303
  183SOPE   H5S20926   3.998   1.696   6.819  0.4813 -0.6104  0.7487
  183SOPE   C2620927   3.954   1.590   7.008  0.1853 -0.1404 -0.5042
  183SOPE   H6R20928   3.938   1.688   7.056  0.6430  0.3938 -1.4125
  183SOPE   H6S20929   3.896   1.508   7.056  1.6153  0.1823  1.9388
  183SOPE   C2720930   4.104   1.550   7.028 -0.9101 -0.4580 -0.2671
  183SOPE   H7R20931   4.121   1.452   6.978  0.3072 -0.7759  0.7135
  183SOPE   H7S20932   4.152   1.629   6.967 -0.4115 -1.1565 -0.7976
  183SOPE   C2820933   4.136   1.559   7.175 -0.0048 -0.0757 -0.2238
  183SOPE   H8R20934   4.055   1.518   7.238 -0.8675 -1.6665 -2.2357
  183SOPE   H8S20935   4.224   1.493   7.192 -0.5448 -0.4570  1.2203
  183SOPE   C2920936   4.160   1.703   7.223 -0.2338  0.0321  0.3492
  183SOPE   H9120937   4.131   1.781   7.151  2.8584  2.2096  1.2559
  183SOPE  C21020938   4.238   1.735   7.329  0.2727  0.0754  0.3023
  183SOPE  H10120939   4.272   1.840   7.338 -1.3615  0.7381 -0.8524
  183SOPE  C21120940   4.296   1.643   7.429  0.6888 -0.0632  0.0701
  183SOPE  H11R20941   4.406   1.640   7.416  0.5197  0.1201 -1.5630
  183SOPE  H11S20942   4.249   1.542   7.431 -1.3486  0.8540  1.2475
  183SOPE  C21220943   4.263   1.695   7.571 -0.5906 -0.4168  0.1592
  183SOPE  H12R20944   4.153   1.712   7.574 -0.7499 -1.3862  0.0419
  183SOPE  H12S20945   4.312   1.793   7.591 -2.9693  0.3049  3.1474
  183SOPE  C21320946   4.315   1.607   7.681 -0.0411 -0.3085  0.1998
  183SOPE  H13R20947   4.425   1.612   7.691 -0.2410  0.5994  2.6795
  183SOPE  H13S20948   4.288   1.503   7.653 -1.1153 -0.1620  0.6493
  183SOPE  C21420949   4.254   1.630   7.821 -0.2049  0.5337  0.2671
  183SOPE  H14R20950   4.153   1.586   7.834  0.0381  0.5519  2.5133
  183SOPE  H14S20951   4.253   1.738   7.845 -0.9225  0.2626  1.5612
  183SOPE  C21520952   4.333   1.557   7.930 -0.0376 -0.8223  1.1355
  183SOPE  H15R20953   4.439   1.589   7.931 -0.3091  0.2052 -0.3058
  183SOPE  H15S20954   4.322   1.448   7.909  0.4253 -0.7232  0.3525
  183SOPE  C21620955   4.272   1.583   8.068 -0.7766  0.2881  0.2356
  183SOPE  H16R20956   4.161   1.574   8.072 -0.7648 -1.3857 -1.5749
  183SOPE  H16S20957   4.303   1.687   8.090 -0.8593  0.2003  0.7700
  183SOPE  C21720958   4.324   1.487   8.172  0.2456  0.3054 -0.0992
  183SOPE  H17R20959   4.434   1.495   8.185 -0.0482  3.1970  1.5324
  183SOPE  H17S20960   4.290   1.388   8.134 -1.2149  1.2556 -1.4137
  183SOPE  C21820961   4.273   1.512   8.318  0.2999  0.9148  0.6689
  183SOPE  H18R20962   4.292   1.608   8.369  0.8564  1.2309 -0.1188
  183SOPE  H18S20963   4.322   1.429   8.373 -0.7554 -0.0084  0.2641
  183SOPE  H18T20964   4.166   1.483   8.331  0.6097 -0.4111  0.4444
  183SOPE   C3320965   3.367   1.933   7.265 -0.0985  0.0838  0.0123
  183SOPE   H3X20966   3.299   2.011   7.304 -1.3334 -1.3128  0.7283
  183SOPE   H3Y20967   3.453   1.982   7.213  0.0005  0.2850  0.3666
  183SOPE   C3420968   3.417   1.827   7.363  0.5051 -0.6184  0.1291
  183SOPE   H4X20969   3.481   1.755   7.308  0.5168  0.1849 -0.9507
  183SOPE   H4Y20970   3.324   1.782   7.404  0.0367  0.3313  0.1539
  183SOPE   C3520971   3.507   1.888   7.478  0.1968 -0.3981  0.5058
  183SOPE   H5X20972   3.466   1.986   7.509  1.9192  1.4514 -2.5157
  183SOPE   H5Y20973   3.606   1.917   7.437  0.5045  0.8199  2.0145
  183SOPE   C3620974   3.517   1.789   7.597  0.2000  0.0869  0.0574
  183SOPE   H6X20975   3.558   1.689   7.572 -1.9965 -0.2562 -2.6119
  183SOPE   H6Y20976   3.408   1.791   7.619  0.3652  3.4674  1.2268
  183SOPE   C3720977   3.609   1.846   7.712  1.0992 -0.0795 -0.2794
  183SOPE   H7X20978   3.581   1.950   7.737  2.4911  0.5183 -1.1332
  183SOPE   H7Y20979   3.714   1.847   7.677  0.5849 -0.8013 -1.9608
  183SOPE   C3820980   3.605   1.765   7.845  0.3966  0.2025  0.1979
  183SOPE   H8X20981   3.499   1.747   7.872  0.8333 -3.4063 -0.0538
  183SOPE   H8Y20982   3.650   1.820   7.931  1.5544 -0.5305  0.0745
  183SOPE   C3920983   3.662   1.621   7.832  0.5287 -0.3541  0.2994
  183SOPE   H9X20984   3.763   1.640   7.791  1.8331 -1.7980  2.6188
  183SOPE   H9Y20985   3.613   1.565   7.749  1.5928 -1.0836  0.1402
  183SOPE  C31020986   3.674   1.539   7.961 -0.0768  0.8121  0.2112
  183SOPE  H10X20987   3.737   1.589   8.038 -0.4341 -0.1824  1.1880
  183SOPE  H10Y20988   3.724   1.446   7.927  0.0269  0.8012  0.3885
  183SOPE  C31120989   3.538   1.497   8.013 -0.5725  0.0671  0.3797
  183SOPE  H11X20990   3.476   1.444   7.937  0.0490  0.0926 -0.1636
  183SOPE  H11Y20991   3.473   1.585   8.027 -0.6965  0.1050 -0.3794
  183SOPE  C31220992   3.523   1.410   8.141 -0.4704  0.4913 -0.1140
  183SOPE  H12X20993   3.606   1.448   8.204 -0.8145 -0.4597  0.9272
  183SOPE  H12Y20994   3.563   1.311   8.111  0.5290  0.3060  1.6992
  183SOPE  C31320995   3.391   1.415   8.214 -0.4388  0.4389 -0.0685
  183SOPE  H13X20996   3.323   1.380   8.133  1.8024 -0.7185 -1.5226
  183SOPE  H13Y20997   3.367   1.523   8.229 -0.9429  0.4970 -1.1908
  183SOPE  C31420998   3.374   1.332   8.342  0.6911 -0.2880  0.7366
  183SOPE  H14X20999   3.280   1.367   8.389 -0.2192 -0.6959 -0.7093
  183SOPE  H14Y21000   3.446   1.363   8.420 -0.1664 -0.0226  1.4416
  183SOPE  C31521001   3.366   1.180   8.316 -0.1739  0.8051 -0.1287
  183SOPE  H15X21002   3.464   1.159   8.267  0.2746 -0.0907  1.1142
  183SOPE  H15Y21003   3.287   1.153   8.243  0.6244 -0.6696 -0.4692
  183SOPE  C31621004   3.353   1.091   8.441  0.6462 -0.1918  0.1632
  183SOPE  H16X21005   3.434   1.114   8.513  0.2853 -0.3576  0.6265
  183SOPE  H16Y21006   3.370   0.986   8.409  0.2842 -0.5498  1.1095
  183SOPE  C31721007   3.208   1.098   8.507  0.0018 -0.1503 -0.0946
  183SOPE  H17X21008   3.121   1.076   8.440 -0.2574  0.5073  0.0157
  183SOPE  H17Y21009   3.207   1.208   8.522 -1.2464 -0.2578  0.7547
  183SOPE  C31821010   3.188   1.021   8.633  0.9944 -0.0097 -0.0951
  183SOPE  H18X21011   3.202   0.913   8.611  0.1429  0.0666 -1.0757
  183SOPE  H18Y21012   3.088   1.026   8.680  1.2942  0.2913  0.5267
  183SOPE  H18Z21013   3.264   1.047   8.710 -0.9498  2.5797  1.1296
  184SOPE     N21014   3.816   1.164   6.386  0.3770  0.3978 -0.3025
  184SOPE   HN121015   3.855   1.083   6.439 -0.3570  0.9480  1.1306
  184SOPE   HN221016   3.716   1.141   6.375  0.7606 -1.7633  0.2488
  184SOPE   HN321017   3.877   1.163   6.302 -0.0494  2.5954 -0.6965
  184SOPE   C1221018   3.827   1.296   6.464  0.8247 -0.5405  0.1707
  184SOPE  H12A21019   3.777   1.277   6.562  0.2051 -1.0632 -0.2456
  184SOPE  H12B21020   3.774   1.381   6.416  1.2522 -0.4807 -0.1976
  184SOPE   C1121021   3.975   1.323   6.489  0.1396  0.2058  0.5996
  184SOPE  H11A21022   4.009   1.237   6.550 -1.3571 -0.4120  0.6154
  184SOPE  H11B21023   3.991   1.418   6.545 -2.7510  1.4479 -0.4619
  184SOPE     P21024   4.200   1.305   6.346  0.1859  0.1420  0.2863
  184SOPE   O1321025   4.267   1.416   6.268  0.3883  0.2280  0.0011
  184SOPE   O1421026   4.203   1.171   6.282 -0.2396 -0.2535  0.1086
  184SOPE   O1221027   4.046   1.331   6.364 -0.6180  0.3248 -0.9386
  184SOPE   O1121028   4.260   1.296   6.496 -0.7400  0.0277 -0.2636
  184SOPE    C121029   4.391   1.347   6.528  0.2708 -0.0330 -0.8168
  184SOPE    HA21030   4.449   1.378   6.439 -1.7626  0.4595 -2.0480
  184SOPE    HB21031   4.456   1.264   6.563 -0.9533 -0.6990 -0.0209
  184SOPE    C221032   4.400   1.465   6.622  1.0539  0.1837 -0.7245
  184SOPE    HS21033   4.492   1.525   6.604  0.4973  1.4072  0.3087
  184SOPE   O2121034   4.396   1.427   6.763 -0.0009  0.0875  0.0103
  184SOPE   C2121035   4.504   1.367   6.806  0.7392  0.9068 -0.7477
  184SOPE   O2221036   4.607   1.361   6.744  0.1910  0.8145 -0.0125
  184SOPE   C2221037   4.481   1.310   6.944 -0.2175  1.0227  0.1378
  184SOPE   H2R21038   4.378   1.269   6.956  0.6772 -1.3050  0.3947
  184SOPE   H2S21039   4.497   1.398   7.010 -1.4750  2.2408 -1.0896
  184SOPE    C321040   4.278   1.561   6.583  0.3637  0.6923 -0.5072
  184SOPE    HX21041   4.186   1.525   6.634  1.6406 -0.4110  1.1337
  184SOPE    HY21042   4.265   1.555   6.473 -3.5789 -1.4479 -0.1219
  184SOPE   O3121043   4.320   1.694   6.626 -0.4119  0.1127  0.3607
  184SOPE   C3121044   4.214   1.776   6.615  0.6121  0.2921 -0.6537
  184SOPE   O3221045   4.099   1.750   6.577  0.2625  0.2048 -0.4867
  184SOPE   C3221046   4.248   1.911   6.682  0.3838  0.0996  0.6980
  184SOPE   H2X21047   4.151   1.964   6.692 -0.1517 -0.7216 -0.0234
  184SOPE   H2Y21048   4.311   1.964   6.608 -0.2600 -0.9333 -0.6339
  184SOPE   C2321049   4.574   1.195   6.996  0.6663  1.1290  0.1790
  184SOPE   H3R21050   4.679   1.221   7.023  1.6387 -2.5979  0.5790
  184SOPE   H3S21051   4.584   1.122   6.913  0.1726  1.8339 -0.5143
  184SOPE   C2421052   4.507   1.122   7.115 -0.1214 -0.3017  0.8184
  184SOPE   H4R21053   4.408   1.092   7.076  1.0744 -3.7231  0.1377
  184SOPE   H4S21054   4.574   1.035   7.134 -0.3787 -0.5135  0.7462
  184SOPE   C2521055   4.499   1.222   7.240 -0.3873 -0.2262  0.4622
  184SOPE   H5R21056   4.596   1.275   7.251 -0.0701 -0.8713  0.8430
  184SOPE   H5S21057   4.428   1.301   7.207 -1.0899 -2.0333 -2.7607
  184SOPE   C2621058   4.460   1.153   7.377 -0.3569 -0.8811  0.6450
  184SOPE   H6R21059   4.378   1.082   7.355  0.5573 -2.0882  1.0338
  184SOPE   H6S21060   4.545   1.091   7.411 -0.9831 -1.5685  0.9959
  184SOPE   C2721061   4.443   1.275   7.481  0.3523  0.4220  0.4168
  184SOPE   H7R21062   4.541   1.324   7.460  0.9869 -1.5267 -1.5193
  184SOPE   H7S21063   4.359   1.338   7.447  0.7373 -0.8947 -3.4238
  184SOPE   C2821064   4.421   1.233   7.627  0.0145  0.3396  0.4043
  184SOPE   H8R21065   4.421   1.326   7.688  1.6892  0.9446 -0.4336
  184SOPE   H8S21066   4.319   1.193   7.639 -1.1914  3.1284  0.2928
  184SOPE   C2921067   4.529   1.149   7.686  0.4778  0.5941 -0.0115
  184SOPE   H9121068   4.602   1.099   7.620  0.5889 -0.2865  0.7580
  184SOPE  C21021069   4.548   1.120   7.818  0.1476  0.0361  0.2969
  184SOPE  H10121070   4.614   1.034   7.837  0.9042  0.1632 -1.4789
  184SOPE  C21121071   4.472   1.175   7.938 -0.4085  1.0621 -0.3165
  184SOPE  H11R21072   4.442   1.277   7.909 -0.0504  1.0763 -0.6451
  184SOPE  H11S21073   4.544   1.178   8.023 -0.5035 -0.0872 -0.1774
  184SOPE  C21221074   4.350   1.093   7.969 -0.6939  0.2055 -1.1321
  184SOPE  H12R21075   4.329   1.117   8.075  0.0488  1.5081 -1.2642
  184SOPE  H12S21076   4.374   0.985   7.984  0.3620  0.6836  1.0034
  184SOPE  C21321077   4.225   1.126   7.897  0.1082  0.1479 -0.7225
  184SOPE  H13R21078   4.223   1.087   7.793  0.7911 -2.0488  0.0294
  184SOPE  H13S21079   4.220   1.237   7.895  0.1984  0.1597 -0.3943
  184SOPE  C21421080   4.104   1.086   7.989  0.8097  0.2517  0.1799
  184SOPE  H14R21081   4.109   1.141   8.086  1.7167  0.1168  0.2201
  184SOPE  H14S21082   4.118   0.980   8.019 -0.1204  0.5142  1.6459
  184SOPE  C21521083   3.964   1.101   7.916  0.0006  0.9480  0.8677
  184SOPE  H15R21084   3.945   1.007   7.861  0.5825  0.9028  0.7373
  184SOPE  H15S21085   3.972   1.187   7.847  0.4444  0.4857  0.3358
  184SOPE  C21621086   3.846   1.131   8.012  0.8360  0.4212 -0.4056
  184SOPE  H16R21087   3.753   1.113   7.953  1.1018 -0.4327 -0.5831
  184SOPE  H16S21088   3.862   1.234   8.049 -0.1368 -0.2492  2.1092
  184SOPE  C21721089   3.835   1.038   8.128  0.3552 -0.5176 -0.5230
  184SOPE  H17R21090   3.924   1.044   8.194 -0.3305 -3.4553  0.8522
  184SOPE  H17S21091   3.841   0.934   8.089  1.5616 -1.2271  1.3971
  184SOPE  C21821092   3.708   1.062   8.217 -0.0096  0.7448 -0.1478
  184SOPE  H18R21093   3.699   1.165   8.256  2.3670  0.3277  1.7554
  184SOPE  H18S21094   3.716   0.987   8.299  0.5810  0.3546 -0.5573
  184SOPE  H18T21095   3.618   1.035   8.158  0.4807 -3.7814  0.7945
  184SOPE   C3321096   4.309   1.903   6.826  0.5301 -0.1829  0.2003
  184SOPE   H3X21097   4.393   1.831   6.825 -0.7156 -1.7574  2.1446
  184SOPE   H3Y21098   4.233   1.865   6.897 -0.5005  1.3790 -0.0060
  184SOPE   C3421099   4.357   2.047   6.876  0.1792 -0.7547  0.5477
  184SOPE   H4X21100   4.269   2.109   6.903  0.2108 -0.5831  0.2562
  184SOPE   H4Y21101   4.416   2.099   6.797  1.5807  0.3607  2.2203
  184SOPE   C3521102   4.441   2.045   7.003 -0.3487  0.2948  0.9484
  184SOPE   H5X21103   4.513   1.962   6.999  0.4698  1.0319 -0.6010
  184SOPE   H5Y21104   4.368   2.014   7.081 -1.3891  2.4005  0.8855
  184SOPE   C3621105   4.498   2.182   7.037  0.4430  0.1758 -0.7111
  184SOPE   H6X21106   4.415   2.253   7.018 -0.9918 -1.6350 -1.4560
  184SOPE   H6Y21107   4.580   2.214   6.968 -0.3201  1.1918 -1.1715
  184SOPE   C3721108   4.542   2.204   7.182  0.3871 -0.6777  0.0833
  184SOPE   H7X21109   4.601   2.298   7.189  2.7571 -2.0142 -0.7655
  184SOPE   H7Y21110   4.614   2.121   7.197  2.4778  0.3608 -3.1245
  184SOPE   C3821111   4.428   2.210   7.286  0.3661  0.3298 -0.4134
  184SOPE   H8X21112   4.371   2.115   7.292 -0.0746  0.5896 -0.4442
  184SOPE   H8Y21113   4.354   2.288   7.259  1.2369  1.6157  0.7572
  184SOPE   C3921114   4.481   2.254   7.422  0.2716 -0.3146 -0.4173
  184SOPE   H9X21115   4.545   2.345   7.420  1.7655 -1.2307  1.6600
  184SOPE   H9Y21116   4.548   2.175   7.463 -0.4921 -0.1380  1.2347
  184SOPE  C31021117   4.372   2.299   7.529  0.8133 -0.5876  0.6385
  184SOPE  H10X21118   4.298   2.217   7.531  0.1396 -0.0180 -0.1014
  184SOPE  H10Y21119   4.326   2.387   7.478 -0.2259 -1.1986  0.5000
  184SOPE  C31121120   4.427   2.343   7.665  0.4749  0.0616  0.0254
  184SOPE  H11X21121   4.477   2.441   7.649  0.2241  0.1511 -0.2351
  184SOPE  H11Y21122   4.503   2.265   7.687  1.2336  0.9487  0.6211
  184SOPE  C31221123   4.327   2.343   7.786 -0.3399 -0.1390 -0.0216
  184SOPE  H12X21124   4.256   2.258   7.782 -1.6195  0.9309 -0.5580
  184SOPE  H12Y21125   4.258   2.430   7.786 -0.3006 -0.0987 -1.1168
  184SOPE  C31321126   4.400   2.345   7.913 -1.0956 -0.0111  0.5546
  184SOPE  H13X21127   4.473   2.429   7.920 -2.7511  1.5888 -0.3518
  184SOPE  H13Y21128   4.463   2.255   7.923 -2.0612 -0.6270  1.2551
  184SOPE  C31421129   4.313   2.354   8.044 -0.3645  0.0726  0.3053
  184SOPE  H14X21130   4.286   2.248   8.066 -0.8407  0.2484  0.5755
  184SOPE  H14Y21131   4.224   2.417   8.023 -1.3807 -0.8093  1.7565
  184SOPE  C31521132   4.396   2.414   8.159 -0.1402 -0.0902  0.2713
  184SOPE  H15X21133   4.451   2.507   8.130 -1.6443  0.2225 -1.7833
  184SOPE  H15Y21134   4.475   2.340   8.183  1.9741  1.4054 -1.5896
  184SOPE  C31621135   4.309   2.439   8.279 -0.1718 -0.5923 -0.2692
  184SOPE  H16X21136   4.266   2.341   8.307 -1.3234  0.0941  0.4447
  184SOPE  H16Y21137   4.231   2.507   8.238 -0.0553 -0.4031 -0.1832
  184SOPE  C31721138   4.386   2.492   8.403 -0.1405  0.4430 -0.2150
  184SOPE  H17X21139   4.303   2.486   8.477  0.2793 -1.9571  0.1237
  184SOPE  H17Y21140   4.418   2.599   8.400 -0.2919  0.4822 -0.4901
  184SOPE  C31821141   4.504   2.411   8.450 -0.2399 -0.5283 -0.5141
  184SOPE  H18X21142   4.472   2.306   8.469 -1.5168  0.0558  0.7880
  184SOPE  H18Y21143   4.530   2.447   8.552 -1.2117  2.0529 -1.1163
  184SOPE  H18Z21144   4.595   2.424   8.388  0.3740  1.3346  0.7137
  185SAPI   C1221145   2.027   1.562  11.168 -0.3794  0.5030  0.7081
  185SAPI    H221146   2.014   1.458  11.204  0.2390  0.4012  0.6494
  185SAPI    O221147   1.912   1.624  11.217 -0.2728  0.1664 -0.1058
  185SAPI   HO221148   1.841   1.604  11.155 -0.2667  1.0223 -0.4102
  185SAPI   C1321149   2.149   1.625  11.237  0.7800  0.3012 -0.0012
  185SAPI    H321150   2.240   1.570  11.205 -0.4627 -0.9880 -1.4486
  185SAPI    O321151   2.144   1.614  11.382 -0.1970  0.3044  0.1534
  185SAPI   HO321152   2.064   1.659  11.412 -0.1516 -0.2624  1.1839
  185SAPI   C1421153   2.163   1.778  11.194  0.4651 -0.5696 -0.9787
  185SAPI    H421154   2.067   1.823  11.228 -0.0642 -3.0269  1.1605
  185SAPI    O421155   2.276   1.838  11.260 -0.0590 -0.1419 -0.3089
  185SAPI   HO421156   2.252   1.912  11.316 -0.0524 -1.1687  1.0987
  185SAPI   C1521157   2.165   1.789  11.042 -0.3770  1.2275  0.2438
  185SAPI    H521158   2.262   1.744  11.012  0.3347  0.9147  2.7583
  185SAPI    O521159   2.182   1.921  10.998  0.6012 -0.1319 -0.3864
  185SAPI   HO521160   2.232   1.916  10.916  2.0848 -0.0090  0.4687
  185SAPI   C1621161   2.052   1.715  10.969  1.1103 -0.0593  0.0296
  185SAPI    H621162   1.954   1.763  10.987  0.3666 -1.2051 -0.8159
  185SAPI    O621163   2.069   1.727  10.827  0.3428  0.3448  0.4855
  185SAPI   HO621164   2.017   1.656  10.789 -0.0823  0.5286  0.7216
  185SAPI   C1121165   2.047   1.568  11.012 -0.2498  0.3384  0.2032
  185SAPI    H121166   2.139   1.505  11.004 -1.2599 -1.3208  0.9478
  185SAPI     P21167   1.949   1.337  10.907  0.5162  0.2041  0.0499
  185SAPI   O1321168   1.805   1.301  10.896  0.3792 -0.8598 -0.0776
  185SAPI   O1421169   2.033   1.266  11.008  0.0657 -0.3805  0.1477
  185SAPI   O1221170   1.942   1.500  10.946  0.6700 -0.1567 -0.4538
  185SAPI   O1121171   2.017   1.331  10.763  0.4264  0.2109  0.0838
  185SAPI    C121172   1.936   1.354  10.643 -0.1703 -0.4748  1.1655
  185SAPI    HA21173   1.844   1.291  10.639 -0.8385  0.5338 -1.3638
  185SAPI    HB21174   1.905   1.460  10.653  0.2523 -0.2727  0.4236
  185SAPI    C221175   2.014   1.341  10.508 -0.4350  0.0662 -0.4688
  185SAPI    HS21176   2.084   1.427  10.515 -0.2900  0.0301 -1.3641
  185SAPI   O2121177   1.917   1.352  10.402  0.1752 -0.1956  0.0532
  185SAPI   C2121178   1.970   1.396  10.289 -0.3472 -0.2962 -0.0194
  185SAPI   O2221179   2.092   1.423  10.278  0.2587  0.5279  0.1620
  185SAPI   C2221180   1.876   1.392  10.177 -0.1707 -0.3392 -0.2029
  185SAPI   H2R21181   1.890   1.293  10.128  2.2040 -1.0929  1.8179
  185SAPI   H2S21182   1.768   1.395  10.202 -0.7766  0.7062 -2.6614
  185SAPI    C321183   2.100   1.205  10.518 -0.3270  0.3884  0.6403
  185SAPI    HX21184   2.033   1.126  10.559  0.0032 -1.5123 -2.1436
  185SAPI    HY21185   2.185   1.218  10.587 -0.0172  0.9866  0.1561
  185SAPI   O3121186   2.133   1.168  10.383  0.1977  0.4446  0.6120
  185SAPI   C3121187   2.255   1.182  10.350 -1.0006  0.3824  0.6203
  185SAPI   O3221188   2.348   1.230  10.411 -0.2241 -0.2912 -0.5305
  185SAPI   C3221189   2.265   1.152  10.197 -0.1601  0.5992  0.0437
  185SAPI   H2X21190   2.307   1.248  10.162  4.0163 -1.3568 -0.9213
  185SAPI   H2Y21191   2.166   1.125  10.154 -1.1861 -0.5506  2.8548
  185SAPI   C2321192   1.917   1.493  10.069  0.0188 -1.1347 -0.0647
  185SAPI   H3R21193   2.026   1.496  10.046  0.9173 -0.3529  3.5607
  185SAPI   H3S21194   1.910   1.596  10.109 -0.5659 -1.4173  0.5782
  185SAPI   C2421195   1.836   1.484   9.938 -1.0836  0.5016 -0.0421
  185SAPI   H4R21196   1.845   1.578   9.878  1.3014  0.7935  0.6631
  185SAPI   H4S21197   1.728   1.466   9.955 -0.9737 -0.7659 -0.5753
  185SAPI   C2521198   1.889   1.372   9.847 -0.6384 -0.7855 -0.2121
  185SAPI   H5R21199   1.865   1.273   9.887 -0.8120 -0.4370  0.5586
  185SAPI   C2621200   1.965   1.380   9.729  0.1560 -0.3467 -0.1638
  185SAPI   H6R21201   1.989   1.286   9.679 -0.4802  0.4762 -2.0928
  185SAPI   C2721202   2.023   1.499   9.654  0.3083  0.1225  0.3421
  185SAPI   H7R21203   2.030   1.581   9.729 -0.5454 -1.3844  2.1577
  185SAPI   H7S21204   1.946   1.536   9.583  0.5568  1.5653  0.7899
  185SAPI   C2821205   2.157   1.475   9.584 -0.4141  0.0003 -0.6109
  185SAPI   H8R21206   2.239   1.428   9.640 -1.2019 -0.2075  0.4140
  185SAPI   C2921207   2.191   1.544   9.475 -0.1997 -0.7289 -0.5970
  185SAPI   H9R21208   2.279   1.504   9.422  0.8115 -1.0445  1.2367
  185SAPI  C21021209   2.105   1.649   9.407  0.1568  0.4630 -1.0116
  185SAPI  H10R21210   2.046   1.713   9.477 -2.9600 -1.3489 -1.8020
  185SAPI  H10S21211   2.023   1.600   9.350 -1.5222  0.9006  0.9099
  185SAPI  C21121212   2.184   1.733   9.316 -0.2765 -0.0094  0.6031
  185SAPI  H11R21213   2.227   1.826   9.356 -0.0058  0.3928 -0.5675
  185SAPI  C21221214   2.192   1.719   9.186 -0.0169  0.0814  1.1488
  185SAPI  H12R21215   2.266   1.781   9.132  1.5979 -1.9768  0.8712
  185SAPI  C21321216   2.132   1.614   9.092 -0.6631  0.0438 -0.1955
  185SAPI  H13R21217   2.121   1.652   8.989 -2.5110  0.0267 -0.0304
  185SAPI  H13S21218   2.027   1.596   9.122 -0.1480  0.0176  1.7376
  185SAPI  C21421219   2.216   1.489   9.080 -0.2341 -0.6632  0.6125
  185SAPI  H14R21220   2.172   1.404   9.134 -0.8536 -0.8399 -0.1538
  185SAPI  C21521221   2.329   1.469   9.014  0.6052 -0.1888  1.0889
  185SAPI  H15R21222   2.376   1.371   9.028  1.3597 -0.0940 -0.5469
  185SAPI  C21621223   2.407   1.568   8.925  0.1851  1.0345 -0.2109
  185SAPI  H16R21224   2.516   1.573   8.947  0.0561 -0.4057  0.9465
  185SAPI  H16S21225   2.368   1.670   8.943 -0.1483  0.3106  4.2229
  185SAPI  C21721226   2.388   1.533   8.775 -0.3468 -0.9616 -0.2793
  185SAPI  H17R21227   2.281   1.532   8.743 -0.4800  1.1847 -0.0597
  185SAPI  H17S21228   2.416   1.426   8.775  0.6347 -0.7181  0.3297
  185SAPI  C21821229   2.484   1.620   8.694 -0.3845 -0.5964  0.7650
  185SAPI  H18R21230   2.588   1.624   8.734  1.0135 -1.5738 -2.3767
  185SAPI  H18S21231   2.436   1.720   8.699  0.3828 -0.0827 -1.0966
  185SAPI  C21921232   2.497   1.570   8.545  0.0496  0.1954  0.0115
  185SAPI  H19R21233   2.404   1.583   8.486  0.3243  0.9989 -0.2492
  185SAPI  H19S21234   2.531   1.464   8.543 -1.2629 -0.2370 -1.6815
  185SAPI  C22021235   2.596   1.655   8.463  0.9050  0.3604  0.1027
  185SAPI  H20R21236   2.700   1.647   8.501  1.0711 -0.1111 -0.4260
  185SAPI  H20S21237   2.564   1.760   8.451  2.7063  0.6427 -4.3626
  185SAPI  H20T21238   2.589   1.611   8.361 -1.4159  0.6281  0.1061
  185SAPI   C3321239   2.368   1.037  10.157  0.5275  0.0528  0.5030
  185SAPI   H3X21240   2.351   0.937  10.204  0.8961 -0.6442 -0.8129
  185SAPI   H3Y21241   2.473   1.068  10.178  1.3502 -1.3751 -1.2157
  185SAPI   C3421242   2.359   0.996  10.005  0.3403 -0.2789  0.6165
  185SAPI   H4X21243   2.257   0.951  10.005  0.2008 -0.1160 -2.2015
  185SAPI   H4Y21244   2.440   0.924   9.982  0.2512  0.0419 -0.7692
  185SAPI   C3521245   2.368   1.105   9.904 -0.7539 -0.3920  0.4448
  185SAPI   H5X21246   2.460   1.159   9.936 -1.1893  1.1871 -0.7994
  185SAPI   H5Y21247   2.280   1.173   9.914 -1.9729 -1.8225 -0.1744
  185SAPI   C3621248   2.385   1.051   9.763 -0.2707  0.8624  0.2689
  185SAPI   H6X21249   2.296   0.994   9.726  0.7097 -1.4121  1.2271
  185SAPI   H6Y21250   2.471   0.981   9.764  0.6569  1.9747 -0.3525
  185SAPI   C3721251   2.405   1.166   9.659  0.2195  0.0322 -0.2808
  185SAPI   H7X21252   2.322   1.240   9.668  0.0257 -0.3112  1.0173
  185SAPI   H7Y21253   2.411   1.112   9.562  2.3278 -1.1408  0.4287
  185SAPI   C3821254   2.541   1.243   9.685  0.2005  0.1322 -0.4925
  185SAPI   H8X21255   2.633   1.181   9.678  0.3598  0.3633 -0.4499
  185SAPI   H8Y21256   2.547   1.287   9.787  2.6127  1.7720 -1.2457
  185SAPI   C3921257   2.569   1.353   9.582 -0.1237  0.3127  0.0191
  185SAPI   H9X21258   2.498   1.438   9.589 -0.1385  0.1886  1.4909
  185SAPI   H9Y21259   2.546   1.307   9.483 -1.5368 -1.0349  0.9205
  185SAPI  C31021260   2.712   1.397   9.584  0.2638  0.4925 -0.4278
  185SAPI  H10X21261   2.774   1.320   9.532 -1.2761 -2.1557  1.3862
  185SAPI  H10Y21262   2.738   1.417   9.690 -0.1758  2.3262 -0.6325
  185SAPI  C31121263   2.731   1.532   9.516  0.3860  0.0303 -0.1901
  185SAPI  H11X21264   2.839   1.559   9.521  0.6977 -1.0067 -0.9469
  185SAPI  H11Y21265   2.683   1.608   9.581  2.6850  0.6910  0.8788
  185SAPI  C31221266   2.692   1.542   9.372  0.5984  0.3748  0.0724
  185SAPI  H12X21267   2.713   1.644   9.333  1.7614  0.1666  0.1075
  185SAPI  H12Y21268   2.582   1.528   9.373  0.6991 -0.7379  2.6643
  185SAPI  C31321269   2.757   1.436   9.279  0.3346  0.0936 -0.6136
  185SAPI  H13X21270   2.729   1.330   9.299  0.2257 -0.1093 -1.7689
  185SAPI  H13Y21271   2.865   1.438   9.304 -0.4178  1.1647  3.2893
  185SAPI  C31421272   2.734   1.454   9.131  0.0078 -0.1228  0.1678
  185SAPI  H14X21273   2.767   1.553   9.091 -2.2682  1.4102  1.8035
  185SAPI  H14Y21274   2.629   1.448   9.097 -0.1621  0.8480  0.4765
  185SAPI  C31521275   2.816   1.346   9.051 -0.3325  0.1843  0.0919
  185SAPI  H15X21276   2.772   1.249   9.082  0.4838 -0.1792  0.1194
  185SAPI  H15Y21277   2.921   1.345   9.085 -1.1514  0.0001  2.8440
  185SAPI  C31621278   2.808   1.365   8.893  0.2487 -0.2015  0.4347
  185SAPI  H16X21279   2.836   1.467   8.858  0.5418  0.3019  2.0463
  185SAPI  H16Y21280   2.699   1.362   8.871  0.1139  2.4040  0.3827
  185SAPI  C31721281   2.876   1.254   8.819  0.4649  0.0685 -0.1214
  185SAPI  H17X21282   2.833   1.158   8.854  0.4870 -0.5218 -1.6496
  185SAPI  H17Y21283   2.980   1.249   8.858  0.2595 -0.6806  0.3605
  185SAPI  C31821284   2.873   1.274   8.671 -0.6206 -0.0814 -0.3557
  185SAPI  H18X21285   2.931   1.364   8.642  0.2293 -0.9265 -1.3455
  185SAPI  H18Y21286   2.770   1.287   8.630 -0.0376  0.2520 -1.7835
  185SAPI  H18Z21287   2.924   1.188   8.622  0.5969 -1.0279  2.3875
  186SAPI   C1221288   1.510   4.386  11.256 -0.9417 -0.7039 -0.5206
  186SAPI    H221289   1.403   4.364  11.236 -1.1633 -0.7644  0.6816
  186SAPI    O221290   1.529   4.526  11.256  0.3445 -0.2966  0.9588
  186SAPI   HO221291   1.455   4.578  11.224  0.9321 -0.2084 -0.2978
  186SAPI   C1321292   1.538   4.320  11.397 -0.3559 -0.0434  0.1665
  186SAPI    H321293   1.509   4.214  11.380 -1.8918  0.1860  1.1242
  186SAPI    O321294   1.462   4.367  11.505 -0.0448  0.6723  0.6371
  186SAPI   HO321295   1.502   4.325  11.582 -0.6178 -1.3577 -0.1215
  186SAPI   C1421296   1.684   4.328  11.419  0.3161 -0.6229  0.2193
  186SAPI    H421297   1.713   4.435  11.424  2.7106 -1.2279  0.1709
  186SAPI    O421298   1.723   4.272  11.540 -0.1542 -0.2818  0.4966
  186SAPI   HO421299   1.716   4.348  11.599  0.2439  0.2569 -0.1433
  186SAPI   C1521300   1.766   4.268  11.303 -0.4997  0.8066 -1.2793
  186SAPI    H521301   1.753   4.159  11.314  1.5736  0.7782  2.5563
  186SAPI    O521302   1.906   4.288  11.331 -0.0695 -0.0059  0.3636
  186SAPI   HO521303   1.954   4.212  11.365  0.6870  0.6785  0.8588
  186SAPI   C1621304   1.734   4.333  11.170  0.0310  0.5827 -0.0088
  186SAPI    H621305   1.749   4.442  11.185  2.8604  0.1633  0.8188
  186SAPI    O621306   1.805   4.276  11.065 -0.0299 -0.3520  0.5525
  186SAPI   HO621307   1.747   4.252  10.992 -0.4278  0.5493  0.5638
  186SAPI   C1121308   1.585   4.312  11.137 -0.4612 -0.4462 -0.6564
  186SAPI    H121309   1.569   4.202  11.143  2.3264 -0.9131 -0.3401
  186SAPI     P21310   1.429   4.292  10.918 -0.0900  0.1630 -0.0418
  186SAPI   O1321311   1.405   4.367  10.796  0.1353 -0.3233  0.5851
  186SAPI   O1421312   1.316   4.252  11.002 -0.3367  0.3164 -0.3123
  186SAPI   O1221313   1.546   4.357  11.008  0.0480  0.8934  0.3595
  186SAPI   O1121314   1.505   4.161  10.865  0.3708  0.1718 -0.5657
  186SAPI    C121315   1.639   4.151  10.819  0.6980 -0.1692 -0.4934
  186SAPI    HA21316   1.694   4.246  10.826 -0.7208  0.5830  0.9734
  186SAPI    HB21317   1.689   4.068  10.873 -1.8196 -1.4927 -0.0320
  186SAPI    C221318   1.638   4.109  10.672  0.2963 -0.9111  0.8173
  186SAPI    HS21319   1.740   4.103  10.627 -0.4502  0.5648 -1.2087
  186SAPI   O2121320   1.557   4.198  10.595  0.2124  0.0482  0.4938
  186SAPI   C2121321   1.606   4.321  10.580  0.3282  0.2759  0.1583
  186SAPI   O2221322   1.703   4.367  10.629 -0.1966 -0.4073 -0.0039
  186SAPI   C2221323   1.523   4.400  10.494  0.0142 -0.2685  0.3061
  186SAPI   H2R21324   1.456   4.343  10.426 -1.6202  0.2977  1.3763
  186SAPI   H2S21325   1.466   4.462  10.567  0.4191  0.9453 -0.3784
  186SAPI    C321326   1.584   3.968  10.653 -0.1178 -0.0394 -0.2075
  186SAPI    HX21327   1.483   3.968  10.698  0.2772 -0.0173  0.6932
  186SAPI    HY21328   1.651   3.908  10.717  0.1311  2.1880  1.7611
  186SAPI   O3121329   1.590   3.925  10.510  0.2883  0.1724  0.5164
  186SAPI   C3121330   1.607   3.793  10.486  1.1560 -0.3813  0.4902
  186SAPI   O3221331   1.602   3.711  10.572 -0.7577  0.1658  0.0090
  186SAPI   C3221332   1.651   3.767  10.345  0.1493  0.4917  0.2920
  186SAPI   H2X21333   1.599   3.843  10.282 -0.6775 -1.0451 -0.9735
  186SAPI   H2Y21334   1.623   3.671  10.297  0.4059  1.3922 -1.8186
  186SAPI   C2321335   1.603   4.504  10.410 -0.1599 -0.0280  0.6729
  186SAPI   H3R21336   1.678   4.452  10.347 -0.4361  0.7993 -0.3660
  186SAPI   H3S21337   1.673   4.563  10.474 -0.3234 -0.1278  0.9458
  186SAPI   C2421338   1.534   4.599  10.318 -0.3412 -0.0712  0.3311
  186SAPI   H4R21339   1.462   4.552  10.249  0.3008 -0.6959  0.0736
  186SAPI   H4S21340   1.613   4.641  10.252 -2.3090  0.7964 -1.5909
  186SAPI   C2521341   1.453   4.711  10.385 -0.9727 -0.3542 -0.9808
  186SAPI   H5R21342   1.363   4.674  10.436 -0.9651 -0.7906 -1.2755
  186SAPI   C2621343   1.484   4.842  10.399 -0.7105 -0.4383 -0.0718
  186SAPI   H6R21344   1.415   4.909  10.453 -0.5192  0.4577 -0.9079
  186SAPI   C2721345   1.613   4.908  10.356  0.0655 -0.4126  0.0729
  186SAPI   H7R21346   1.653   4.868  10.261  3.0389 -1.2866  1.5698
  186SAPI   H7S21347   1.695   4.895  10.430  1.0458  0.6555 -0.7994
  186SAPI   C2821348   1.603   5.060  10.344  0.7170 -0.3738 -0.3484
  186SAPI   H8R21349   1.590   5.110  10.441  1.9222  0.0778 -0.4122
  186SAPI   C2921350   1.587   5.143  10.241  0.5901 -0.0704  0.4373
  186SAPI   H9R21351   1.573   5.251  10.251 -2.4557 -0.2693 -0.5533
  186SAPI  C21021352   1.583   5.087  10.095  0.0134 -0.0621  0.2985
  186SAPI  H10R21353   1.477   5.092  10.063 -0.5772  2.1074  2.2691
  186SAPI  H10S21354   1.605   4.980  10.077  0.7112  0.1609 -0.2163
  186SAPI  C21121355   1.684   5.154  10.005  0.4632  0.3203  0.1232
  186SAPI  H11R21356   1.792   5.148  10.028  0.4112  0.8617  0.5221
  186SAPI  C21221357   1.646   5.212   9.886  0.0247  0.3925  0.1173
  186SAPI  H12R21358   1.720   5.258   9.820 -1.1501  2.4709  0.1789
  186SAPI  C21321359   1.510   5.216   9.819 -0.6808 -0.5672 -0.1821
  186SAPI  H13R21360   1.485   5.313   9.772 -1.7485 -0.2473  0.9963
  186SAPI  H13S21361   1.434   5.206   9.899  0.0667  0.2299  0.6373
  186SAPI  C21421362   1.504   5.102   9.710  0.5538 -0.2959  0.0531
  186SAPI  H14R21363   1.465   5.007   9.750 -0.0487  0.4680  1.3230
  186SAPI  C21521364   1.553   5.106   9.584 -0.2103  0.3336  0.0834
  186SAPI  H15R21365   1.526   5.016   9.528 -2.5110  0.7146  0.4976
  186SAPI  C21621366   1.620   5.224   9.524 -0.1696 -0.0485 -0.3816
  186SAPI  H16R21367   1.722   5.201   9.486  0.1449 -1.2421  1.0729
  186SAPI  H16S21368   1.626   5.322   9.577 -0.9485  1.0011 -2.1309
  186SAPI  C21721369   1.539   5.260   9.402  0.1805  0.3589  0.4157
  186SAPI  H17R21370   1.429   5.266   9.419  0.0254  1.8272 -0.7902
  186SAPI  H17S21371   1.554   5.180   9.327  1.9804 -0.8159  1.9555
  186SAPI  C21821372   1.577   5.406   9.340  0.6568 -0.4379  0.5039
  186SAPI  H18R21373   1.684   5.418   9.312  0.5564 -1.0141 -0.1618
  186SAPI  H18S21374   1.552   5.468   9.428  0.8341 -0.7738  0.7907
  186SAPI  C21921375   1.487   5.450   9.224  0.6681 -0.7596 -0.0493
  186SAPI  H19R21376   1.380   5.437   9.251  1.1429 -0.6123  2.1655
  186SAPI  H19S21377   1.498   5.397   9.128 -0.4482 -0.0980 -0.5661
  186SAPI  C22021378   1.499   5.596   9.205  0.5504 -0.0912  0.1850
  186SAPI  H20R21379   1.606   5.617   9.185  0.5160 -0.5175 -0.4680
  186SAPI  H20S21380   1.460   5.655   9.291  0.4780 -1.9797  1.5131
  186SAPI  H20T21381   1.443   5.635   9.117  3.2682  0.9041 -1.2254
  186SAPI   C3321382   1.809   3.776  10.333  0.3537 -0.5974  0.2200
  186SAPI   H3X21383   1.842   3.711  10.417 -0.4250  0.4386  1.3678
  186SAPI   H3Y21384   1.836   3.882  10.350 -1.5441 -0.4301  2.8097
  186SAPI   C3421385   1.869   3.715  10.206  0.3207 -0.1647 -0.2507
  186SAPI   H4X21386   1.980   3.729  10.209  0.6912 -2.1821 -2.0982
  186SAPI   H4Y21387   1.822   3.765  10.119 -1.0675  1.1500  1.1896
  186SAPI   C3521388   1.845   3.566  10.169 -0.2614 -0.0892  0.5943
  186SAPI   H5X21389   1.744   3.532  10.199 -0.8533  2.2416  1.3919
  186SAPI   H5Y21390   1.917   3.504  10.227 -1.2142 -1.2381  0.5756
  186SAPI   C3621391   1.885   3.541  10.022 -0.4468  0.3212  0.0730
  186SAPI   H6X21392   1.986   3.585  10.012  0.8750 -2.5223 -0.3335
  186SAPI   H6Y21393   1.808   3.596   9.964 -1.3924 -1.6386 -0.6482
  186SAPI   C3721394   1.885   3.392   9.978  0.0593  0.0533 -0.0483
  186SAPI   H7X21395   1.792   3.344  10.015  0.9407 -2.6953 -1.1546
  186SAPI   H7Y21396   1.963   3.343  10.040 -0.2546  1.7848  1.8303
  186SAPI   C3821397   1.888   3.379   9.834 -0.0708 -0.1501  0.0131
  186SAPI   H8X21398   1.974   3.436   9.792 -1.0213  0.2180 -1.4881
  186SAPI   H8Y21399   1.800   3.426   9.785  0.2692  0.8293  0.3127
  186SAPI   C3921400   1.903   3.230   9.782 -0.3284 -0.8513 -0.1467
  186SAPI   H9X21401   1.821   3.168   9.825 -0.1648 -1.2985 -0.4726
  186SAPI   H9Y21402   1.998   3.199   9.831  0.0296 -1.3716 -1.1255
  186SAPI  C31021403   1.933   3.206   9.629 -0.4968  0.1417 -0.5448
  186SAPI  H10X21404   1.976   3.104   9.632  1.1526  0.8161  0.5421
  186SAPI  H10Y21405   2.017   3.276   9.607  1.2786 -2.2301 -1.7447
  186SAPI  C31121406   1.814   3.221   9.535  0.1357  0.6326  0.1759
  186SAPI  H11X21407   1.779   3.324   9.553 -1.0714  0.0912  1.0677
  186SAPI  H11Y21408   1.731   3.154   9.565 -1.1254  1.2459 -1.7985
  186SAPI  C31221409   1.850   3.204   9.386 -0.7571  0.5047 -0.0375
  186SAPI  H12X21410   1.858   3.096   9.363 -0.0897  0.5494 -0.0362
  186SAPI  H12Y21411   1.955   3.237   9.374 -0.7475  0.2620 -0.6641
  186SAPI  C31321412   1.772   3.295   9.298  0.4938  0.0891  0.0861
  186SAPI  H13X21413   1.799   3.399   9.323  1.0210  0.0789 -0.4182
  186SAPI  H13Y21414   1.664   3.289   9.325  0.4429 -0.5877 -0.2191
  186SAPI  C31421415   1.790   3.285   9.143 -0.1299  0.4759 -0.2815
  186SAPI  H14X21416   1.736   3.193   9.113 -0.0428  0.0249  0.8960
  186SAPI  H14Y21417   1.899   3.275   9.124  0.0493 -0.0215  0.9712
  186SAPI  C31521418   1.726   3.402   9.073 -0.0624 -0.0606  0.6717
  186SAPI  H15X21419   1.740   3.491   9.139  1.1418  0.2228  0.0744
  186SAPI  H15Y21420   1.619   3.373   9.073  0.4006 -1.8689  0.0303
  186SAPI  C31621421   1.765   3.406   8.921  0.1946  0.3381  0.0642
  186SAPI  H16X21422   1.752   3.298   8.899 -1.9281  0.1752  1.8506
  186SAPI  H16Y21423   1.868   3.445   8.907  0.3829  0.7070  2.2557
  186SAPI  C31721424   1.679   3.502   8.835  0.3792  0.3914  0.4849
  186SAPI  H17X21425   1.669   3.600   8.888  1.5561  0.6503  0.2644
  186SAPI  H17Y21426   1.573   3.470   8.842 -0.0814  1.2419 -1.7210
  186SAPI  C31821427   1.707   3.514   8.685 -0.1813 -0.2506 -0.0096
  186SAPI  H18X21428   1.777   3.434   8.653  0.7128  0.2830  0.5636
  186SAPI  H18Y21429   1.784   3.594   8.675 -0.6290 -0.0319 -2.1853
  186SAPI  H18Z21430   1.622   3.534   8.616  0.0968 -2.2780 -0.9993
  187SAPI   C1221431   3.577   4.884   6.424  0.0700 -0.1089 -0.1874
  187SAPI    H221432   3.561   4.976   6.483  1.8830  0.5350 -0.6653
  187SAPI    O221433   3.559   4.922   6.288  0.0720 -0.1127  0.2444
  187SAPI   HO221434   3.470   4.955   6.285  1.4379  4.1048 -2.8668
  187SAPI   C1321435   3.720   4.838   6.432 -0.0171  0.2466 -0.8785
  187SAPI    H321436   3.745   4.816   6.538  0.7833  0.5677 -0.9994
  187SAPI    O321437   3.806   4.945   6.406  0.9301 -0.7288  1.1637
  187SAPI   HO321438   3.862   4.974   6.479  3.0536 -0.9733 -0.2960
  187SAPI   C1421439   3.744   4.712   6.354 -0.6871 -0.2977  0.6810
  187SAPI    H421440   3.745   4.734   6.245 -0.3677 -1.8876  0.3373
  187SAPI    O421441   3.880   4.666   6.384 -0.0776 -0.1923 -0.0206
  187SAPI   HO421442   3.884   4.584   6.336  0.1804  0.5310 -1.2821
  187SAPI   C1521443   3.642   4.604   6.384  0.6553  0.5680  0.4490
  187SAPI    H521444   3.664   4.573   6.489  0.6332 -1.0743 -0.0054
  187SAPI    O521445   3.667   4.491   6.301 -0.4083  0.5984 -0.5937
  187SAPI   HO521446   3.723   4.440   6.359 -0.4031  2.9098  1.6375
  187SAPI   C1621447   3.499   4.646   6.383 -0.7337 -0.7002 -0.5501
  187SAPI    H621448   3.475   4.668   6.277  0.7542  1.0964 -0.5626
  187SAPI    O621449   3.419   4.543   6.434  0.2197  0.5003  0.0494
  187SAPI   HO621450   3.329   4.575   6.423 -0.0527 -0.8086 -2.0286
  187SAPI   C1121451   3.484   4.769   6.462  0.1546 -0.1351  0.3832
  187SAPI    H121452   3.507   4.744   6.568 -1.4662 -2.8225  0.1788
  187SAPI     P21453   3.279   4.893   6.571  0.0124  0.0357 -0.1059
  187SAPI   O1321454   3.142   4.935   6.516 -0.0902  0.3171  0.3090
  187SAPI   O1421455   3.363   4.993   6.638 -0.3124 -0.0739  0.2025
  187SAPI   O1221456   3.352   4.810   6.447  0.2585  0.1968  0.1404
  187SAPI   O1121457   3.257   4.779   6.674  0.4646  0.2071 -0.0979
  187SAPI    C121458   3.161   4.676   6.654  0.0553  0.0150  0.5563
  187SAPI    HA21459   3.071   4.709   6.597 -0.3747 -1.1124  0.5571
  187SAPI    HB21460   3.201   4.592   6.595 -0.0007 -0.3568  1.0413
  187SAPI    C221461   3.115   4.629   6.807 -0.0731  0.1570 -0.1457
  187SAPI    HS21462   3.045   4.544   6.794  0.9342 -0.5198 -1.3460
  187SAPI   O2121463   3.060   4.740   6.888  0.0576 -0.5030 -0.2339
  187SAPI   C2121464   2.943   4.784   6.839 -0.1011  0.9221 -0.5507
  187SAPI   O2221465   2.887   4.734   6.742  0.4366  0.3648  1.0573
  187SAPI   C2221466   2.901   4.921   6.910 -0.7145  0.1463  0.2553
  187SAPI   H2R21467   2.866   4.978   6.821  3.6527 -0.6172 -2.2560
  187SAPI   H2S21468   2.820   4.895   6.981 -0.3274 -2.8075 -0.2503
  187SAPI    C321469   3.236   4.566   6.873 -0.1714  0.2019  0.2268
  187SAPI    HX21470   3.315   4.644   6.870 -0.1685  0.2011  0.2927
  187SAPI    HY21471   3.255   4.469   6.823 -2.2084 -0.9750  1.5630
  187SAPI   O3121472   3.205   4.539   7.008 -0.5316 -0.5853  0.1465
  187SAPI   C3121473   3.310   4.485   7.078  0.6787 -0.3709  0.0901
  187SAPI   O3221474   3.422   4.465   7.032 -0.0374 -0.1922  0.1717
  187SAPI   C3221475   3.265   4.455   7.217 -0.1695 -0.9659 -0.2342
  187SAPI   H2X21476   3.213   4.359   7.233  0.1226 -1.5886 -2.6555
  187SAPI   H2Y21477   3.190   4.532   7.248 -0.0405 -1.3758  1.1961
  187SAPI   C2321478   3.022   4.999   6.972 -0.3443  0.0737  0.0650
  187SAPI   H3R21479   3.084   5.037   6.888  1.1251 -2.4143 -0.0659
  187SAPI   H3S21480   3.088   4.931   7.030 -1.5445 -2.1957 -1.1063
  187SAPI   C2421481   2.970   5.102   7.077 -0.4424  0.3164 -0.1390
  187SAPI   H4R21482   3.055   5.150   7.129  0.2563 -0.6513 -0.3586
  187SAPI   H4S21483   2.932   5.035   7.157  0.6813 -1.8445 -1.3299
  187SAPI   C2521484   2.866   5.202   7.029  1.0016  0.0835 -0.1722
  187SAPI   H5R21485   2.882   5.225   6.923 -1.1737  0.7296 -0.4036
  187SAPI   C2621486   2.766   5.262   7.096  0.0708 -1.2109  0.3819
  187SAPI   H6R21487   2.707   5.339   7.043  0.0733 -0.1971  1.8003
  187SAPI   C2721488   2.737   5.248   7.245 -0.3095  0.0189  0.6779
  187SAPI   H7R21489   2.647   5.311   7.259 -1.7193 -1.8139  0.3556
  187SAPI   H7S21490   2.812   5.301   7.307 -0.3800  0.7754  0.1267
  187SAPI   C2821491   2.710   5.111   7.299 -0.4123  0.0901 -0.6005
  187SAPI   H8R21492   2.805   5.055   7.302 -0.2235  0.3549 -1.3850
  187SAPI   C2921493   2.590   5.053   7.329  0.3970 -0.3151 -0.4808
  187SAPI   H9R21494   2.583   4.951   7.368 -0.8147 -0.7095 -1.6576
  187SAPI  C21021495   2.455   5.127   7.314  0.1271  0.1959  0.2549
  187SAPI  H10R21496   2.453   5.167   7.210  0.2188 -2.6025 -0.8938
  187SAPI  H10S21497   2.454   5.226   7.365 -0.5777 -0.2356  1.1062
  187SAPI  C21121498   2.327   5.066   7.357 -0.3328  0.2672  0.3863
  187SAPI  H11R21499   2.263   5.067   7.268 -2.4428 -1.1407  1.7971
  187SAPI  C21221500   2.284   5.026   7.478  0.1659 -0.0079  0.0125
  187SAPI  H12R21501   2.186   4.975   7.480  0.0134  0.2972  2.2714
  187SAPI  C21321502   2.358   5.040   7.607 -0.4687  0.4859  0.6333
  187SAPI  H13R21503   2.463   5.071   7.592  0.0410 -0.4983  1.9885
  187SAPI  H13S21504   2.367   4.944   7.662  1.8687  1.6623  2.4797
  187SAPI  C21421505   2.295   5.153   7.693  0.3142  0.1302  0.1121
  187SAPI  H14R21506   2.256   5.241   7.639  2.1271  1.5911  1.0667
  187SAPI  C21521507   2.268   5.153   7.827  0.1817 -0.1383  0.3801
  187SAPI  H15R21508   2.242   5.251   7.869  0.4353 -0.5183  1.4317
  187SAPI  C21621509   2.289   5.041   7.929  0.0961 -0.4879 -0.2596
  187SAPI  H16R21510   2.382   4.983   7.908  0.0460 -0.4404 -0.6078
  187SAPI  H16S21511   2.199   4.975   7.927 -0.4863  0.3095 -1.0560
  187SAPI  C21721512   2.291   5.111   8.069  0.0153  0.0793 -0.1418
  187SAPI  H17R21513   2.371   5.188   8.062 -0.8161  1.2876  2.4577
  187SAPI  H17S21514   2.311   5.032   8.144  0.0117 -0.7574 -1.0054
  187SAPI  C21821515   2.165   5.170   8.120  0.0406 -0.4675 -0.0927
  187SAPI  H18R21516   2.147   5.263   8.062 -0.3854  0.3575  1.3118
  187SAPI  H18S21517   2.174   5.199   8.227 -1.2253 -0.4442  0.0210
  187SAPI  C21921518   2.030   5.085   8.108 -0.4636 -0.2829  0.2387
  187SAPI  H19R21519   2.010   5.065   8.000 -1.8971  1.2653  0.1709
  187SAPI  H19S21520   1.943   5.146   8.142 -0.4636 -0.0446 -0.1840
  187SAPI  C22021521   2.026   4.956   8.193  0.5509 -0.6085 -0.0983
  187SAPI  H20R21522   2.109   4.888   8.167  0.6989 -0.5094  0.1094
  187SAPI  H20S21523   1.936   4.891   8.184 -0.0028  0.2132 -0.6556
  187SAPI  H20T21524   2.026   4.980   8.301  0.0978  0.6313 -0.3489
  187SAPI   C3321525   3.381   4.454   7.315 -0.2188  0.0807 -0.0998
  187SAPI   H3X21526   3.436   4.550   7.322 -0.2662  0.0012  1.9198
  187SAPI   H3Y21527   3.465   4.402   7.264  0.6589  2.2304 -0.9274
  187SAPI   C3421528   3.342   4.411   7.455  0.6723 -0.1517 -0.5240
  187SAPI   H4X21529   3.424   4.387   7.526 -1.0077  0.1373  1.6306
  187SAPI   H4Y21530   3.306   4.307   7.442  0.5309 -0.1099 -0.4727
  187SAPI   C3521531   3.230   4.496   7.532 -0.5637 -0.4480 -0.4744
  187SAPI   H5X21532   3.133   4.482   7.480 -0.5902  0.9525 -0.8208
  187SAPI   H5Y21533   3.250   4.605   7.523 -0.1470 -0.2790  1.9010
  187SAPI   C3621534   3.222   4.462   7.684 -0.1276  0.0349 -0.0016
  187SAPI   H6X21535   3.151   4.528   7.738 -0.4660  1.2082 -1.7873
  187SAPI   H6Y21536   3.319   4.476   7.737 -0.3070 -1.0202  0.6234
  187SAPI   C3721537   3.191   4.311   7.716 -0.3545 -0.3327  0.5825
  187SAPI   H7X21538   3.262   4.244   7.662  0.5918  0.4859  0.7869
  187SAPI   H7Y21539   3.092   4.295   7.668 -1.1177  2.3284  1.1241
  187SAPI   C3821540   3.172   4.294   7.864  0.6592 -0.9569  0.4497
  187SAPI   H8X21541   3.126   4.388   7.904  1.7241 -0.5971  0.8582
  187SAPI   H8Y21542   3.266   4.298   7.923 -0.3665  0.6733  2.1223
  187SAPI   C3921543   3.073   4.188   7.919 -0.5916  0.0135  0.4784
  187SAPI   H9X21544   3.105   4.089   7.881 -3.0129 -0.7454  0.2391
  187SAPI   H9Y21545   2.978   4.221   7.873 -0.2583 -0.3870 -0.5270
  187SAPI  C31021546   3.061   4.182   8.073  0.1615 -0.0186  1.1780
  187SAPI  H10X21547   3.161   4.207   8.113  0.5293  0.5385 -0.0572
  187SAPI  H10Y21548   3.045   4.079   8.112  0.4822  0.3157  2.2129
  187SAPI  C31121549   2.943   4.274   8.125  0.0164 -0.0121 -1.2829
  187SAPI  H11X21550   2.852   4.278   8.062 -0.2150  2.7490 -0.8855
  187SAPI  H11Y21551   2.987   4.375   8.136  0.6252 -0.4308  0.4391
  187SAPI  C31221552   2.883   4.231   8.261 -0.3107  0.3761  0.3238
  187SAPI  H12X21553   2.809   4.150   8.244 -0.0961  0.4092 -0.8227
  187SAPI  H12Y21554   2.831   4.312   8.317 -1.1095 -1.4314  2.3602
  187SAPI  C31321555   2.989   4.177   8.362  0.0632  1.2149 -0.6249
  187SAPI  H13X21556   3.063   4.260   8.364  1.1680  0.2491  0.5019
  187SAPI  H13Y21557   3.039   4.082   8.335  0.8847  1.7226 -0.9470
  187SAPI  C31421558   2.937   4.161   8.510  0.0089 -0.2214  0.6253
  187SAPI  H14X21559   2.873   4.071   8.508 -0.1940 -0.1259 -2.9956
  187SAPI  H14Y21560   2.880   4.253   8.535  0.8192  0.5971 -0.4055
  187SAPI  C31521561   3.050   4.149   8.612 -0.0388  0.0684 -0.2385
  187SAPI  H15X21562   3.129   4.220   8.580  0.9981 -0.2026  1.5879
  187SAPI  H15Y21563   3.092   4.048   8.593  0.2641  0.4047 -1.4442
  187SAPI  C31621564   3.014   4.173   8.765 -0.6356  0.0640 -0.0403
  187SAPI  H16X21565   2.949   4.087   8.789  0.5402 -1.3880 -1.7993
  187SAPI  H16Y21566   2.966   4.272   8.782 -1.2193 -0.2703  0.2992
  187SAPI  C31721567   3.137   4.160   8.854  0.0447 -0.0652  0.2283
  187SAPI  H17X21568   3.205   4.239   8.817 -1.2600  1.9462  1.9017
  187SAPI  H17Y21569   3.192   4.064   8.849  1.9758  0.8661  2.0220
  187SAPI  C31821570   3.099   4.177   9.004  0.6496  0.6534 -0.1137
  187SAPI  H18X21571   3.188   4.151   9.066  0.3533  0.8230  0.3926
  187SAPI  H18Y21572   3.007   4.124   9.039 -0.8848  3.3973  0.2693
  187SAPI  H18Z21573   3.085   4.283   9.034 -0.0008  0.2310  1.1733
  188SAPI   C1221574   2.936   1.873   6.421 -0.7040  0.2743  0.0321
  188SAPI    H221575   2.926   1.793   6.344 -0.2678  0.9819 -0.7748
  188SAPI    O221576   3.072   1.890   6.463 -0.2487  0.1989  0.0105
  188SAPI   HO221577   3.081   1.854   6.551  2.0537  0.2253 -0.1617
  188SAPI   C1321578   2.886   2.001   6.362  0.0774  0.1443  0.3976
  188SAPI    H321579   2.780   1.983   6.331  0.3725 -0.3853 -0.3238
  188SAPI    O321580   2.961   2.029   6.241  0.2125 -0.5343  0.3185
  188SAPI   HO321581   3.037   2.085   6.259 -1.6273  2.4751 -0.4805
  188SAPI   C1421582   2.890   2.118   6.460 -0.1961  1.1127  0.4211
  188SAPI    H421583   2.995   2.118   6.494  0.3727  1.4937 -1.2538
  188SAPI    O421584   2.869   2.245   6.395 -0.4069 -0.1763  0.0275
  188SAPI   HO421585   2.949   2.288   6.427 -0.6203  0.2783 -0.0473
  188SAPI   C1521586   2.802   2.089   6.582 -0.0792 -0.2437 -0.1605
  188SAPI    H521587   2.696   2.073   6.552 -1.1611  3.1624  1.4364
  188SAPI    O521588   2.801   2.195   6.677  0.4117 -0.2938  0.5593
  188SAPI   HO521589   2.732   2.166   6.736 -0.2114 -2.9381 -1.2709
  188SAPI   C1621590   2.851   1.960   6.634 -0.0014  0.6266  0.1313
  188SAPI    H621591   2.949   1.988   6.679  0.2811 -1.3034  0.8150
  188SAPI    O621592   2.772   1.921   6.747  0.4272  0.5210  0.1109
  188SAPI   HO621593   2.772   1.825   6.758  1.6693  0.4914 -0.0293
  188SAPI   C1121594   2.861   1.836   6.548 -0.2472 -0.2079  0.1723
  188SAPI    H121595   2.760   1.808   6.509  1.1220  0.2197 -4.2566
  188SAPI     P21596   2.920   1.579   6.534 -0.0004 -0.0043  0.0328
  188SAPI   O1321597   3.057   1.535   6.486  0.2929  0.0267  0.5181
  188SAPI   O1421598   2.811   1.574   6.432 -0.3177 -0.0397 -0.0896
  188SAPI   O1221599   2.917   1.723   6.613  0.2243 -0.2151  0.0569
  188SAPI   O1121600   2.884   1.481   6.651  0.6437 -0.4182  0.2529
  188SAPI    C121601   2.979   1.477   6.763 -0.4706 -0.4772  0.5941
  188SAPI    HA21602   3.049   1.392   6.751 -1.1372 -1.6900  3.9120
  188SAPI    HB21603   3.033   1.573   6.775 -1.6942  0.4157 -0.7936
  188SAPI    C221604   2.923   1.434   6.904 -0.1064  0.2816  0.5960
  188SAPI    HS21605   3.003   1.431   6.981  0.1187 -0.2532  0.3469
  188SAPI   O2121606   2.860   1.308   6.896 -0.2809  0.0038 -0.2063
  188SAPI   C2121607   2.933   1.199   6.868  1.0577  0.0780 -0.7619
  188SAPI   O2221608   3.055   1.193   6.862  0.2171  0.4815  0.5809
  188SAPI   C2221609   2.840   1.074   6.861 -0.0718  0.1488  0.3393
  188SAPI   H2R21610   2.736   1.106   6.882 -1.1813 -1.5401 -2.0928
  188SAPI   H2S21611   2.834   1.050   6.752  2.0192  1.1403 -0.0401
  188SAPI    C321612   2.823   1.540   6.960  0.0758 -0.1860  0.2869
  188SAPI    HX21613   2.769   1.498   7.048  0.5931  0.6878  1.0385
  188SAPI    HY21614   2.743   1.543   6.883 -0.0248 -2.4034  0.2393
  188SAPI   O3121615   2.884   1.667   7.008 -0.1510 -0.1348 -0.5563
  188SAPI   C3121616   2.804   1.772   7.027  0.0475  0.0050 -0.4656
  188SAPI   O3221617   2.687   1.774   6.993  0.3103 -0.3698  0.0735
  188SAPI   C3221618   2.873   1.881   7.099 -0.6644 -0.1546 -0.0488
  188SAPI   H2X21619   2.813   1.972   7.079  0.8390  0.3242 -2.7888
  188SAPI   H2Y21620   2.977   1.898   7.062  0.3059  1.1659  2.9527
  188SAPI   C2321621   2.901   0.945   6.924  0.2160 -0.9807 -0.2723
  188SAPI   H3R21622   3.002   0.915   6.887  2.2302  3.6376  0.7947
  188SAPI   H3S21623   2.830   0.864   6.897 -0.5509 -0.6843  0.7882
  188SAPI   C2421624   2.923   0.962   7.080  0.4533  0.5819  0.7968
  188SAPI   H4R21625   3.003   1.038   7.086  0.0739  1.0052  0.5792
  188SAPI   H4S21626   2.966   0.867   7.118  0.0862  0.3063  0.5387
  188SAPI   C2521627   2.806   1.010   7.161  0.5114 -0.7657 -0.6333
  188SAPI   H5R21628   2.708   0.981   7.120 -0.7286  2.5014 -0.3216
  188SAPI   C2621629   2.816   1.098   7.264  0.5850  0.2318  0.1779
  188SAPI   H6R21630   2.724   1.133   7.313  0.1119 -0.4329 -0.2264
  188SAPI   C2721631   2.937   1.151   7.334  0.4718 -0.3434  0.8664
  188SAPI   H7R21632   3.020   1.078   7.327  2.0394  1.5512 -2.5029
  188SAPI   H7S21633   2.934   1.170   7.444  0.0331  1.2880  0.6008
  188SAPI   C2821634   2.996   1.266   7.259 -0.2161  0.0608  0.0922
  188SAPI   H8R21635   3.031   1.254   7.155  0.1324 -2.1077  0.4266
  188SAPI   C2921636   3.027   1.393   7.307  0.4865  0.3645  0.5228
  188SAPI   H9R21637   3.047   1.477   7.238  0.6597  0.3910  0.6056
  188SAPI  C21021638   3.006   1.440   7.445 -0.2650 -0.0335  0.5426
  188SAPI  H10R21639   3.026   1.349   7.505  0.5525 -1.7215 -2.0969
  188SAPI  H10S21640   2.907   1.491   7.444  0.3785  1.2446  0.5467
  188SAPI  C21121641   3.113   1.548   7.477  0.2030  0.1004  1.2242
  188SAPI  H11R21642   3.091   1.639   7.419  1.5664 -1.6412 -2.3381
  188SAPI  C21221643   3.223   1.542   7.549 -0.3992  0.5300  0.4513
  188SAPI  H12R21644   3.294   1.626   7.555  1.0691 -0.7425  1.6976
  188SAPI  C21321645   3.266   1.420   7.629 -0.4378 -0.4508  0.7863
  188SAPI  H13R21646   3.194   1.382   7.704 -0.1106  0.0677  1.3758
  188SAPI  H13S21647   3.347   1.450   7.699 -0.5076  1.6142  0.0507
  188SAPI  C21421648   3.317   1.304   7.540  0.2986  0.6143  0.5521
  188SAPI  H14R21649   3.268   1.285   7.444 -0.1234 -0.2068  0.9166
  188SAPI  C21521650   3.419   1.221   7.569  0.0021  0.4074 -0.3559
  188SAPI  H15R21651   3.444   1.141   7.497  0.7823  0.8895 -0.6223
  188SAPI  C21621652   3.505   1.228   7.697  0.5922 -0.0829  1.2269
  188SAPI  H16R21653   3.549   1.329   7.704  2.4590 -0.7676  0.1707
  188SAPI  H16S21654   3.588   1.158   7.675 -0.6719 -0.9690 -1.1077
  188SAPI  C21721655   3.443   1.192   7.832 -0.4760  0.7792  0.0870
  188SAPI  H17R21656   3.361   1.261   7.859 -0.9363  0.2990 -0.0726
  188SAPI  H17S21657   3.512   1.199   7.919 -2.7754  2.5969  1.8683
  188SAPI  C21821658   3.380   1.045   7.827 -0.2987  0.1949 -1.0596
  188SAPI  H18R21659   3.455   0.967   7.801 -2.2212 -2.0659 -0.1307
  188SAPI  H18S21660   3.302   1.048   7.749 -3.9943  1.1178  2.3355
  188SAPI  C21921661   3.309   1.005   7.956 -0.5959  0.2626 -0.0798
  188SAPI  H19R21662   3.223   1.074   7.969 -0.8142  0.9595 -3.8874
  188SAPI  H19S21663   3.380   1.029   8.037  0.5336 -1.2607 -0.5592
  188SAPI  C22021664   3.259   0.857   7.950  0.9630 -0.3293  0.1672
  188SAPI  H20R21665   3.327   0.774   7.921  1.2231 -0.7593  1.8706
  188SAPI  H20S21666   3.162   0.836   7.901  0.2282  0.6163  1.1760
  188SAPI  H20T21667   3.238   0.845   8.059  0.4633 -0.4673  0.0555
  188SAPI   C3321668   2.875   1.854   7.252  0.0902  0.4936  0.4036
  188SAPI   H3X21669   2.924   1.757   7.276  0.4250  0.8456  1.1730
  188SAPI   H3Y21670   2.769   1.859   7.285 -0.1708  0.3823 -0.3883
  188SAPI   C3421671   2.949   1.955   7.328  0.7073  0.1021 -0.1533
  188SAPI   H4X21672   2.895   2.053   7.325  2.0928  0.8586 -2.4565
  188SAPI   H4Y21673   3.053   1.977   7.297  0.3837 -0.1848 -1.4813
  188SAPI   C3521674   2.969   1.908   7.470 -0.2332  0.3578 -0.1288
  188SAPI   H5X21675   3.022   1.811   7.484  0.4775  0.8719  0.9154
  188SAPI   H5Y21676   2.867   1.896   7.513 -0.7199 -1.7090 -1.7065
  188SAPI   C3621677   3.042   2.012   7.553 -0.7224 -0.4819 -0.3105
  188SAPI   H6X21678   2.999   2.114   7.549  2.4783  0.9587 -1.7968
  188SAPI   H6Y21679   3.136   2.038   7.499 -0.9282  0.4458 -0.2339
  188SAPI   C3721680   3.070   1.960   7.693 -0.3271 -0.5982  0.3661
  188SAPI   H7X21681   3.132   2.029   7.753 -1.1886 -0.0738  0.6670
  188SAPI   H7Y21682   3.108   1.855   7.695 -1.7665 -1.1320  2.0143
  188SAPI   C3821683   2.944   1.961   7.782  0.7120  0.4543  1.0149
  188SAPI   H8X21684   2.890   1.870   7.746  2.8696 -0.1722 -0.9027
  188SAPI   H8Y21685   2.895   2.057   7.759  0.7085  0.2896  0.2901
  188SAPI   C3921686   2.994   1.934   7.922 -0.1465  0.2779  0.3764
  188SAPI   H9X21687   3.024   2.035   7.956  1.8267 -0.6973  1.7416
  188SAPI   H9Y21688   3.079   1.863   7.926 -1.3661 -1.2337  0.2625
  188SAPI  C31021689   2.890   1.882   8.023  0.1660 -0.0914 -0.3435
  188SAPI  H10X21690   2.837   1.790   7.992  0.2353  0.0691 -0.9401
  188SAPI  H10Y21691   2.814   1.963   8.030  3.8975  3.7756 -0.6598
  188SAPI  C31121692   2.950   1.874   8.160  0.0448  0.0783  0.2902
  188SAPI  H11X21693   2.869   1.873   8.237  1.2632 -0.6765  1.6052
  188SAPI  H11Y21694   3.012   1.966   8.172 -1.7776  1.2073  1.7564
  188SAPI  C31221695   3.027   1.745   8.179 -0.4614  0.1644  0.2213
  188SAPI  H12X21696   3.098   1.761   8.263  1.3571 -1.8225 -0.8292
  188SAPI  H12Y21697   3.085   1.720   8.088  0.2727 -0.4814  0.8518
  188SAPI  C31321698   2.944   1.624   8.221  0.2362  0.7107 -0.6416
  188SAPI  H13X21699   2.852   1.634   8.159  0.3264  2.3501 -0.5441
  188SAPI  H13Y21700   2.909   1.634   8.326 -2.5850 -0.4559 -1.3724
  188SAPI  C31421701   3.014   1.494   8.181 -0.1360 -0.2508 -0.2663
  188SAPI  H14X21702   3.102   1.479   8.248 -0.2528  0.8598  0.1606
  188SAPI  H14Y21703   3.038   1.495   8.072 -1.4577 -2.9143 -0.6537
  188SAPI  C31521704   2.918   1.374   8.201  0.6070 -0.2527  0.4111
  188SAPI  H15X21705   2.822   1.390   8.148  1.2445  0.8933 -0.4197
  188SAPI  H15Y21706   2.890   1.363   8.308 -2.8956 -0.0439 -0.3624
  188SAPI  C31621707   2.975   1.241   8.148  0.1959 -0.3187 -0.2439
  188SAPI  H16X21708   3.078   1.248   8.190 -0.5657 -0.3019  1.7067
  188SAPI  H16Y21709   2.983   1.242   8.037 -0.7615  1.0405 -0.3213
  188SAPI  C31721710   2.897   1.121   8.195 -0.1407 -0.0278  0.4907
  188SAPI  H17X21711   2.795   1.127   8.151  0.0638  1.4009  0.1769
  188SAPI  H17Y21712   2.872   1.137   8.302 -2.8896  1.2012 -0.2339
  188SAPI  C31821713   2.960   0.991   8.169  0.6020  0.0861 -0.0760
  188SAPI  H18X21714   2.962   0.982   8.059  0.3724  1.9517 -0.2699
  188SAPI  H18Y21715   2.897   0.908   8.207 -0.1854  0.3491 -0.7799
  188SAPI  H18Z21716   3.063   0.973   8.206 -0.4286 -0.2925  2.8860
  189POPC     N21717   4.541   1.706  11.354  0.2446 -0.0449  0.6810
  189POPC   C1221718   4.510   1.732  11.206  0.2237  0.1494 -0.2018
  189POPC  H12A21719   4.480   1.640  11.159 -1.4821  0.9221 -0.7127
  189POPC  H12B21720   4.600   1.766  11.156  1.2383 -1.1969  0.6418
  189POPC   C1321721   4.627   1.577  11.371  0.2050 -0.0159 -0.5299
  189POPC  H13A21722   4.632   1.551  11.476  0.8931  1.7902 -0.0812
  189POPC  H13B21723   4.579   1.493  11.324 -0.6536  0.9979 -1.5313
  189POPC  H13C21724   4.726   1.590  11.331  0.4786 -3.2218 -1.1674
  189POPC   C1421725   4.620   1.822  11.419 -0.1433 -0.0676  0.7183
  189POPC  H14A21726   4.711   1.844  11.366 -0.9459  0.5469 -0.4326
  189POPC  H14B21727   4.560   1.911  11.414  0.5337  0.4180  1.1079
  189POPC  H14C21728   4.648   1.812  11.523  2.5518  0.9722  0.1587
  189POPC   C1521729   4.412   1.691  11.429 -0.5301  0.0118  0.1210
  189POPC  H15A21730   4.421   1.649  11.528 -0.4757  0.8818  0.4961
  189POPC  H15B21731   4.348   1.627  11.370 -0.0923  0.6782 -1.1108
  189POPC  H15C21732   4.362   1.786  11.438 -0.6446 -0.0811  0.4789
  189POPC   C1121733   4.400   1.844  11.173  0.1342 -0.2743 -0.2933
  189POPC  H11A21734   4.307   1.835  11.233  0.4688  2.1645  0.7369
  189POPC  H11B21735   4.370   1.815  11.070 -1.4777  1.7449 -0.4720
  189POPC     P21736   4.561   2.040  11.100 -0.1383  0.1362 -0.3116
  189POPC   O1321737   4.691   2.010  11.152 -0.1644 -0.2164 -0.1575
  189POPC   O1421738   4.531   2.182  11.085  0.5718 -0.4033  0.3900
  189POPC   O1221739   4.448   1.980  11.188  0.1430  0.3501  0.3719
  189POPC   O1121740   4.547   1.969  10.956 -0.3891 -0.0178  0.3029
  189POPC    C121741   4.666   1.948  10.879  0.2592 -0.0431  0.2383
  189POPC    HA21742   4.660   1.854  10.820  0.1232  1.7643 -2.8524
  189POPC    HB21743   4.754   1.923  10.942  1.2913 -2.7114 -2.0375
  189POPC    C221744   4.697   2.060  10.768 -0.0631 -0.0361 -0.4463
  189POPC    HS21745   4.658   2.156  10.809 -1.0143 -0.9676  0.9300
  189POPC   O2121746   4.628   2.021  10.643 -0.2599  0.4373  0.2221
  189POPC   C2121747   4.629   2.127  10.557  0.1060  0.1336  0.2112
  189POPC   O2221748   4.653   2.243  10.596  0.2474  0.7233 -0.1170
  189POPC   C2221749   4.589   2.092  10.409 -0.7092 -0.0596 -0.7559
  189POPC   H2R21750   4.528   2.176  10.371  0.1327  0.9461  0.0600
  189POPC   H2S21751   4.538   1.994  10.403  1.4909 -1.4100  0.7891
  189POPC    C321752   4.851   2.084  10.754  0.5351  0.7439  0.2282
  189POPC    HX21753   4.895   2.116  10.851 -0.5426 -2.5075  1.9341
  189POPC    HY21754   4.859   2.167  10.680  2.7605 -1.0968 -1.7739
  189POPC   O3121755   4.899   1.970  10.687  0.0082 -0.5519  0.0627
  189POPC   C3121756   5.026   1.926  10.730  0.1118  0.0725  0.6236
  189POPC   O3221757   5.096   1.978  10.816  0.0871 -0.0185  0.3933
  189POPC   C3221758   5.057   1.797  10.647  0.1479  0.3483 -0.2944
  189POPC   H2X21759   4.973   1.774  10.577  0.2595 -3.4866  0.6038
  189POPC   H2Y21760   5.068   1.723  10.729  1.4227  0.9365  0.0855
  189POPC   C2321761   4.706   2.094  10.312 -0.4191  0.0616  0.5251
  189POPC   H3R21762   4.773   2.182  10.331 -1.7416  1.3170 -0.3984
  189POPC   H3S21763   4.658   2.114  10.213 -1.8759 -1.9550  0.7850
  189POPC   C2421764   4.789   1.963  10.317  0.2053 -0.0392 -0.0977
  189POPC   H4R21765   4.817   1.927  10.419 -1.8211 -1.9608 -0.1500
  189POPC   H4S21766   4.884   1.975  10.260  1.0469 -1.5902  0.8931
  189POPC   C2521767   4.721   1.840  10.250 -0.0673  0.0067 -1.6231
  189POPC   H5R21768   4.645   1.803  10.323  0.1328  0.1067 -1.3617
  189POPC   H5S21769   4.796   1.759  10.257 -0.1550  0.0042 -0.6166
  189POPC   C2621770   4.658   1.867  10.112 -0.2183  0.3379 -0.2994
  189POPC   H6R21771   4.590   1.954  10.103 -0.9035 -0.3106 -2.0428
  189POPC   H6S21772   4.582   1.789  10.087 -0.4448  0.2622  0.5923
  189POPC   C2721773   4.765   1.904  10.008  0.2703  0.1115 -0.3577
  189POPC   H7R21774   4.824   1.814   9.980 -0.9835 -1.0683  0.6248
  189POPC   H7S21775   4.834   1.984  10.043  0.0330 -0.4507  1.5173
  189POPC   C2821776   4.693   1.966   9.882  0.2056 -0.8407  0.1632
  189POPC   H8R21777   4.771   1.983   9.804 -1.5122  0.1502 -1.4246
  189POPC   H8S21778   4.665   2.071   9.904 -2.5648 -0.6919 -3.2246
  189POPC   C2921779   4.567   1.898   9.830 -0.2668 -0.5566 -0.4662
  189POPC   H9121780   4.481   1.884   9.896  0.8626 -2.0797  0.7638
  189POPC  C21021781   4.545   1.857   9.702 -0.8075  0.6889 -0.7628
  189POPC  H10121782   4.456   1.797   9.677  0.1893 -0.6515 -1.2271
  189POPC  C21121783   4.634   1.879   9.586  0.0033 -0.1812 -0.2127
  189POPC  H11R21784   4.724   1.815   9.574 -0.4170 -0.4771 -1.9915
  189POPC  H11S21785   4.675   1.982   9.591 -0.0592 -0.0354 -2.0666
  189POPC  C21221786   4.549   1.874   9.460  0.4545 -0.2722  0.0568
  189POPC  H12R21787   4.476   1.957   9.451 -1.8553 -2.1505  0.6978
  189POPC  H12S21788   4.495   1.778   9.451 -1.8536  0.9001  0.6743
  189POPC  C21321789   4.630   1.881   9.329  0.0525  0.2352  0.0197
  189POPC  H13R21790   4.694   1.791   9.321  0.0506  0.2292  0.0786
  189POPC  H13S21791   4.682   1.976   9.351 -3.1447  2.0043  0.5121
  189POPC  C21421792   4.544   1.898   9.200  0.1329  0.3793 -0.1575
  189POPC  H14R21793   4.466   1.972   9.228  0.1730 -0.5448  2.8070
  189POPC  H14S21794   4.494   1.802   9.176  2.0878 -0.8431  0.3657
  189POPC  C21521795   4.619   1.946   9.073  0.1162 -0.8533 -0.0116
  189POPC  H15R21796   4.690   1.863   9.053  0.3398 -1.6386  3.3928
  189POPC  H15S21797   4.675   2.031   9.117  1.2099 -1.0473 -0.9819
  189POPC  C21621798   4.534   1.997   8.957  0.2021  0.7580  0.0302
  189POPC  H16R21799   4.476   2.083   8.997 -1.5730 -0.9781  1.4095
  189POPC  H16S21800   4.461   1.914   8.943  2.2460 -1.3545  1.1743
  189POPC  C21721801   4.618   2.017   8.835 -0.7642  0.2847  0.0360
  189POPC  H17R21802   4.655   1.915   8.813  1.7926  1.1990 -0.2738
  189POPC  H17S21803   4.706   2.083   8.854 -1.1202  0.9117 -0.4522
  189POPC  C21821804   4.535   2.083   8.725  0.5812 -0.4760 -0.3626
  189POPC  H18R21805   4.458   2.005   8.703  0.8609 -0.5358 -1.1599
  189POPC  H18S21806   4.596   2.091   8.632 -0.4663  2.4297 -0.8979
  189POPC  H18T21807   4.488   2.174   8.767  0.1718 -1.0760  0.5116
  189POPC   C3321808   5.197   1.820  10.595  0.2021  0.0391 -0.0809
  189POPC   H3X21809   5.251   1.723  10.595 -0.8783 -0.5702  0.0107
  189POPC   H3Y21810   5.260   1.880  10.664 -0.3576 -1.5526  1.9182
  189POPC   C3421811   5.191   1.885  10.454  0.3649  0.1715  0.6558
  189POPC   H4X21812   5.292   1.921  10.425  0.4367 -0.5687 -0.0442
  189POPC   H4Y21813   5.123   1.973  10.461  1.8560  1.4231 -0.0624
  189POPC   C3521814   5.146   1.792  10.340 -0.1042 -0.5441  0.1974
  189POPC   H5X21815   5.042   1.756  10.353  0.8153 -3.1162  1.0620
  189POPC   H5Y21816   5.206   1.699  10.352  1.7287  0.3262 -1.6155
  189POPC   C3621817   5.174   1.858  10.205  0.1091  0.3966  0.7644
  189POPC   H6X21818   5.285   1.869  10.200  0.0204  1.0427 -2.3248
  189POPC   H6Y21819   5.130   1.959  10.192  0.8827  0.7516  0.8160
  189POPC   C3721820   5.141   1.787  10.074 -0.0137  0.5768 -0.6604
  189POPC   H7X21821   5.031   1.797  10.064  0.1251  0.8798 -2.1573
  189POPC   H7Y21822   5.156   1.677  10.081 -3.3565 -0.0738 -1.7146
  189POPC   C3821823   5.193   1.840   9.944 -0.4993 -0.4197 -0.2765
  189POPC   H8X21824   5.297   1.877   9.962 -0.5814 -0.4321  0.2640
  189POPC   H8Y21825   5.146   1.934   9.911  1.3168  0.5894 -0.1165
  189POPC   C3921826   5.173   1.753   9.824  0.4039  0.5122  0.1465
  189POPC   H9X21827   5.068   1.718   9.813  1.6199 -3.2552 -0.9375
  189POPC   H9Y21828   5.219   1.654   9.843  0.0443  0.9035  3.9464
  189POPC  C31021829   5.223   1.819   9.696  0.4379 -0.2675 -0.0482
  189POPC  H10X21830   5.333   1.835   9.708  0.2380 -0.2746  2.4437
  189POPC  H10Y21831   5.190   1.925   9.698  2.1744  0.3821 -2.2545
  189POPC  C31121832   5.179   1.759   9.560 -0.1494 -0.0559 -0.0592
  189POPC  H11X21833   5.070   1.768   9.539 -1.0579 -1.0859  3.5218
  189POPC  H11Y21834   5.187   1.649   9.571  0.0465  0.1306  1.9106
  189POPC  C31221835   5.259   1.807   9.439  0.5008 -0.1327 -0.0238
  189POPC  H12X21836   5.360   1.765   9.459 -0.0327 -1.1909  0.5658
  189POPC  H12Y21837   5.268   1.918   9.434 -0.4403 -0.0803 -1.0043
  189POPC  C31321838   5.204   1.738   9.317 -0.2900 -0.1668 -0.2089
  189POPC  H13X21839   5.103   1.779   9.295 -0.4176  0.6531  1.6740
  189POPC  H13Y21840   5.193   1.629   9.335 -2.0362  0.1308  0.7839
  189POPC  C31421841   5.310   1.772   9.209  0.1676  0.2651 -0.1881
  189POPC  H14X21842   5.411   1.761   9.252  1.4227 -2.6659 -3.4051
  189POPC  H14Y21843   5.302   1.882   9.196  1.9380  0.5299  0.7763
  189POPC  C31521844   5.302   1.683   9.077 -0.1324 -0.2249 -0.4437
  189POPC  H15X21845   5.208   1.706   9.023  0.3856  0.7261 -0.9919
  189POPC  H15Y21846   5.296   1.577   9.108  0.0722 -0.1530 -0.1509
  189POPC  C31621847   5.410   1.713   8.968 -0.1377 -0.5678  0.1422
  189POPC  H16X21848   5.513   1.709   9.011 -0.3230  1.5700  0.9265
  189POPC  H16Y21849   5.390   1.815   8.928 -2.0701 -0.8432  0.3044
  189POPC  H16Z21850   5.407   1.639   8.885  1.2653  0.3990 -0.8166
  190POPC     N21851   1.551   1.202  11.175  0.4722  0.6128 -0.2030
  190POPC   C1221852   1.602   1.081  11.265 -1.0333 -0.6034  0.2108
  190POPC  H12A21853   1.605   1.119  11.366 -0.3091  2.2334 -0.7889
  190POPC  H12B21854   1.706   1.064  11.242 -0.8999  0.9943 -0.5060
  190POPC   C1321855   1.567   1.162  11.033  0.5538 -0.0932 -0.4764
  190POPC  H13A21856   1.673   1.155  11.015  1.1225  1.1358  1.9236
  190POPC  H13B21857   1.524   1.064  11.026  1.4926 -0.6782  1.4588
  190POPC  H13C21858   1.522   1.235  10.967 -1.3024 -1.9962 -1.4171
  190POPC   C1421859   1.410   1.231  11.211 -0.6042  0.1492 -0.1671
  190POPC  H14A21860   1.380   1.326  11.170 -0.2381 -0.4914 -2.0318
  190POPC  H14B21861   1.342   1.151  11.184 -1.4836  1.2376 -1.2703
  190POPC  H14C21862   1.400   1.248  11.317  2.4976 -2.9920  0.8201
  190POPC   C1521863   1.630   1.327  11.200 -0.2252 -0.8030 -0.0844
  190POPC  H15A21864   1.733   1.297  11.194  0.1072  0.2183  0.3538
  190POPC  H15B21865   1.603   1.365  11.298 -2.6903 -0.4412 -0.8214
  190POPC  H15C21866   1.609   1.398  11.121  0.1980 -1.4122 -0.7555
  190POPC   C1121867   1.519   0.948  11.250  0.4077 -0.0236  0.9103
  190POPC  H11A21868   1.413   0.982  11.254  0.2000 -0.6629  0.8593
  190POPC  H11B21869   1.519   0.880  11.337 -0.5411 -2.3456 -0.8084
  190POPC     P21870   1.666   0.784  11.128 -0.2024  0.0585  0.3610
  190POPC   O1321871   1.630   0.668  11.208  0.0021 -0.2803 -0.2964
  190POPC   O1421872   1.790   0.861  11.169 -0.4615 -0.1211 -0.8534
  190POPC   O1221873   1.546   0.883  11.125 -0.0090  0.0785  0.6237
  190POPC   O1121874   1.690   0.735  10.982 -0.3795  0.6303  0.0196
  190POPC    C121875   1.589   0.751  10.883  0.3140 -1.5598 -0.6074
  190POPC    HA21876   1.549   0.855  10.892  2.6539 -0.6389 -0.0016
  190POPC    HB21877   1.500   0.689  10.905 -1.3665 -0.0006 -2.5220
  190POPC    C221878   1.636   0.716  10.739  0.4608  0.1818  0.6474
  190POPC    HS21879   1.551   0.730  10.669 -0.5265  0.6208  1.9249
  190POPC   O2121880   1.697   0.586  10.733 -0.0372  0.0473  0.3037
  190POPC   C2121881   1.607   0.489  10.729  0.0130 -0.7136  0.2544
  190POPC   O2221882   1.484   0.499  10.734 -0.0340  0.0550 -0.2139
  190POPC   C2221883   1.682   0.359  10.718 -0.0685 -0.2258  0.5880
  190POPC   H2R21884   1.705   0.333  10.823 -0.1742  0.6196  0.8242
  190POPC   H2S21885   1.778   0.369  10.662 -1.0718  0.3751 -1.1213
  190POPC    C321886   1.741   0.817  10.698  0.2739 -0.3245 -0.1518
  190POPC    HX21887   1.829   0.810  10.766  0.8227 -0.9456 -0.9097
  190POPC    HY21888   1.704   0.920  10.719  0.1930 -0.5573  0.8911
  190POPC   O3121889   1.772   0.807  10.555 -0.2128 -0.1040 -0.7822
  190POPC   C3121890   1.801   0.921  10.495  0.3651 -0.6267  0.0722
  190POPC   O3221891   1.787   1.038  10.534  0.0580 -0.0525 -0.0896
  190POPC   C3221892   1.867   0.877  10.359  0.6516 -0.4505 -0.2803
  190POPC   H2X21893   1.809   0.791  10.318 -1.8790  1.1442 -0.2425
  190POPC   H2Y21894   1.971   0.848  10.385  1.1682  0.6338 -1.0461
  190POPC   C2321895   1.598   0.247  10.641  0.2087  0.1401  0.5839
  190POPC   H3R21896   1.489   0.248  10.660 -0.1038  1.3906 -1.1328
  190POPC   H3S21897   1.635   0.146  10.673 -0.7877 -0.4591 -0.1210
  190POPC   C2421898   1.611   0.260  10.487  0.3395  0.1082  0.1668
  190POPC   H4R21899   1.592   0.160  10.443  0.5901 -0.4916  1.3525
  190POPC   H4S21900   1.716   0.290  10.465  0.2755  3.8861  3.6590
  190POPC   C2521901   1.513   0.362  10.426 -0.6832 -0.7414 -0.5859
  190POPC   H5R21902   1.535   0.463  10.467 -0.0153 -2.0220  2.5385
  190POPC   H5S21903   1.409   0.344  10.460 -1.3484 -0.1308 -2.2220
  190POPC   C2621904   1.530   0.357  10.275 -0.1619 -0.2582  0.5695
  190POPC   H6R21905   1.507   0.261  10.224  0.7092  0.6116 -1.5921
  190POPC   H6S21906   1.635   0.382  10.252 -0.9291  0.9699 -1.9636
  190POPC   C2721907   1.449   0.471  10.205  0.5181 -0.1287  0.2383
  190POPC   H7R21908   1.484   0.569  10.243  0.2718  0.0684 -0.0319
  190POPC   H7S21909   1.341   0.458  10.227  0.3398 -0.2526 -0.6591
  190POPC   C2821910   1.473   0.469  10.047 -0.5813  0.5111  0.0487
  190POPC   H8R21911   1.390   0.523   9.998 -0.7244  0.7111  0.4991
  190POPC   H8S21912   1.477   0.358  10.035  0.1958  0.5416 -0.0458
  190POPC   C2921913   1.601   0.529   9.998 -0.2797  0.4502  0.1906
  190POPC   H9121914   1.688   0.527  10.066 -0.9405 -0.3233  1.0376
  190POPC  C21021915   1.628   0.581   9.870 -0.4746  0.0220  0.8043
  190POPC  H10121916   1.714   0.648   9.862 -1.2551  0.9065 -0.5805
  190POPC  C21121917   1.539   0.581   9.746  0.7407  0.0894 -0.5562
  190POPC  H11R21918   1.440   0.629   9.763  0.1139 -1.4085  0.2057
  190POPC  H11S21919   1.503   0.482   9.712  0.0309  0.4514 -0.8872
  190POPC  C21221920   1.604   0.634   9.624  0.5985  0.1421 -0.2325
  190POPC  H12R21921   1.679   0.558   9.593 -0.4965 -1.0137 -0.1467
  190POPC  H12S21922   1.657   0.730   9.639 -0.8705  0.6631  2.2499
  190POPC  C21321923   1.502   0.657   9.508 -0.0659  0.5805 -0.4394
  190POPC  H13R21924   1.439   0.748   9.515  1.9475  1.9289  1.2133
  190POPC  H13S21925   1.434   0.569   9.513  0.7508 -0.1277 -1.3399
  190POPC  C21421926   1.565   0.642   9.359  0.6089  0.0545  0.4336
  190POPC  H14R21927   1.477   0.652   9.292  0.6855 -0.9665  0.1646
  190POPC  H14S21928   1.612   0.541   9.356  0.2607 -0.1186  0.7919
  190POPC  C21521929   1.672   0.757   9.335  0.0549  0.4567  0.8803
  190POPC  H15R21930   1.740   0.766   9.422  2.1270  1.4372 -0.7349
  190POPC  H15S21931   1.623   0.855   9.315 -0.5057  0.5761  2.6421
  190POPC  C21621932   1.751   0.709   9.213  0.2797  0.0124 -0.3298
  190POPC  H16R21933   1.699   0.701   9.115  0.3162 -1.2816 -0.2562
  190POPC  H16S21934   1.788   0.606   9.233  1.9144  0.7639  0.6720
  190POPC  C21721935   1.869   0.785   9.186  0.0431 -0.6145 -0.8671
  190POPC  H17R21936   1.944   0.769   9.266  0.0874 -1.6026 -1.0914
  190POPC  H17S21937   1.857   0.895   9.186  0.2994 -0.5639  0.9625
  190POPC  C21821938   1.934   0.751   9.053  0.3846 -0.0321 -0.7728
  190POPC  H18R21939   1.947   0.642   9.036 -0.6027 -0.8754  3.1020
  190POPC  H18S21940   2.036   0.793   9.043  0.9658 -1.3667 -0.6767
  190POPC  H18T21941   1.861   0.779   8.974 -0.8514 -0.4379  0.2064
  190POPC   C3321942   1.856   0.979  10.243  0.8565  0.2094  0.5136
  190POPC   H3X21943   1.911   1.074  10.259 -0.3320  0.8780  0.7210
  190POPC   H3Y21944   1.747   0.994  10.226 -0.3950 -6.6596 -0.4915
  190POPC   C3421945   1.910   0.918  10.110 -0.3910  0.6080 -0.5956
  190POPC   H4X21946   1.851   0.832  10.072 -0.2117  0.2785 -0.1324
  190POPC   H4Y21947   2.016   0.893  10.132 -1.3866 -1.4299  2.5902
  190POPC   C3521948   1.903   1.020   9.990 -0.1898  0.0711  0.5771
  190POPC   H5X21949   1.937   1.114  10.040  1.1328 -0.2246  0.2895
  190POPC   H5Y21950   1.797   1.029   9.960 -0.4807 -0.7412  1.3418
  190POPC   C3621951   1.995   0.989   9.871  1.0564 -0.3072 -0.2621
  190POPC   H6X21952   2.071   0.918   9.911  1.2069 -0.6035 -1.0420
  190POPC   H6Y21953   2.050   1.079   9.836 -0.8263  1.0636  0.1640
  190POPC   C3721954   1.905   0.918   9.763 -0.3144 -0.0019  0.3696
  190POPC   H7X21955   1.815   0.980   9.746 -0.9655 -0.9361  0.3858
  190POPC   H7Y21956   1.876   0.818   9.802  0.4619 -0.6078 -0.5524
  190POPC   C3821957   1.982   0.889   9.625 -0.0093 -0.3672  0.0869
  190POPC   H8X21958   1.923   0.810   9.574  0.8028 -1.8854  1.3942
  190POPC   H8Y21959   2.085   0.854   9.646 -0.2244 -1.9568 -1.3137
  190POPC   C3921960   2.010   1.018   9.543  0.4017  0.1240 -0.0315
  190POPC   H9X21961   2.065   1.084   9.614 -0.0292  3.6587 -2.6583
  190POPC   H9Y21962   1.916   1.068   9.511  1.0790  2.1677  0.9855
  190POPC  C31021963   2.110   0.999   9.428 -0.3026 -0.2402  0.1879
  190POPC  H10X21964   2.070   0.929   9.352 -1.9735 -0.3562  1.1361
  190POPC  H10Y21965   2.204   0.956   9.470  1.4124  2.3165 -0.7859
  190POPC  C31121966   2.162   1.131   9.363  0.5734  0.0802  0.9744
  190POPC  H11X21967   2.239   1.181   9.427  0.1360  2.3890 -0.1771
  190POPC  H11Y21968   2.082   1.208   9.360  1.4906  1.0375  0.0093
  190POPC  C31221969   2.219   1.104   9.220 -0.2156  0.1998  0.2233
  190POPC  H12X21970   2.238   1.204   9.177 -2.4199  1.0391  1.0384
  190POPC  H12Y21971   2.148   1.052   9.153 -2.2716  2.6942  0.3264
  190POPC  C31321972   2.354   1.028   9.216  0.3498 -0.4170 -0.8789
  190POPC  H13X21973   2.340   0.922   9.244  0.5974 -0.4235 -0.7818
  190POPC  H13Y21974   2.423   1.081   9.284  0.7740 -2.3492  0.2690
  190POPC  C31421975   2.426   1.047   9.080 -0.1175  0.1612  0.1610
  190POPC  H14X21976   2.511   0.975   9.086 -0.2205 -0.2564 -2.1556
  190POPC  H14Y21977   2.470   1.149   9.073  0.0611  0.0772  0.0203
  190POPC  C31521978   2.349   1.014   8.950 -0.4748  0.3692 -0.5628
  190POPC  H15X21979   2.259   1.074   8.927 -1.1804 -0.7279 -0.7604
  190POPC  H15Y21980   2.307   0.912   8.961 -1.1778  0.6414 -0.7234
  190POPC  C31621981   2.446   1.012   8.830 -0.3308  0.6265  0.1966
  190POPC  H16X21982   2.532   0.945   8.850  1.6298  2.9140 -0.1827
  190POPC  H16Y21983   2.485   1.110   8.797 -0.1463  1.2223  2.0727
  190POPC  H16Z21984   2.393   0.958   8.748 -1.0266 -2.5339  2.5226
  191POPC     N21985   1.450   6.549   6.198 -0.6235 -0.6795  0.1993
  191POPC   C1221986   1.401   6.436   6.287 -0.1381  0.1319  0.6424
  191POPC  H12A21987   1.309   6.458   6.340 -0.3581 -0.6221  0.5901
  191POPC  H12B21988   1.472   6.414   6.365 -0.5444  0.8046  1.2172
  191POPC   C1321989   1.351   6.580   6.092  0.4117 -0.4533  0.4107
  191POPC  H13A21990   1.392   6.662   6.034  0.0509  1.6821  3.0026
  191POPC  H13B21991   1.320   6.495   6.033 -0.0484 -0.0110  0.0029
  191POPC  H13C21992   1.256   6.619   6.125 -0.0220  2.5788 -3.5854
  191POPC   C1421993   1.463   6.677   6.290 -0.2478 -0.0884  0.2402
  191POPC  H14A21994   1.367   6.715   6.323  0.2150  0.2623  1.2215
  191POPC  H14B21995   1.529   6.650   6.371  2.0876  0.0249 -1.5279
  191POPC  H14C21996   1.509   6.759   6.237 -0.5908  0.2702  0.4931
  191POPC   C1521997   1.580   6.516   6.131  0.3548  0.3197 -0.7643
  191POPC  H15A21998   1.569   6.420   6.083  0.1996  0.2217 -0.5346
  191POPC  H15B21999   1.656   6.504   6.206 -0.1463 -0.7032 -0.4028
  191POPC  H15C22000   1.615   6.590   6.060  1.1129  1.3120  0.6081
  191POPC   C1122001   1.373   6.292   6.221 -0.6073  0.1030  0.5486
  191POPC  H11A22002   1.373   6.210   6.297  0.8090  0.3272  0.8187
  191POPC  H11B22003   1.459   6.263   6.158 -2.3756  0.1435 -2.0455
  191POPC     P22004   1.113   6.304   6.194 -0.2747 -0.4315  0.2856
  191POPC   O1322005   1.040   6.178   6.170  0.6312  0.4589 -1.1084
  191POPC   O1422006   1.072   6.420   6.113  0.1009  0.1613  0.4292
  191POPC   O1222007   1.260   6.283   6.138  0.1162  0.7098  0.4897
  191POPC   O1122008   1.129   6.335   6.344 -0.3509  0.0181  0.4340
  191POPC    C122009   1.035   6.411   6.423 -0.7394  0.7519  0.8536
  191POPC    HA22010   0.936   6.362   6.439 -0.1816 -0.8504 -0.3093
  191POPC    HB22011   1.022   6.515   6.386  1.1686  1.3427  1.6902
  191POPC    C222012   1.089   6.403   6.568 -0.6865 -1.3399  0.2426
  191POPC    HS22013   1.183   6.461   6.553 -0.4584 -1.6041  0.6047
  191POPC   O2122014   1.109   6.271   6.622 -0.3884  0.2638 -0.1933
  191POPC   C2122015   1.234   6.229   6.655  0.7514  0.3258 -0.0984
  191POPC   O2222016   1.334   6.299   6.643 -0.3137  0.0631  0.5137
  191POPC   C2222017   1.230   6.076   6.685  0.1084  0.1971  0.2417
  191POPC   H2R22018   1.256   6.022   6.592  1.0098 -1.3186  1.3189
  191POPC   H2S22019   1.123   6.052   6.704 -0.3917  2.1713  0.1095
  191POPC    C322020   1.006   6.498   6.671  0.4497  0.6268 -0.2628
  191POPC    HX22021   0.899   6.473   6.652  0.1995 -0.8431  2.5129
  191POPC    HY22022   1.023   6.603   6.640 -1.2673  0.8612 -0.5396
  191POPC   O3122023   1.032   6.474   6.811 -0.0301  0.0324 -0.1786
  191POPC   C3122024   1.131   6.533   6.858  0.1276 -0.2279  0.7380
  191POPC   O3222025   1.219   6.593   6.796  0.6319  0.4429  0.5678
  191POPC   C3222026   1.120   6.524   7.017 -0.2686  0.3246  0.2399
  191POPC   H2X22027   1.122   6.414   7.031 -0.8393  0.0558 -1.4661
  191POPC   H2Y22028   1.031   6.581   7.051 -0.7456 -0.3540  0.1321
  191POPC   C2322029   1.316   6.027   6.799  0.0243  0.6707 -0.0040
  191POPC   H3R22030   1.421   6.061   6.786 -0.2383  1.4250 -0.2302
  191POPC   H3S22031   1.303   5.917   6.809 -1.2658  0.8482  0.5341
  191POPC   C2422032   1.259   6.072   6.933  0.1762 -0.0068  0.4330
  191POPC   H4R22033   1.149   6.054   6.927  0.1175  0.5442 -0.3191
  191POPC   H4S22034   1.270   6.182   6.939  2.5409 -0.0412 -1.6459
  191POPC   C2522035   1.313   6.005   7.054 -0.1535  0.0083 -0.2761
  191POPC   H5R22036   1.422   6.023   7.048 -0.4596  3.0759  1.1477
  191POPC   H5S22037   1.273   5.903   7.069 -0.1200 -0.2407 -1.7398
  191POPC   C2622038   1.253   6.072   7.178  0.9112 -0.7486 -0.1925
  191POPC   H6R22039   1.146   6.044   7.186  0.0554  2.5430  2.0081
  191POPC   H6S22040   1.251   6.182   7.162 -1.7019 -0.6321  0.5380
  191POPC   C2722041   1.324   6.038   7.312  0.1024  0.6138  0.8260
  191POPC   H7R22042   1.434   6.052   7.305  0.1622 -0.4208 -1.0532
  191POPC   H7S22043   1.309   5.930   7.337 -0.0424  0.8126  1.6513
  191POPC   C2822044   1.268   6.117   7.436  0.3272 -0.4870  0.4709
  191POPC   H8R22045   1.157   6.126   7.427  0.5074 -0.0529 -2.0759
  191POPC   H8S22046   1.304   6.221   7.419 -0.5454 -0.4923 -1.7901
  191POPC   C2922047   1.328   6.045   7.554  0.1634  0.2296 -0.4739
  191POPC   H9122048   1.438   6.035   7.556  0.4037  0.6162 -4.2360
  191POPC  C21022049   1.265   6.021   7.666 -0.1535  0.4168 -0.3313
  191POPC  H10122050   1.317   5.963   7.744  1.7947 -1.2788 -2.7561
  191POPC  C21122051   1.117   6.053   7.704 -0.2929  0.0247 -0.0185
  191POPC  H11R22052   1.050   5.997   7.636  0.8953 -1.3664 -0.0923
  191POPC  H11S22053   1.099   6.160   7.680 -0.3901 -0.6781 -3.6350
  191POPC  C21222054   1.078   6.025   7.845  0.9074  0.0823  0.3991
  191POPC  H12R22055   1.080   5.916   7.863  1.1862  0.2487  1.4547
  191POPC  H12S22056   0.974   6.062   7.862  1.1253 -0.1737  2.6664
  191POPC  C21322057   1.154   6.107   7.944  0.1275  0.2314  0.8175
  191POPC  H13R22058   1.146   6.216   7.930 -1.4496 -0.0580 -0.8691
  191POPC  H13S22059   1.260   6.073   7.939 -0.4423 -1.4032 -1.5611
  191POPC  C21422060   1.112   6.081   8.092 -0.2258  0.8912 -0.5021
  191POPC  H14R22061   1.120   5.975   8.125  0.4112  1.5715  1.6659
  191POPC  H14S22062   1.005   6.107   8.100 -0.6570 -1.2418  2.3021
  191POPC  C21522063   1.184   6.176   8.181  0.4838  0.6512 -0.1852
  191POPC  H15R22064   1.175   6.275   8.132  1.5895  0.0176 -1.7411
  191POPC  H15S22065   1.291   6.144   8.182  0.3921  0.1416 -2.1357
  191POPC  C21622066   1.120   6.185   8.327  0.1185  0.2520 -0.4063
  191POPC  H16R22067   1.162   6.278   8.370  2.4647 -0.6738 -0.5022
  191POPC  H16S22068   1.156   6.093   8.379 -2.2653  0.7316  2.3076
  191POPC  C21722069   0.970   6.206   8.339 -0.1558  0.9434 -0.7233
  191POPC  H17R22070   0.926   6.236   8.241 -2.3683 -1.2299 -0.4985
  191POPC  H17S22071   0.956   6.287   8.413  1.4765 -0.9973  1.8938
  191POPC  C21822072   0.904   6.083   8.399  0.2401  0.3518  1.0293
  191POPC  H18R22073   0.946   6.057   8.499  1.7520  2.2149  0.9324
  191POPC  H18S22074   0.925   5.995   8.334  1.3438  0.0571  1.7614
  191POPC  H18T22075   0.793   6.093   8.400  0.2219  0.2621  2.5403
  191POPC   C3322076   1.250   6.580   7.077 -0.0014 -0.3272 -0.3422
  191POPC   H3X22077   1.287   6.675   7.034 -1.5084  0.7372  0.6083
  191POPC   H3Y22078   1.333   6.507   7.072 -0.2257 -0.5494 -0.9214
  191POPC   C3422079   1.217   6.612   7.227 -0.1284 -0.7959 -0.1300
  191POPC   H4X22080   1.153   6.703   7.225  0.7479  0.0108  3.0230
  191POPC   H4Y22081   1.312   6.643   7.274 -1.6314  1.0166  1.9052
  191POPC   C3522082   1.162   6.504   7.320 -0.0992 -0.6126 -0.3151
  191POPC   H5X22083   1.231   6.418   7.329  1.3616  0.5632  0.2416
  191POPC   H5Y22084   1.068   6.460   7.280 -0.3475 -0.4737  0.1068
  191POPC   C3622085   1.150   6.546   7.467  0.0423 -0.1782  0.1854
  191POPC   H6X22086   1.100   6.644   7.476 -1.4961 -0.9459  0.2970
  191POPC   H6Y22087   1.254   6.546   7.506  1.4552 -0.9338 -3.2415
  191POPC   C3722088   1.074   6.443   7.544 -0.8682 -0.1205 -0.1560
  191POPC   H7X22089   1.132   6.352   7.517 -2.0114 -0.2124 -2.6589
  191POPC   H7Y22090   0.972   6.433   7.500  0.0150 -0.9962 -2.1697
  191POPC   C3822091   1.088   6.472   7.698 -0.1837  0.2202  0.6307
  191POPC   H8X22092   1.194   6.480   7.730  0.7330  0.2787 -2.2015
  191POPC   H8Y22093   1.044   6.379   7.742  0.2407 -0.0595  0.4684
  191POPC   C3922094   1.008   6.590   7.755 -0.4599 -0.2931  0.0893
  191POPC   H9X22095   0.904   6.576   7.719 -0.4883 -0.7936  0.3524
  191POPC   H9Y22096   1.043   6.686   7.711 -1.1434 -0.1378 -0.1177
  191POPC  C31022097   1.005   6.610   7.908  0.1713 -0.1545  0.2656
  191POPC  H10X22098   1.095   6.652   7.957 -0.5576 -0.8893  2.3624
  191POPC  H10Y22099   0.990   6.511   7.957  0.9974 -1.0141 -1.1686
  191POPC  C31122100   0.884   6.694   7.956  0.3192  0.1904  0.1078
  191POPC  H11X22101   0.808   6.652   7.888  1.2047 -0.9762 -0.1968
  191POPC  H11Y22102   0.900   6.804   7.948 -0.1675  0.4875  2.3140
  191POPC  C31222103   0.866   6.652   8.102  0.3874  0.3049 -0.1707
  191POPC  H12X22104   0.960   6.675   8.156  0.9660  0.3383 -1.1864
  191POPC  H12Y22105   0.847   6.542   8.102  1.4405  0.1129 -0.6226
  191POPC  C31322106   0.754   6.724   8.178 -0.5890 -0.5004  0.5487
  191POPC  H13X22107   0.656   6.694   8.135 -0.0462 -0.1520 -0.9935
  191POPC  H13Y22108   0.748   6.834   8.161 -3.1089 -0.8480 -1.4367
  191POPC  C31422109   0.774   6.711   8.331 -0.4338  0.4640 -0.1684
  191POPC  H14X22110   0.871   6.762   8.347 -1.1281  1.4060  1.3135
  191POPC  H14Y22111   0.778   6.604   8.361  0.3799  1.0794  2.1156
  191POPC  C31522112   0.670   6.774   8.422 -0.1130  0.0478 -0.2329
  191POPC  H15X22113   0.569   6.743   8.389  0.1700 -1.1456 -0.0021
  191POPC  H15Y22114   0.658   6.885   8.413  1.0061  0.0971 -1.2937
  191POPC  C31622115   0.696   6.742   8.569  0.2173 -0.2953 -0.0231
  191POPC  H16X22116   0.806   6.755   8.575  0.7330 -3.6969  0.1632
  191POPC  H16Y22117   0.662   6.638   8.586 -0.1373 -0.3143 -0.7975
  191POPC  H16Z22118   0.641   6.809   8.639 -1.9176  0.1107 -1.9868
  192POPC     N22119   6.225   1.992   6.317  0.2670  0.0867  0.2033
  192POPC   C1222120   6.071   2.011   6.332  0.2290  0.6702 -0.1962
  192POPC  H12A22121   6.029   1.916   6.300 -0.8395  0.9137  0.4302
  192POPC  H12B22122   6.037   2.076   6.253  0.7849  0.7491 -0.3765
  192POPC   C1322123   6.260   1.950   6.173  0.9288  0.4526  0.3898
  192POPC  H13A22124   6.214   1.854   6.154  1.1726  0.8603 -2.8285
  192POPC  H13B22125   6.222   2.023   6.103  0.3310 -0.0208  0.2150
  192POPC  H13C22126   6.363   1.937   6.143  0.3462  0.8592 -1.9888
  192POPC   C1422127   6.304   2.116   6.339 -0.3321  0.2935 -0.6291
  192POPC  H14A22128   6.262   2.172   6.421  0.4549  0.5360 -0.3864
  192POPC  H14B22129   6.405   2.083   6.359 -1.2391 -1.7952  0.9766
  192POPC  H14C22130   6.309   2.187   6.259  0.5049  1.5477  0.4913
  192POPC   C1522131   6.271   1.894   6.414  1.1218 -0.5500 -0.1475
  192POPC  H15A22132   6.275   1.924   6.517  0.0313  0.3882 -0.3565
  192POPC  H15B22133   6.368   1.859   6.381  1.3035  1.8354 -2.4933
  192POPC  H15C22134   6.200   1.814   6.409 -0.9305  1.1392  0.6057
  192POPC   C1122135   6.024   2.043   6.473  0.3763  0.1644 -0.3018
  192POPC  H11A22136   6.070   1.967   6.539 -1.4885 -3.4938 -2.9113
  192POPC  H11B22137   5.915   2.030   6.493 -0.2150  0.0262 -3.1398
  192POPC     P22138   5.978   2.301   6.471 -0.2425 -0.3876  0.1048
  192POPC   O1322139   5.934   2.274   6.330  0.1631 -0.3031  0.6729
  192POPC   O1422140   6.043   2.426   6.505 -0.3389 -0.3585 -0.0488
  192POPC   O1222141   6.069   2.177   6.509  0.6248  0.9148  0.2835
  192POPC   O1122142   5.845   2.292   6.561 -0.0676 -0.5126 -0.1946
  192POPC    C122143   5.883   2.319   6.699  0.4291 -0.2109 -0.4109
  192POPC    HA22144   5.899   2.428   6.714 -2.7696  0.2075  0.7714
  192POPC    HB22145   5.973   2.262   6.731  0.2543 -0.0309  0.4268
  192POPC    C222146   5.764   2.286   6.795  0.1079  0.1021  0.5467
  192POPC    HS22147   5.695   2.372   6.783  0.9029  0.4821 -1.7482
  192POPC   O2122148   5.820   2.279   6.927 -0.1188 -0.6245  0.0569
  192POPC   C2122149   5.758   2.356   7.022 -0.7571  0.1079  0.6727
  192POPC   O2222150   5.669   2.438   7.002  0.8279  0.5928  0.0936
  192POPC   C2222151   5.804   2.296   7.154 -0.8054  0.8735 -0.5089
  192POPC   H2R22152   5.910   2.325   7.172 -0.3745 -1.0831  0.3807
  192POPC   H2S22153   5.796   2.185   7.153  0.7099  0.6687  1.7640
  192POPC    C322154   5.710   2.139   6.767  0.1329 -0.3834  0.2823
  192POPC    HX22155   5.796   2.069   6.758  0.3295 -0.1087 -0.0170
  192POPC    HY22156   5.664   2.138   6.665  0.2662  0.4058  0.2048
  192POPC   O3122157   5.607   2.086   6.856  0.1651 -0.1865  0.4333
  192POPC   C3122158   5.617   1.960   6.881  0.2355  1.6904 -0.0511
  192POPC   O3222159   5.694   1.875   6.841 -0.4280 -0.1460 -0.6366
  192POPC   C3222160   5.522   1.917   6.994  0.1160 -0.1811 -0.1417
  192POPC   H2X22161   5.541   1.809   7.017 -3.1482 -0.6580  0.7442
  192POPC   H2Y22162   5.417   1.916   6.960 -0.2879 -1.1509  1.0662
  192POPC   C2322163   5.725   2.352   7.274 -0.4411 -0.2584  0.2012
  192POPC   H3R22164   5.754   2.295   7.366  2.3252 -0.5265 -0.7385
  192POPC   H3S22165   5.617   2.338   7.253 -0.3920 -1.0898  0.4409
  192POPC   C2422166   5.765   2.494   7.303  1.2994 -0.5504 -0.0806
  192POPC   H4R22167   5.711   2.556   7.228 -2.3301 -3.0028  0.2228
  192POPC   H4S22168   5.875   2.510   7.300  1.4281 -1.1783  0.8358
  192POPC   C2522169   5.723   2.547   7.442 -0.7021  0.1126  0.4582
  192POPC   H5R22170   5.612   2.546   7.443 -0.7138  0.8654  1.6644
  192POPC   H5S22171   5.749   2.654   7.457 -4.2074  0.7547  3.4272
  192POPC   C2622172   5.785   2.488   7.576  0.1995 -0.1375  0.2581
  192POPC   H6R22173   5.896   2.496   7.578  0.1120  1.3079  1.1872
  192POPC   H6S22174   5.758   2.381   7.577 -1.1033  0.1535 -0.7330
  192POPC   C2722175   5.717   2.542   7.701  0.0647 -0.8706 -0.1930
  192POPC   H7R22176   5.719   2.460   7.775 -1.4287 -0.2252  0.5944
  192POPC   H7S22177   5.609   2.564   7.683 -0.0392 -2.1496 -1.2729
  192POPC   C2822178   5.788   2.662   7.764 -0.7049 -0.2689 -0.4260
  192POPC   H8R22179   5.734   2.700   7.854 -1.9512 -1.3166 -0.6912
  192POPC   H8S22180   5.802   2.741   7.688 -2.4186  0.0856 -0.4159
  192POPC   C2922181   5.926   2.617   7.816  0.2402  0.0779  0.0766
  192POPC   H9122182   6.015   2.641   7.756  1.5080 -1.4224  1.2609
  192POPC  C21022183   5.945   2.543   7.928 -0.5384 -0.1269  0.0049
  192POPC  H10122184   6.049   2.527   7.959 -0.2511  0.4142 -0.6657
  192POPC  C21122185   5.848   2.484   8.022 -0.3571 -0.2640  0.7492
  192POPC  H11R22186   5.890   2.392   8.068  2.7183  1.0052  0.7444
  192POPC  H11S22187   5.751   2.454   7.977 -0.1039  0.5748 -0.4164
  192POPC  C21222188   5.827   2.582   8.135 -0.0147 -0.0682  0.2974
  192POPC  H12R22189   5.802   2.676   8.082  1.7131  0.3194  0.1165
  192POPC  H12S22190   5.917   2.601   8.198  0.8355 -0.3628 -0.7997
  192POPC  C21322191   5.711   2.547   8.231  0.3696  0.0412  0.0663
  192POPC  H13R22192   5.740   2.456   8.287 -3.1382 -1.3334 -0.1259
  192POPC  H13S22193   5.625   2.514   8.169  0.5914  0.1627 -0.3143
  192POPC  C21422194   5.670   2.660   8.329  0.1473 -0.1667  0.0584
  192POPC  H14R22195   5.754   2.673   8.401  0.6051  0.7670 -0.6184
  192POPC  H14S22196   5.578   2.627   8.381  0.3526  0.4132  0.8044
  192POPC  C21522197   5.635   2.796   8.254 -0.5694 -0.3165  0.0877
  192POPC  H15R22198   5.578   2.781   8.160 -0.5839  4.0679 -0.8135
  192POPC  H15S22199   5.723   2.851   8.212 -2.3131  2.3005 -0.3515
  192POPC  C21622200   5.544   2.891   8.338 -0.3499  0.0845 -0.6750
  192POPC  H16R22201   5.447   2.838   8.346 -0.7803  0.7439 -1.4137
  192POPC  H16S22202   5.518   2.987   8.288 -0.4517  1.6079  2.1418
  192POPC  C21722203   5.607   2.931   8.469 -0.0829 -0.0609 -0.0808
  192POPC  H17R22204   5.712   2.959   8.449 -0.0138 -1.4770 -1.9763
  192POPC  H17S22205   5.615   2.844   8.538 -1.1512 -0.6082 -0.6116
  192POPC  C21822206   5.528   3.048   8.534 -0.5219  0.8793 -0.3928
  192POPC  H18R22207   5.504   3.129   8.463  2.0928  2.2556  0.1724
  192POPC  H18S22208   5.594   3.082   8.616  2.2895 -0.8108 -1.8073
  192POPC  H18T22209   5.425   3.020   8.567 -0.3556  1.5944  0.8085
  192POPC   C3322210   5.551   2.007   7.117  0.1131 -0.7566  0.7924
  192POPC   H3X22211   5.519   2.111   7.092  0.4264 -0.7385  0.4665
  192POPC   H3Y22212   5.662   2.010   7.123  0.2027  2.5116 -0.6937
  192POPC   C3422213   5.488   1.964   7.245 -0.0006  0.2562 -1.1290
  192POPC   H4X22214   5.524   1.860   7.261 -0.4349  0.1869 -0.5488
  192POPC   H4Y22215   5.379   1.945   7.236  0.2771 -1.5379 -0.9479
  192POPC   C3522216   5.515   2.063   7.354  0.5647 -0.4135 -0.3455
  192POPC   H5X22217   5.441   2.145   7.343  0.2726 -0.9718 -3.7557
  192POPC   H5Y22218   5.613   2.115   7.342  0.1565  0.9073  1.5911
  192POPC   C3622219   5.526   2.014   7.498  0.5418  0.1180 -0.1710
  192POPC   H6X22220   5.612   1.943   7.495 -0.8844 -1.6820 -1.9550
  192POPC   H6Y22221   5.439   1.951   7.526  1.3220 -2.0443 -2.2167
  192POPC   C3722222   5.546   2.123   7.603  0.0839 -0.4298 -1.0121
  192POPC   H7X22223   5.462   2.195   7.610 -0.3004 -0.9451 -0.1818
  192POPC   H7Y22224   5.640   2.174   7.572 -1.0683  2.2180 -0.4284
  192POPC   C3822225   5.550   2.066   7.747  0.0134  0.0024  0.0234
  192POPC   H8X22226   5.644   2.007   7.759 -0.5287 -1.8837 -3.6766
  192POPC   H8Y22227   5.474   1.985   7.746 -1.1308  1.0581 -1.0315
  192POPC   C3922228   5.529   2.168   7.856  0.4920  0.7858  0.2756
  192POPC   H9X22229   5.426   2.207   7.843 -0.1348 -1.0767 -0.7265
  192POPC   H9Y22230   5.599   2.254   7.853 -0.4864  1.7536  2.8920
  192POPC  C31022231   5.542   2.092   7.993 -0.6609 -0.4495  0.0934
  192POPC  H10X22232   5.646   2.058   8.012 -1.6898 -2.3870  3.0228
  192POPC  H10Y22233   5.478   2.002   7.983 -4.0712  1.7920  0.0592
  192POPC  C31122234   5.501   2.180   8.117 -0.0267  0.2796 -0.2956
  192POPC  H11X22235   5.398   2.218   8.103 -0.1037 -0.2378 -1.2059
  192POPC  H11Y22236   5.582   2.256   8.129  2.9525 -2.7874  0.8568
  192POPC  C31222237   5.506   2.092   8.247 -0.2441  0.3524  0.0951
  192POPC  H12X22238   5.612   2.078   8.276  0.8425  2.4552 -2.4313
  192POPC  H12Y22239   5.461   1.993   8.226  0.6036 -1.0802  4.1863
  192POPC  C31322240   5.427   2.156   8.363 -0.1404 -0.6783  1.2830
  192POPC  H13X22241   5.318   2.165   8.346 -0.0688 -0.1125  1.1076
  192POPC  H13Y22242   5.466   2.258   8.387  0.8123  0.5041 -4.1344
  192POPC  C31422243   5.443   2.075   8.493 -0.1418 -0.6389 -0.6557
  192POPC  H14X22244   5.552   2.060   8.509  0.0072  0.0505 -0.9960
  192POPC  H14Y22245   5.407   1.974   8.462 -1.3732 -0.7810  1.0892
  192POPC  C31522246   5.366   2.134   8.619  0.1379  0.8847 -0.6693
  192POPC  H15X22247   5.257   2.133   8.597  0.1805  0.2627 -0.8580
  192POPC  H15Y22248   5.399   2.233   8.657 -2.2905  1.4403  0.1744
  192POPC  C31622249   5.369   2.039   8.750 -1.2563  0.4565  0.4644
  192POPC  H16X22250   5.345   1.937   8.715 -1.8530  0.4520  0.8669
  192POPC  H16Y22251   5.296   2.053   8.833 -0.0563  1.9421  1.3150
  192POPC  H16Z22252   5.471   2.028   8.790 -0.5237 -0.9467 -1.6197
  193SOD    SOD22253   5.677   2.078   6.317 -0.6863  0.3583 -0.4577
  194SOD    SOD22254   5.434   3.948   1.506 -0.6477  0.2300  0.0998
  195SOD    SOD22255   0.375   0.328  12.152 -0.2487 -0.0090 -0.2610
  196SOD    SOD22256   1.124   3.485  12.121 -0.7814  0.3259  0.8419
  197SOD    SOD22257   6.170   2.632  14.748  0.3260  0.2667  0.0307
  198SOD    SOD22258   1.218   4.702  16.488 -0.0637  0.4186  0.1159
  199SOD    SOD22259   1.840   2.308   2.051  0.1813 -0.2100  0.1613
  200SOD    SOD22260   3.592   3.616   6.369  0.3758  0.7250 -0.6250
  201SOD    SOD22261   4.240   2.215   3.712  0.5306  0.0120  0.1340
  202SOD    SOD22262   6.619   0.256   5.726  0.5462 -0.1742  0.3068
  203SOD    SOD22263   6.314   6.248  11.433 -0.1011 -0.3790 -0.2076
  204SOD    SOD22264   3.551   1.602  15.352  0.0080  0.2472  0.2833
  205SOD    SOD22265   2.095   3.630   0.711  0.0290 -0.0269 -0.2897
  206SOD    SOD22266   1.626   5.323  10.615 -0.0983  0.6483  0.3067
  207SOD    SOD22267   5.728   0.193  16.063 -0.0719 -0.2623  0.0708
  208SOD    SOD22268   0.112   0.978   0.963  0.0632 -0.1975 -0.1846
  209SOD    SOD22269   0.698   6.165  10.796  0.2824 -0.0983  0.1025
  210SOD    SOD22270   5.594   3.962  14.797 -0.1201  0.0589  0.5995
  211SOD    SOD22271   6.094   4.223  14.649 -0.5161 -0.3754 -0.0238
  212SOD    SOD22272   6.213   2.574  11.479  0.2532  0.6332  0.3020
  213SOD    SOD22273   0.209   4.999  11.535 -0.3568 -0.4208 -0.1108
  214SOD    SOD22274   1.376   0.008  16.527  0.3665  0.2070 -0.0987
  215SOD    SOD22275   5.393   6.518   5.457 -0.5558  0.5430 -0.2673
  216SOD    SOD22276   2.146   5.862   1.157  0.1746  0.7531  0.1808
  217SOD    SOD22277   5.939   0.371   0.163  0.3250 -0.0635  0.3950
  218SOD    SOD22278   5.434   6.458  11.103  0.1376  0.0475  0.0932
  219SOD    SOD22279   1.436   3.287   4.000 -0.1569 -0.0082 -0.2114
  220SOD    SOD22280   2.619   0.689  11.238  0.1683 -0.4067 -0.1227
  221SOD    SOD22281   1.590   0.320  12.796  0.3765 -0.1579  0.0224
  222SOD    SOD22282   3.279   1.302  16.551 -0.0660  0.1803 -0.0186
  223SOD    SOD22283   5.007   2.362   0.625  0.2689  0.0802  0.0526
  224SOD    SOD22284   5.645   6.697  12.895  0.0522 -0.2897 -0.0420
  225SOD    SOD22285   4.539   2.617   5.112 -0.9403 -0.4350  0.1695
  226SOD    SOD22286   1.589   2.835  12.571 -0.7613  0.4950  0.1256
  227SOD    SOD22287   1.846   6.674   1.758 -0.4985  0.0778 -0.0398
  228SOD    SOD22288   0.856   4.734  13.658  0.2259 -0.3370 -0.3073
  229SOD    SOD22289   5.831   2.711   0.094  0.7210  0.2615  0.1719
  230SOD    SOD22290   3.500   0.788  15.200 -0.6759  0.2576 -0.0728
  231SOD    SOD22291   1.576   1.284   2.264  0.0145 -0.0668 -0.3381
  232SOD    SOD22292   1.166   2.176   3.485  0.1069  0.5525 -0.6537
  233SOD    SOD22293   4.504   4.168  13.441 -0.4746  0.2583 -0.5452
  234SOD    SOD22294   5.092   4.206   3.102  0.2130  0.6431 -0.0580
  235SOD    SOD22295   3.876   2.749  12.159 -0.0712  0.6322  0.1910
  236SOD    SOD22296   4.001   1.359  12.191 -0.0483  0.8661 -0.1659
  237SOD    SOD22297   0.783   2.366  11.252 -0.2824 -0.0444  0.3994
  238SOD    SOD22298   2.741   5.360   4.437  0.1614 -0.2471 -0.0013
  239SOD    SOD22299   4.112   3.443  11.109 -0.1476  0.4865 -0.1562
  240SOD    SOD22300   2.174   4.520   5.314  0.6261  0.1813  0.4209
  241SOD    SOD22301   3.888   1.052  12.660 -0.3836 -0.3139  0.8126
  242SOD    SOD22302   0.360   6.201  11.626 -0.1559  0.1815 -0.0162
  243SOD    SOD22303   5.463   5.637   5.215 -0.8629 -0.2897  0.1719
  244SOD    SOD22304   6.569   3.703   5.935  0.2201  0.4306  0.1134
  245SOD    SOD22305   3.347   5.697   2.699  0.1541 -0.0126 -0.3411
  246SOD    SOD22306   1.086   3.747   6.293  0.2171  0.3425  0.1452
  247SOD    SOD22307   0.034   4.007   0.108 -0.1789 -0.0686  0.2126
  248SOD    SOD22308   1.465   4.588   5.774 -0.0366 -0.2388 -0.0406
  249SOD    SOD22309   6.480   4.114   2.581  0.6088 -0.1710  0.3792
  250SOD    SOD22310   4.544   4.460   4.402  0.4049  0.0656 -0.1841
  251SOD    SOD22311   0.098   5.688   6.188 -0.3259  0.3240 -0.4911
  252SOD    SOD22312   3.996   3.566   0.084  0.0813 -0.1884  0.2743
  253SOD    SOD22313   5.329   6.197  16.205  0.4749  0.1898 -0.4957
  254SOD    SOD22314   2.450   3.237  11.505  0.2782 -0.1149 -0.0961
  255SOD    SOD22315   5.664   1.070  13.747  0.1551 -0.0309 -0.0268
  256SOD    SOD22316   5.308   5.187   3.048 -0.0350 -0.2443 -0.3615
  257SOD    SOD22317   1.776   1.919  10.707  0.4609  0.0725  0.3951
  258SOD    SOD22318   3.509   4.235  10.820 -0.3367  0.2943 -0.3171
  259SOD    SOD22319   3.670   3.389  11.572 -0.0781  0.5829  0.5347
  260SOD    SOD22320   2.087   3.573  16.804 -0.1992  0.0763 -0.0794
  261SOD    SOD22321   2.109   5.546   2.480 -0.3005 -0.3346 -0.3624
  262SOD    SOD22322   5.181   4.379  10.624 -0.3259 -0.0994 -0.0034
  263SOD    SOD22323   5.033   6.229  11.672  0.1610  0.2661  0.0353
  264SOD    SOD22324   3.772   2.239   0.166 -0.3668 -0.0924  0.3391
  265SOD    SOD22325   5.149   6.764   5.747  0.0715  0.1181 -0.1574
  266SOD    SOD22326   4.977   2.408   1.603  0.0014 -0.3892 -0.1587
  267SOD    SOD22327   6.182   6.491   0.208 -0.5476  0.8630  0.1793
  268SOD    SOD22328   3.790   0.328  16.144  0.1920 -0.0328  0.3204
  269SOD    SOD22329   2.528   4.952   5.058  0.0615 -0.8450  0.3519
  270CLA    CLA22330   0.797   3.366   3.226 -0.1567  0.1350  0.1789
  271CLA    CLA22331   4.238   3.072  15.939 -0.1725 -0.1131  0.0976
  272CLA    CLA22332   4.063   3.146  11.759 -0.0977  0.0595  0.4402
  273CLA    CLA22333   6.673   5.901  13.493 -0.4609 -0.0371 -0.0384
  274CLA    CLA22334   5.499   3.717  15.327  0.3544 -0.0839  0.0601
  275CLA    CLA22335   0.100   3.915  16.943 -0.0469 -0.2160  0.0096
  276CLA    CLA22336   5.842   3.728   4.212 -0.0083 -0.6045 -0.1480
  277CLA    CLA22337   6.078   6.460   2.639  0.2006  0.4051  0.2007
  278CLA    CLA22338   6.094   3.123  14.657  0.0800  0.1943  0.2278
  279CLA    CLA22339   4.466   0.188   1.619  0.0660 -0.4074 -0.6110
  280CLA    CLA22340   1.972   3.767  14.374  0.1489 -0.2860  0.1987
  281CLA    CLA22341   1.979   5.454   1.706 -0.2892  0.0133 -0.1234
  282CLA    CLA22342   0.259   3.031  16.426 -0.4961  0.1227  0.1257
  283CLA    CLA22343   2.044   5.900   1.396  0.4238 -0.2363  0.4903
  284CLA    CLA22344   2.647   2.050  13.413  0.1497 -0.4267 -0.6007
  285CLA    CLA22345   0.520   4.956   4.239  0.1888  0.0005  0.1822
  286CLA    CLA22346   3.763   5.525  11.455 -0.0882 -0.1148  0.0852
  287CLA    CLA22347   1.184   1.165  12.519  0.3642 -0.0606 -0.0279
  288CLA    CLA22348   0.383   1.594   3.624 -0.3457 -0.2090 -0.3730
  289CLA    CLA22349   1.306   0.335  13.277  0.0372 -0.0291  0.1006
  290CLA    CLA22350   1.506   2.913   2.949 -0.2834 -0.2797  0.5145
  291CLA    CLA22351   1.479   0.576   1.564  0.2993  0.1506  0.2841
  292CLA    CLA22352   6.013   4.379   2.951  0.1082 -0.2282  0.0090
  293CLA    CLA22353   0.453   3.383  15.465 -0.4237  0.4800 -0.2807
  294CLA    CLA22354   2.311   2.309   1.891  0.0114 -0.2416 -0.0997
  295CLA    CLA22355   2.242   4.616   2.807 -0.2102 -0.4687 -0.2267
  296CLA    CLA22356   3.437   3.432   2.800  0.2655 -0.1256 -0.1215
  297CLA    CLA22357   5.159   3.583  12.232  0.2406  0.1751 -0.2082
  298CLA    CLA22358   3.936   1.112   5.809  0.0760 -0.1211  0.0859
  299CLA    CLA22359   1.622   1.957   0.044 -0.1198  0.4763 -0.0996
  300CLA    CLA22360   3.320   0.592  16.181 -0.2691 -0.4773 -0.0658
  301CLA    CLA22361   5.118   1.094   0.450  0.1243 -0.0752  0.0752
  302CLA    CLA22362   1.609   4.542   4.007 -0.1969  0.2986 -0.2976
  303CLA    CLA22363   5.717   4.519   1.309  0.4923 -0.0670 -0.2395
  304CLA    CLA22364   2.364   1.749   0.909  0.3353 -0.1849 -0.3317
  305CLA    CLA22365   0.456   3.344   2.104  0.3866 -0.4639 -0.0445
  306CLA    CLA22366   5.771   6.730  13.884 -0.0205 -0.4355  0.3045
  307CLA    CLA22367   5.384   2.689  12.596 -0.3630  0.0308  0.1148
  308CLA    CLA22368   4.227   4.246  14.330 -0.4266 -0.1554  0.4227
  309CLA    CLA22369   4.178   1.247  13.275 -0.0065 -0.3758 -0.2049
  310CLA    CLA22370   0.846   1.252  11.316  0.0991 -0.1750 -0.1263
  311CLA    CLA22371   5.702   1.066  15.427  0.0076 -0.3240  0.3131
  312CLA    CLA22372   2.625   0.677   0.719  0.2399  0.2668 -0.0976
  313CLA    CLA22373   6.469   4.860  12.147  0.3542  0.1906 -0.0408
  314CLA    CLA22374   5.543   1.280  11.439 -0.4874 -0.4018 -0.1307
  315CLA    CLA22375   1.869   1.926  16.958  0.0218 -0.0038 -0.0212
  316CLA    CLA22376   6.550   6.336  17.177  0.1000 -0.2887 -0.1116
  317CLA    CLA22377   5.972   0.411  15.665  0.0039  0.1848  0.0042
  318CLA    CLA22378   0.106   2.197  13.728 -0.0690 -0.0620  0.0500
  319CLA    CLA22379   5.353   5.992   1.042 -0.2788 -0.0233 -0.7739
  320CLA    CLA22380   2.081   6.211  12.067 -0.2672  0.2105  0.0117
  321CLA    CLA22381   4.784   6.029  16.933 -0.0508  0.4306 -0.4364
  322CLA    CLA22382   3.421   6.038   0.655 -0.0211  0.1059  0.0703
  323TIP3   OH222383   3.035   0.151   0.973 -0.3913 -0.6255  0.0059
  323TIP3    H122384   3.056   0.138   0.880 -0.4544 -2.0061  0.1658
  323TIP3    H222385   3.033   0.246   0.984 -2.5775 -0.3599 -1.9204
  324TIP3   OH222386   3.704   0.883  10.611  0.3071  0.1864 -0.9511
  324TIP3    H122387   3.689   0.801  10.564 -0.9928  0.4288 -0.9807
  324TIP3    H222388   3.619   0.926  10.613  1.0390  1.6986 -1.2127
  325TIP3   OH222389   2.545   3.768  15.197 -0.2794  0.4839 -0.3831
  325TIP3    H122390   2.476   3.809  15.250 -0.4437 -0.0065 -0.2180
  325TIP3    H222391   2.533   3.674  15.210  0.8944  0.4139  0.2540
  326TIP3   OH222392   3.670   2.243   2.542  0.2196  0.4638  0.2695
  326TIP3    H122393   3.735   2.312   2.549  3.1652 -2.1367  0.6896
  326TIP3    H222394   3.674   2.197   2.625  0.4283 -1.8146 -0.9104
  327TIP3   OH222395   2.492   6.083  10.711  0.0568 -0.5603 -0.2000
  327TIP3    H122396   2.533   6.026  10.776  0.4396 -0.9215 -0.7543
  327TIP3    H222397   2.421   6.127  10.759  1.5245  0.6230  0.9641
  328TIP3   OH222398   0.251   6.215  15.481 -0.0868  0.0007  0.2616
  328TIP3    H122399   0.254   6.299  15.436 -1.6504  0.8960  1.7172
  328TIP3    H222400   0.229   6.237  15.572  0.3550 -1.9224  0.8818
  329TIP3   OH222401   0.142   4.303  11.333  0.5845 -0.3769 -0.4356
  329TIP3    H122402   0.070   4.343  11.284  1.2632 -0.1699 -1.2930
  329TIP3    H222403   0.163   4.224  11.284  1.3539 -0.1080 -0.5508
  330TIP3   OH222404   0.346   6.161  14.977 -0.2417 -0.1871  0.1913
  330TIP3    H122405   0.294   6.107  15.037 -2.3442  1.2624 -0.2026
  330TIP3    H222406   0.290   6.172  14.900  0.4556  1.7597 -0.1068
  331TIP3   OH222407   2.636   6.330   6.562 -0.1758 -0.5088  0.3061
  331TIP3    H122408   2.548   6.293   6.571  0.5587 -2.2009  1.1374
  331TIP3    H222409   2.695   6.254   6.573  1.3877  0.5862 -0.1164
  332TIP3   OH222410   2.897   2.056  14.151  0.0711  0.1190 -0.5379
  332TIP3    H122411   2.898   2.109  14.072  0.3058 -0.0227 -0.6314
  332TIP3    H222412   2.984   2.017  14.155  0.4738  1.0817  0.4426
  333TIP3   OH222413   6.308   4.781   1.501 -0.1215 -0.4376  0.0243
  333TIP3    H122414   6.292   4.864   1.457 -0.5193 -0.9838 -0.9011
  333TIP3    H222415   6.356   4.804   1.580  0.5636  0.5881 -0.6655
  334TIP3   OH222416   4.266   6.523  11.265 -0.3869 -0.7781 -0.6032
  334TIP3    H122417   4.328   6.501  11.196 -1.2638 -2.0806 -1.0033
  334TIP3    H222418   4.300   6.478  11.343  0.4745  0.5039 -0.1863
  335TIP3   OH222419   5.799   0.335  14.391  0.0079  0.0018 -0.4581
  335TIP3    H122420   5.848   0.414  14.368  1.0553 -0.4303  0.2449
  335TIP3    H222421   5.848   0.296  14.463 -2.9714  1.1549  2.5007
  336TIP3   OH222422   3.976   1.292   3.571  0.0193  0.3422  0.0271
  336TIP3    H122423   4.029   1.276   3.649 -1.3314 -1.7812  0.5953
  336TIP3    H222424   3.918   1.216   3.565  0.1301  0.3530 -3.1207
  337TIP3   OH222425   0.864   5.101  13.896  0.4141 -0.3162  0.7472
  337TIP3    H122426   0.772   5.124  13.892  0.0889 -1.7343 -0.5542
  337TIP3    H222427   0.906   5.177  13.938 -1.2856  0.4268  1.1762
  338TIP3   OH222428   4.756   2.390   3.059  0.5250  0.0825 -0.0829
  338TIP3    H122429   4.752   2.301   3.093  0.9321  0.3083  0.5686
  338TIP3    H222430   4.849   2.408   3.050  0.5782  1.2735  2.0594
  339TIP3   OH222431   4.545   3.373  14.094 -0.1370 -0.3767 -0.0244
  339TIP3    H122432   4.519   3.315  14.165 -1.0547  1.0205  0.8171
  339TIP3    H222433   4.485   3.353  14.022  1.0863 -2.1205 -0.6537
  340TIP3   OH222434   4.061   2.686  13.915 -0.0796 -0.1934  0.4575
  340TIP3    H122435   4.155   2.698  13.903  0.6400 -1.8949  3.3558
  340TIP3    H222436   4.035   2.755  13.976 -1.4181  1.9511 -2.2968
  341TIP3   OH222437   4.656   1.778  11.793  0.2382  0.3051 -0.3150
  341TIP3    H122438   4.654   1.712  11.862  0.6714 -0.1073 -0.6834
  341TIP3    H222439   4.734   1.756  11.742  1.0814  1.8483  0.2587
  342TIP3   OH222440   5.055   5.738  12.430 -0.2792 -0.0192  0.3380
  342TIP3    H122441   5.022   5.814  12.382  1.8301  0.6691 -0.0939
  342TIP3    H222442   5.150   5.744  12.424 -0.0140 -3.1295 -0.3864
  343TIP3   OH222443   1.280   1.501   2.713  0.1765 -0.2648  0.3293
  343TIP3    H122444   1.345   1.555   2.667 -1.4588 -1.2551 -3.5774
  343TIP3    H222445   1.215   1.564   2.744 -0.1398  0.2974 -1.3835
  344TIP3   OH222446   5.060   3.840  14.320 -0.5129  0.2683  0.1956
  344TIP3    H122447   5.092   3.756  14.288 -2.0143 -0.2507 -0.0241
  344TIP3    H222448   4.970   3.846  14.286 -0.7619  1.5166  1.0103
  345TIP3   OH222449   3.050   0.266  16.996  0.4712  0.0127  0.5086
  345TIP3    H122450   3.082   0.242  17.084 -0.5450  1.5289  1.3279
  345TIP3    H222451   3.107   0.338  16.969 -0.4067  0.8241  0.7622
  346TIP3   OH222452   6.772   5.062   1.990  0.0783 -0.4800  0.1966
  346TIP3    H122453   6.787   5.032   2.080  0.4762  0.8005  0.5758
  346TIP3    H222454   6.825   5.004   1.936  0.3618 -0.8451  0.8505
  347TIP3   OH222455   6.654   1.185  15.822 -1.1366  0.1962  0.0661
  347TIP3    H122456   6.584   1.161  15.761 -0.6080  0.8682 -0.8264
  347TIP3    H222457   6.700   1.257  15.778  0.7511 -0.9067  0.1432
  348TIP3   OH222458   3.071   0.821  11.233  0.3096 -0.6504 -0.8898
  348TIP3    H122459   3.126   0.863  11.299  0.3081 -0.4583 -1.0088
  348TIP3    H222460   3.113   0.737  11.216 -0.1733 -1.0781 -0.0071
  349TIP3   OH222461   2.454   1.996  15.905  0.7737  0.6023  0.2697
  349TIP3    H122462   2.424   2.070  15.959 -0.8138  0.5742 -0.4999
  349TIP3    H222463   2.392   1.926  15.925  1.6197 -0.1741  0.1826
  350TIP3   OH222464   5.492   3.629  13.917 -0.1154 -0.0007 -0.0152
  350TIP3    H122465   5.410   3.636  13.867  0.7052  0.4035 -1.3800
  350TIP3    H222466   5.516   3.537  13.911 -0.7263 -0.2202  0.8309
  351TIP3   OH222467   1.653   0.889   5.836  0.2904  0.3681  0.5211
  351TIP3    H122468   1.710   0.884   5.759  1.4478 -0.0332  1.3702
  351TIP3    H222469   1.616   0.977   5.832  0.3900  0.3786 -0.4540
  352TIP3   OH222470   0.149   1.573  14.597  0.2960  0.0280 -0.4733
  352TIP3    H122471   0.212   1.548  14.665  1.6509 -1.2410 -2.0744
  352TIP3    H222472   0.143   1.668  14.603  2.2919  0.1774 -0.1596
  353TIP3   OH222473   1.190   4.110   3.172 -0.1172 -0.0105 -0.3180
  353TIP3    H122474   1.132   4.096   3.097 -1.4911  1.9677  0.2917
  353TIP3    H222475   1.168   4.039   3.232  1.4527 -2.0133 -1.9535
  354TIP3   OH222476   3.686   3.895   5.413  0.2219  0.1454 -0.4347
  354TIP3    H122477   3.662   3.985   5.435 -2.2429 -0.2653 -1.1372
  354TIP3    H222478   3.642   3.842   5.480  0.2898 -0.6244 -0.9911
  355TIP3   OH222479   3.167   0.174  13.138 -0.0270  0.0422  0.2166
  355TIP3    H122480   3.110   0.248  13.159 -0.9445 -0.2813 -1.0491
  355TIP3    H222481   3.187   0.185  13.045  0.7859 -0.6651  0.2999
  356TIP3   OH222482   5.336   3.486  17.193  0.5695  0.3749 -0.2646
  356TIP3    H122483   5.410   3.425  17.197  0.2622 -0.0009 -0.1980
  356TIP3    H222484   5.267   3.436  17.148  0.4667  0.8355 -0.6274
  357TIP3   OH222485   0.149   6.352  16.790  0.4809  0.4719 -0.2560
  357TIP3    H122486   0.055   6.365  16.803  0.5302  1.7462 -0.9383
  357TIP3    H222487   0.160   6.354  16.695  0.9591 -1.7736 -0.2993
  358TIP3   OH222488   4.229   4.007   0.878  0.5686 -0.2531  0.0030
  358TIP3    H122489   4.287   4.070   0.835 -0.7875  0.1123 -1.4029
  358TIP3    H222490   4.156   4.061   0.911 -0.0226 -0.9267 -0.1750
  359TIP3   OH222491   1.238   1.066   3.359 -0.3799  0.2072 -0.2737
  359TIP3    H122492   1.286   1.066   3.442  1.4250 -0.9646 -1.2378
  359TIP3    H222493   1.253   1.153   3.323  0.2365  0.1694 -0.1218
  360TIP3   OH222494   0.886   2.564  16.667 -0.0357 -0.0058  0.3230
  360TIP3    H122495   0.935   2.495  16.622  0.5414 -0.5034  1.6463
  360TIP3    H222496   0.902   2.547  16.760 -1.0084  1.1072  0.7117
  361TIP3   OH222497   0.255   2.213   4.979  0.4155  0.4693  0.5862
  361TIP3    H122498   0.297   2.266   4.912 -1.0424  0.1874 -0.6001
  361TIP3    H222499   0.161   2.227   4.966 -0.2331 -3.7374 -1.0628
  362TIP3   OH222500   5.686   6.531  13.372 -0.0179  0.1065  0.1147
  362TIP3    H122501   5.748   6.522  13.445  1.1284 -2.6111 -1.0414
  362TIP3    H222502   5.613   6.474  13.396  1.2024 -2.3096 -1.5522
  363TIP3   OH222503   4.690   2.138   2.819 -0.0689  0.3013 -0.2122
  363TIP3    H122504   4.685   2.151   2.724 -1.8264  1.7188  0.0167
  363TIP3    H222505   4.697   2.226   2.855  2.3326 -0.2864  0.9728
  364TIP3   OH222506   2.264   5.671   2.663 -0.5427 -0.2127  0.1876
  364TIP3    H122507   2.349   5.660   2.705 -1.1426 -0.5962  1.3443
  364TIP3    H222508   2.214   5.725   2.725 -0.3351  2.2727 -1.6459
  365TIP3   OH222509   2.038   1.990   5.532  0.2813 -0.3592 -0.2693
  365TIP3    H122510   1.984   2.016   5.607 -1.4959 -1.6919 -1.0056
  365TIP3    H222511   2.093   1.919   5.565  2.1017  1.3960  0.6437
  366TIP3   OH222512   6.765   2.002   1.710 -0.1010  0.1728 -0.2072
  366TIP3    H122513   6.857   2.014   1.684 -0.3624  2.0187 -0.4263
  366TIP3    H222514   6.760   2.037   1.799 -0.6848  0.6255 -0.4073
  367TIP3   OH222515   5.856   0.982   2.872  0.3612  0.1400  0.1714
  367TIP3    H122516   5.848   1.076   2.889 -0.1485 -0.0184  0.8733
  367TIP3    H222517   5.925   0.975   2.806  2.2171  0.8652  1.8911
  368TIP3   OH222518   2.037   2.903  16.585  0.2743 -0.6071  0.3747
  368TIP3    H122519   2.045   2.850  16.664  0.6494 -0.1063  0.6734
  368TIP3    H222520   2.124   2.901  16.545  0.0907 -0.8466 -0.0215
  369TIP3   OH222521   0.206   1.542  11.732  0.4283 -0.2804 -0.2558
  369TIP3    H122522   0.276   1.576  11.677  0.5664  0.8353  0.5817
  369TIP3    H222523   0.221   1.447  11.733  1.9134 -0.0742 -0.1069
  370TIP3   OH222524   2.634   6.554  10.703 -0.5026 -0.0631  0.3176
  370TIP3    H122525   2.560   6.570  10.762 -1.1591 -1.0512 -0.2073
  370TIP3    H222526   2.651   6.460  10.710 -0.8566 -0.2879 -1.3271
  371TIP3   OH222527   4.055   1.800  16.684 -0.0266 -0.3819 -0.1858
  371TIP3    H122528   4.009   1.716  16.681  0.9414 -0.9370 -0.0551
  371TIP3    H222529   3.999   1.860  16.636 -0.7835 -1.0814 -0.2014
  372TIP3   OH222530   0.882   4.497  13.055  0.4294 -0.3927  0.0648
  372TIP3    H122531   0.951   4.525  13.115  0.6558  0.2228 -0.4702
  372TIP3    H222532   0.805   4.546  13.080  0.2155 -0.9736  0.5706
  373TIP3   OH222533   0.059   0.921   2.772 -0.0489 -0.2941  0.4718
  373TIP3    H122534   0.134   0.978   2.789 -0.5883  0.2068  1.2486
  373TIP3    H222535   0.094   0.849   2.720  1.1593 -0.5327  1.5761
  374TIP3   OH222536   3.485   1.237  16.470  0.0680 -0.3338 -0.6464
  374TIP3    H122537   3.521   1.149  16.465  0.0937 -0.4560  1.0628
  374TIP3    H222538   3.558   1.294  16.447  1.0929 -0.6281  1.6872
  375TIP3   OH222539   1.349   3.763  14.115 -0.1709 -0.3156  0.4782
  375TIP3    H122540   1.408   3.757  14.040 -0.5812  1.9647 -0.1162
  375TIP3    H222541   1.396   3.719  14.186  1.9440  0.7697 -0.1616
  376TIP3   OH222542   1.026   4.573   0.611 -0.6552  0.6602  0.2402
  376TIP3    H122543   1.039   4.486   0.649  0.5879 -0.0109 -1.5942
  376TIP3    H222544   0.933   4.575   0.586 -1.0178  0.4082  1.5012
  377TIP3   OH222545   6.496   0.370   1.884  0.4625 -0.0414  0.2572
  377TIP3    H122546   6.410   0.380   1.844  0.0443  0.2379  1.1881
  377TIP3    H222547   6.556   0.413   1.824 -0.2225  0.8458  0.1973
  378TIP3   OH222548   4.876   1.435   2.215 -0.3407  0.4396 -0.2489
  378TIP3    H122549   4.843   1.416   2.128  0.8533  1.3848 -0.9289
  378TIP3    H222550   4.822   1.508   2.246  1.3601  2.3682 -1.5859
  379TIP3   OH222551   3.795   6.744  14.567 -0.7640 -0.0093 -0.2075
  379TIP3    H122552   3.832   6.830  14.590 -0.7181 -0.0934  0.0350
  379TIP3    H222553   3.702   6.752  14.590 -1.5429  1.1202 -3.2600
  380TIP3   OH222554   3.088   4.298  12.394 -0.3709  0.0279  0.5678
  380TIP3    H122555   3.025   4.345  12.448  0.2770 -0.2969  1.6334
  380TIP3    H222556   3.172   4.341  12.411 -0.0072 -0.6423  0.5030
  381TIP3   OH222557   5.192   0.144   5.571  0.3193  0.9450  0.0979
  381TIP3    H122558   5.278   0.151   5.531 -0.4777  1.1721 -1.6623
  381TIP3    H222559   5.181   0.225   5.621 -0.0516  2.3678 -2.1544
  382TIP3   OH222560   2.066   6.709   2.703  0.0257 -0.7163  0.1045
  382TIP3    H122561   2.014   6.788   2.687  0.6346 -0.6064 -1.5388
  382TIP3    H222562   2.049   6.653   2.627  0.9561 -1.4117  0.3933
  383TIP3   OH222563   6.655   2.221  11.708 -0.1908  0.2991  0.2584
  383TIP3    H122564   6.602   2.198  11.632 -0.0273  1.6278 -0.2822
  383TIP3    H222565   6.688   2.309  11.689  0.7116  0.2339  1.4010
  384TIP3   OH222566   3.560   2.361  12.942  0.0330 -0.1078 -0.2274
  384TIP3    H122567   3.606   2.401  12.869  1.0438 -1.1059 -0.1558
  384TIP3    H222568   3.573   2.421  13.015 -0.4476  0.5781 -0.6936
  385TIP3   OH222569   3.650   5.734  15.070  0.5796 -0.2274 -0.6749
  385TIP3    H122570   3.659   5.648  15.110  0.0784 -0.3964 -0.9174
  385TIP3    H222571   3.677   5.721  14.979  0.5044 -0.1264 -0.7111
  386TIP3   OH222572   6.231   2.304  15.930 -0.2995  0.2285 -0.1306
  386TIP3    H122573   6.315   2.275  15.895 -0.2269  0.7406 -0.3778
  386TIP3    H222574   6.175   2.314  15.853 -1.0583 -1.5810  0.1424
  387TIP3   OH222575   3.350   3.562  17.248  0.2311  0.0153  0.2705
  387TIP3    H122576   3.308   3.647  17.262  4.2940  2.1640  1.1719
  387TIP3    H222577   3.414   3.578  17.178  1.7830 -1.9722  1.1204
  388TIP3   OH222578   5.751   6.146  17.200  0.5867  0.7667 -0.3592
  388TIP3    H122579   5.743   6.162  17.294 -1.2155  1.7012 -0.6322
  388TIP3    H222580   5.820   6.206  17.171  1.9348 -0.3054  0.5065
  389TIP3   OH222581   1.279   5.001  16.034 -0.1078 -0.1427 -0.1194
  389TIP3    H122582   1.251   5.062  15.967 -0.5166  0.6333  0.7352
  389TIP3    H222583   1.253   4.915  16.001 -1.0193  0.3016 -0.5946
  390TIP3   OH222584   0.718   2.251  15.815  0.6424 -0.1336 -0.1149
  390TIP3    H122585   0.699   2.246  15.721  0.8681 -0.8646 -0.1264
  390TIP3    H222586   0.652   2.310  15.850  0.6852  0.3113 -0.7712
  391TIP3   OH222587   2.698   2.209  10.757 -0.3395  0.2981 -0.1072
  391TIP3    H122588   2.613   2.167  10.763 -0.2857  0.1392 -0.4340
  391TIP3    H222589   2.692   2.284  10.816 -1.6145  1.8248 -2.0060
  392TIP3   OH222590   6.266   0.972  12.527 -0.0383  0.3923 -0.2568
  392TIP3    H122591   6.279   1.016  12.444  0.8427 -1.0703 -0.9243
  392TIP3    H222592   6.348   0.926  12.544 -0.2080  0.6249  1.4088
  393TIP3   OH222593   4.763   5.199  11.093  0.2546  0.2888  0.0212
  393TIP3    H122594   4.837   5.199  11.032  0.9428  3.0041  0.7005
  393TIP3    H222595   4.759   5.110  11.127  2.0647 -0.3760 -1.3764
  394TIP3   OH222596   6.205   1.393   1.181  0.1632  0.6808  0.0506
  394TIP3    H122597   6.262   1.457   1.225  1.0099  1.1793 -1.6805
  394TIP3    H222598   6.117   1.415   1.212  0.6518  1.4424  0.9655
  395TIP3   OH222599   3.326   4.039   5.840  0.5957 -0.5303 -0.5208
  395TIP3    H122600   3.322   4.134   5.841  0.4450 -0.5181  1.6473
  395TIP3    H222601   3.257   4.013   5.778 -1.0839  0.7436  0.7097
  396TIP3   OH222602   4.816   6.280   3.583 -0.7172  0.0912  0.2521
  396TIP3    H122603   4.842   6.329   3.660  1.1229 -1.4668  0.7124
  396TIP3    H222604   4.873   6.313   3.513 -0.2255 -0.6098  0.3109
  397TIP3   OH222605   2.778   5.462  11.977  0.2921  0.5725 -0.4993
  397TIP3    H122606   2.821   5.455  12.063  0.8275 -0.2469 -0.8166
  397TIP3    H222607   2.843   5.505  11.922  1.0727 -1.3885 -1.1900
  398TIP3   OH222608   0.037   0.748  14.344  0.6459 -0.4903 -0.0501
  398TIP3    H122609  -0.056   0.741  14.366  0.2359  0.0975 -1.4566
  398TIP3    H222610   0.047   0.837  14.311  1.4193 -0.9692 -1.1689
  399TIP3   OH222611   1.801   1.567  15.881  0.0235 -0.7551 -0.4059
  399TIP3    H122612   1.713   1.598  15.900 -0.1222 -2.2708  1.5938
  399TIP3    H222613   1.794   1.524  15.796 -0.8245  0.3180 -0.9069
  400TIP3   OH222614   6.536   0.591   0.029  0.4595 -0.2196  0.3206
  400TIP3    H122615   6.507   0.586   0.120 -1.0646 -0.0988 -0.1122
  400TIP3    H222616   6.537   0.500  -0.001 -2.2338 -0.1175 -0.3964
  401TIP3   OH222617   1.312   2.009  12.360 -0.4164 -0.0616  0.2863
  401TIP3    H122618   1.295   2.011  12.266  0.3123 -0.6194  0.1376
  401TIP3    H222619   1.238   1.959  12.396 -0.4720 -0.2247 -0.0446
  402TIP3   OH222620   0.468   5.624   4.385 -0.1128 -0.0154  0.0065
  402TIP3    H122621   0.547   5.673   4.408  0.2093 -0.2891 -0.5013
  402TIP3    H222622   0.463   5.555   4.452  0.2963 -0.2335 -0.1836
  403TIP3   OH222623   4.532   4.333   2.348  0.4263 -0.5157 -0.0097
  403TIP3    H122624   4.477   4.310   2.272  1.4075 -1.2199 -0.5249
  403TIP3    H222625   4.556   4.249   2.386 -0.4631 -0.1555  1.4089
  404TIP3   OH222626   6.123   6.672  12.605  0.2081 -0.2681 -0.0938
  404TIP3    H122627   6.122   6.627  12.690 -1.7596  0.8007  0.5176
  404TIP3    H222628   6.154   6.760  12.625  0.3615 -0.1992 -0.6190
  405TIP3   OH222629   6.525   4.007   2.344  0.1978  0.4811  0.0407
  405TIP3    H122630   6.469   4.028   2.269 -1.0084  0.6663  0.9498
  405TIP3    H222631   6.582   4.083   2.353  0.3514  0.4591 -0.6804
  406TIP3   OH222632   2.217   3.978  10.958 -0.2571  0.3586  0.1649
  406TIP3    H122633   2.276   3.992  10.884  0.5371  0.5006  0.8118
  406TIP3    H222634   2.206   4.065  10.996  0.6295  0.0641  1.1606
  407TIP3   OH222635   3.647   2.076   0.274  0.0390  0.4872 -0.1295
  407TIP3    H122636   3.656   1.998   0.328 -0.2290  0.7549  0.3064
  407TIP3    H222637   3.556   2.104   0.287 -0.0445  0.5242 -0.7613
  408TIP3   OH222638   0.041   1.225   3.279  0.2390  0.2386 -0.1390
  408TIP3    H122639  -0.004   1.226   3.194 -0.0109 -1.7119 -0.0765
  408TIP3    H222640   0.014   1.142   3.319 -0.2767  1.4740  2.2119
  409TIP3   OH222641   1.825   3.248   5.835 -0.4847 -0.2238 -0.4276
  409TIP3    H122642   1.742   3.260   5.789 -1.2003  0.6057  1.0142
  409TIP3    H222643   1.800   3.228   5.925  0.8862 -0.9830 -0.1816
  410TIP3   OH222644   3.383   1.139   5.935 -0.0158 -0.1782 -0.3709
  410TIP3    H122645   3.351   1.051   5.915  1.6616 -1.0625  0.6394
  410TIP3    H222646   3.427   1.167   5.855 -2.2784  0.6324 -1.4119
  411TIP3   OH222647   5.032   4.950   1.866  0.1478  0.2924  0.0094
  411TIP3    H122648   5.024   4.920   1.957  0.4182  0.0202 -0.0561
  411TIP3    H222649   5.102   4.896   1.829  1.7316  2.0028  0.3237
  412TIP3   OH222650   3.648   5.773   1.748  0.0218  0.1868 -0.5060
  412TIP3    H122651   3.705   5.753   1.673 -0.1488 -1.1548 -0.2998
  412TIP3    H222652   3.559   5.774   1.711  0.0870  1.5104 -0.6791
  413TIP3   OH222653   4.154   0.660  10.901  0.0759  0.3990  0.2430
  413TIP3    H122654   4.153   0.568  10.874  0.7800  0.3652  0.2958
  413TIP3    H222655   4.126   0.708  10.824 -0.7392  0.1125  0.3534
  414TIP3   OH222656   2.666   3.651   2.345  0.5667 -0.1165  0.1196
  414TIP3    H122657   2.680   3.565   2.386  0.5289  0.3258  1.0847
  414TIP3    H222658   2.661   3.712   2.418 -0.0395  0.6290 -0.5207
  415TIP3   OH222659   0.138   3.133   2.707  0.0177 -0.6691 -0.4550
  415TIP3    H122660   0.228   3.105   2.697  0.2720 -0.4134  0.8968
  415TIP3    H222661   0.087   3.052   2.701  0.4923 -1.0531  0.4264
  416TIP3   OH222662   3.315   2.378  16.322  0.3381 -0.3123  0.2640
  416TIP3    H122663   3.333   2.285  16.308 -1.4422 -0.8193  1.0589
  416TIP3    H222664   3.361   2.422  16.251  2.2974 -1.6566  0.6039
  417TIP3   OH222665   4.534   3.184  15.906  0.2086 -0.3996 -0.2459
  417TIP3    H122666   4.505   3.269  15.875  1.9270 -0.3013 -1.7314
  417TIP3    H222667   4.453   3.137  15.926 -0.8298  0.9489 -1.1291
  418TIP3   OH222668   1.253   4.026  14.202 -0.2124  0.4579  0.0789
  418TIP3    H122669   1.157   4.020  14.205 -0.3900  2.6447  0.4129
  418TIP3    H222670   1.283   3.936  14.214 -2.2227 -0.3392 -0.4615
  419TIP3   OH222671   0.102   2.940   3.016  0.2595 -0.2463  0.0369
  419TIP3    H122672   0.162   2.927   2.942  1.1612 -1.9859  0.9913
  419TIP3    H222673   0.125   2.870   3.077 -1.9444 -0.2072  1.0025
  420TIP3   OH222674   2.654   2.811   2.402 -0.1818 -0.2801  0.4111
  420TIP3    H122675   2.701   2.853   2.474  2.0004  0.0054 -1.0923
  420TIP3    H222676   2.637   2.722   2.433 -0.7061  0.2970  1.8558
  421TIP3   OH222677   1.889   5.125  10.868  0.0972  0.1411  1.0135
  421TIP3    H122678   1.810   5.159  10.826  0.9062  1.6497  0.6423
  421TIP3    H222679   1.950   5.110  10.795 -0.0607 -1.7202  1.2144
  422TIP3   OH222680   5.723   2.608  14.842  0.5486 -0.3342  0.7662
  422TIP3    H122681   5.692   2.682  14.894  0.5304 -0.1751  0.5311
  422TIP3    H222682   5.783   2.561  14.900  0.2091 -0.3923  1.0682
  423TIP3   OH222683   5.157   0.521   1.805  0.8585  0.2028 -0.0744
  423TIP3    H122684   5.178   0.438   1.847  2.7393 -0.3222 -1.8677
  423TIP3    H222685   5.097   0.497   1.734  0.9422  0.4555 -0.2299
  424TIP3   OH222686   5.148   2.877  15.201 -0.0791  0.0788 -0.6262
  424TIP3    H122687   5.115   2.959  15.237  0.8398 -0.6563  2.2344
  424TIP3    H222688   5.225   2.902  15.150  0.8592  0.9995  1.1197
  425TIP3   OH222689   2.703   5.472   2.649 -0.1867  0.3227 -0.1396
  425TIP3    H122690   2.649   5.550   2.633 -0.5193  0.1472  0.1132
  425TIP3    H222691   2.782   5.506   2.691 -0.1645  0.5641 -0.3713
  426TIP3   OH222692   6.523   5.145  14.655 -0.1880 -0.1964  0.4396
  426TIP3    H122693   6.514   5.055  14.623  0.2273 -1.3260  3.2297
  426TIP3    H222694   6.483   5.199  14.586 -0.5678 -2.4945 -1.2634
  427TIP3   OH222695   6.489   0.956   1.262 -0.4057 -0.4671 -0.1114
  427TIP3    H122696   6.525   0.884   1.210 -0.2786 -0.9891  0.6778
  427TIP3    H222697   6.536   1.033   1.233  1.6583 -1.1818  1.1523
  428TIP3   OH222698   0.221   5.696  13.176  0.4607 -0.1288 -0.3601
  428TIP3    H122699   0.264   5.613  13.198  1.3721  0.3119 -0.4381
  428TIP3    H222700   0.247   5.756  13.246  0.7729  0.4152 -0.9349
  429TIP3   OH222701   3.842   4.293  16.419 -0.4066 -0.2182 -0.2445
  429TIP3    H122702   3.937   4.307  16.420 -0.6805  2.0330  0.1134
  429TIP3    H222703   3.820   4.282  16.327  0.0122  0.9106 -0.4882
  430TIP3   OH222704   4.552   2.512   0.238  0.8013 -0.2654  0.1189
  430TIP3    H122705   4.630   2.532   0.186  0.8263 -2.2255 -0.6551
  430TIP3    H222706   4.574   2.543   0.326  0.5529  3.6470 -1.0159
  431TIP3   OH222707   3.195   3.231   0.731 -0.3340 -0.0017  0.0170
  431TIP3    H122708   3.248   3.305   0.760  0.5859  0.1514 -1.9195
  431TIP3    H222709   3.112   3.271   0.704 -0.3035  0.1637  0.1648
  432TIP3   OH222710   0.232   2.618  16.838  0.1391 -0.2251  0.1228
  432TIP3    H122711   0.173   2.677  16.884  0.2931 -0.0984  0.1600
  432TIP3    H222712   0.316   2.665  16.835 -0.2130  0.3762 -1.5019
  433TIP3   OH222713   2.482   1.390  14.406 -0.3608 -0.0995  0.2926
  433TIP3    H122714   2.572   1.358  14.395  0.2385  1.4283  0.3660
  433TIP3    H222715   2.482   1.475  14.361 -1.9174 -0.2828 -0.1150
  434TIP3   OH222716   1.906   4.673  17.118 -0.4456 -0.2744 -0.7578
  434TIP3    H122717   1.930   4.734  17.048  1.5965 -0.0181  0.0835
  434TIP3    H222718   1.937   4.587  17.087  0.2161 -0.2047 -0.3306
  435TIP3   OH222719   3.218   2.060  14.383 -0.0510 -0.0962 -0.2038
  435TIP3    H122720   3.268   1.994  14.334 -0.8958 -0.5853 -0.4305
  435TIP3    H222721   3.149   2.086  14.322  0.6498  1.5015 -0.3696
  436TIP3   OH222722   4.071   6.410   5.207  0.5509  0.7427  0.0203
  436TIP3    H122723   4.032   6.457   5.281  1.0993  0.4133  0.5292
  436TIP3    H222724   4.165   6.406   5.228  0.9206  1.7880 -1.3236
  437TIP3   OH222725   1.305   2.139   4.694  0.1467  0.0679  0.6703
  437TIP3    H122726   1.314   2.231   4.718  0.4277  0.3525 -0.4883
  437TIP3    H222727   1.394   2.104   4.701 -0.1916 -0.5627  2.7187
  438TIP3   OH222728   0.862   2.022  12.910 -0.2504  0.3534  0.1375
  438TIP3    H122729   0.856   2.035  12.815  0.3837  2.0395  0.2957
  438TIP3    H222730   0.788   1.964  12.931  0.0574 -0.6849 -1.4733
  439TIP3   OH222731   5.914   5.226  17.027 -0.3161 -0.1840 -0.4516
  439TIP3    H122732   6.004   5.211  17.057  0.5274  2.8658 -1.1803
  439TIP3    H222733   5.870   5.266  17.102 -0.5554  0.0065 -0.6923
  440TIP3   OH222734   4.041   2.502  16.235 -0.2435 -0.2600  0.1183
  440TIP3    H122735   3.997   2.573  16.280  0.9666  1.4978 -1.3478
  440TIP3    H222736   4.091   2.457  16.303 -0.5281  0.6794  0.9608
  441TIP3   OH222737   3.452   2.321   0.577 -0.9044 -0.1723  0.4183
  441TIP3    H122738   3.473   2.410   0.603  0.6897 -0.0304 -1.1612
  441TIP3    H222739   3.382   2.331   0.512 -0.3736  0.0002 -0.1412
  442TIP3   OH222740   2.497   3.348  16.224  0.4802 -0.6159  0.4083
  442TIP3    H122741   2.432   3.288  16.261  0.8817 -0.0400  2.1355
  442TIP3    H222742   2.501   3.420  16.287  0.0801  1.2152 -1.5399
  443TIP3   OH222743   4.609   0.341   3.869  0.4430 -0.7553  0.0505
  443TIP3    H122744   4.645   0.378   3.950 -1.4386 -0.2206  0.7169
  443TIP3    H222745   4.514   0.342   3.883  0.0525 -0.5047 -2.2430
  444TIP3   OH222746   6.711   1.625  12.571  0.0776 -0.1419 -0.0748
  444TIP3    H122747   6.709   1.549  12.630  0.1282  1.3728  1.9671
  444TIP3    H222748   6.640   1.608  12.509 -1.7480 -0.6277  2.0052
  445TIP3   OH222749   2.010   4.441   5.765  0.6165 -0.2306 -0.0080
  445TIP3    H122750   1.962   4.368   5.805  0.4788 -0.1571 -0.0378
  445TIP3    H222751   1.965   4.519   5.797 -0.5812 -0.2015 -1.6522
  446TIP3   OH222752   0.235   0.727   2.658 -0.0379 -0.3557  0.0622
  446TIP3    H122753   0.192   0.667   2.720 -1.5719 -0.7662 -1.3104
  446TIP3    H222754   0.328   0.716   2.675 -0.3720 -1.3593  1.4601
  447TIP3   OH222755   1.297   1.019   2.328  0.1611 -0.0578  0.4164
  447TIP3    H122756   1.365   1.034   2.394 -0.2960  0.4806  0.7726
  447TIP3    H222757   1.343   1.029   2.245  0.9267 -1.5285  0.6133
  448TIP3   OH222758   1.189   5.298  12.145  0.4003  0.3331 -0.1107
  448TIP3    H122759   1.252   5.232  12.174  0.4578  0.7704  0.7553
  448TIP3    H222760   1.189   5.289  12.049  0.6532 -0.6954 -0.0316
  449TIP3   OH222761   3.167   4.053  15.373 -0.3858  0.0294  0.2450
  449TIP3    H122762   3.216   4.133  15.360  0.6036 -0.6306 -0.2042
  449TIP3    H222763   3.081   4.082  15.404  0.5551  1.1626  1.9199
  450TIP3   OH222764   4.170   5.483   5.427 -0.4828  0.1096 -0.0707
  450TIP3    H122765   4.253   5.531   5.427 -1.3320  1.6751 -1.8171
  450TIP3    H222766   4.137   5.493   5.517  1.0773 -0.3684  0.5985
  451TIP3   OH222767   6.525   0.161   0.658 -0.3009  0.0548  0.6492
  451TIP3    H122768   6.555   0.201   0.739  2.8106 -1.0258  0.1401
  451TIP3    H222769   6.501   0.072   0.682 -0.3008  0.0289  0.5534
  452TIP3   OH222770   1.325   4.468   4.232 -0.3370  0.0484 -0.0867
  452TIP3    H122771   1.401   4.517   4.200  0.4438 -1.3981 -0.5507
  452TIP3    H222772   1.252   4.498   4.178  0.1965  0.4390 -0.5968
  453TIP3   OH222773   2.544   1.046   2.725  0.1401  0.0430  0.0037
  453TIP3    H122774   2.589   0.984   2.782  0.3989 -0.0263 -0.2797
  453TIP3    H222775   2.521   0.996   2.647 -0.0917  0.1754 -0.0157
  454TIP3   OH222776   1.162   2.450   1.744 -0.3806 -0.1122  0.1765
  454TIP3    H122777   1.200   2.538   1.748 -2.4438  0.8026  1.1577
  454TIP3    H222778   1.146   2.435   1.651  0.2454  0.4281 -0.0271
  455TIP3   OH222779   0.016   2.176   4.126 -0.4643  0.0656  0.4943
  455TIP3    H122780   0.001   2.187   4.220 -1.3115  2.2988  0.1652
  455TIP3    H222781  -0.066   2.138   4.094 -0.3520 -0.2601  0.5921
  456TIP3   OH222782   4.127   0.479   4.884  0.0893 -0.0133 -0.3155
  456TIP3    H122783   4.202   0.421   4.893  0.9600  0.8054 -1.9013
  456TIP3    H222784   4.161   0.557   4.840 -1.2798  1.2421  0.7225
  457TIP3   OH222785   0.881   3.074   5.557 -0.1754  0.4312  0.3530
  457TIP3    H122786   0.856   2.990   5.597 -0.1174  0.4532  0.4378
  457TIP3    H222787   0.846   3.140   5.617 -0.8527  0.4826 -0.0910
  458TIP3   OH222788   6.674   5.539   5.166 -0.6071 -0.7057 -0.3527
  458TIP3    H122789   6.685   5.501   5.253 -0.6845 -1.2128 -0.5581
  458TIP3    H222790   6.702   5.630   5.175 -0.1050 -0.8999  0.0782
  459TIP3   OH222791   1.223   3.129   1.459 -0.3980  0.4162  0.0755
  459TIP3    H122792   1.149   3.103   1.513  1.1948 -2.2504  1.1939
  459TIP3    H222793   1.281   3.053   1.460  1.9611  2.0595 -1.4464
  460TIP3   OH222794   0.148   6.468   1.738 -0.2831 -0.2456  0.6368
  460TIP3    H122795   0.238   6.449   1.713  0.4909  1.5625  1.8445
  460TIP3    H222796   0.100   6.387   1.719  0.9085 -0.2900 -2.9358
  461TIP3   OH222797   1.673   2.636  12.472  0.3863 -0.3873  0.0831
  461TIP3    H122798   1.704   2.571  12.534 -1.8668 -1.6157  0.0155
  461TIP3    H222799   1.691   2.598  12.386  1.5826  0.3732 -0.0315
  462TIP3   OH222800   5.419   5.342   3.666 -0.4448  0.9318 -0.2154
  462TIP3    H122801   5.420   5.300   3.580 -0.7858  1.1479 -0.3256
  462TIP3    H222802   5.504   5.319   3.705 -1.3083 -1.3548  0.4645
  463TIP3   OH222803   1.415   0.270   0.149 -0.2860  0.0019  0.1205
  463TIP3    H122804   1.478   0.212   0.192 -0.5341 -0.1720  0.2522
  463TIP3    H222805   1.452   0.286   0.062  0.8019  1.2857  0.7923
  464TIP3   OH222806   5.682   6.132  12.709 -0.0989  0.1807 -0.3986
  464TIP3    H122807   5.671   6.045  12.670 -0.9855  0.3997 -0.6670
  464TIP3    H222808   5.729   6.116  12.791  1.5275 -0.3136 -1.3925
  465TIP3   OH222809   3.398   0.928   1.824  0.4757  0.2564 -0.2039
  465TIP3    H122810   3.372   0.938   1.733 -1.6339 -0.2468  0.2756
  465TIP3    H222811   3.384   0.835   1.843  1.4668  0.2323  0.4847
  466TIP3   OH222812   5.733   1.378  16.518  0.3093 -0.0634  0.3660
  466TIP3    H122813   5.701   1.424  16.596 -0.0021 -2.2587  1.6169
  466TIP3    H222814   5.811   1.427  16.492 -0.6412  1.8378  0.8697
  467TIP3   OH222815   4.691   1.232  11.600  0.4206 -0.4345  0.7658
  467TIP3    H122816   4.726   1.313  11.639  1.6177 -1.2505  1.4386
  467TIP3    H222817   4.752   1.164  11.627  1.2408 -1.1232 -2.4079
  468TIP3   OH222818   0.264   3.632  16.147 -0.1848 -0.1622  0.0684
  468TIP3    H122819   0.254   3.726  16.131  1.5392  0.1368  0.5327
  468TIP3    H222820   0.336   3.606  16.090  0.0236 -0.9893  0.6991
  469TIP3   OH222821   5.983   1.797  14.932 -0.4944 -0.4207 -0.1819
  469TIP3    H122822   5.897   1.798  14.974  0.2677  2.2393  1.5973
  469TIP3    H222823   5.963   1.792  14.838 -2.6230  0.4626  0.1562
  470TIP3   OH222824   1.179   4.166   1.729 -0.5209  0.1366 -0.2573
  470TIP3    H122825   1.257   4.221   1.721 -0.7880  0.3615 -1.4281
  470TIP3    H222826   1.126   4.188   1.653 -1.6011 -0.2241  0.3785
  471TIP3   OH222827   1.167   6.626   5.218  0.3862  0.5020  0.1186
  471TIP3    H122828   1.242   6.576   5.187  1.0701  0.7446  1.3414
  471TIP3    H222829   1.140   6.678   5.142  0.4798 -0.7157 -0.7775
  472TIP3   OH222830   1.147   2.032  13.501  0.0643  0.1159 -0.0279
  472TIP3    H122831   1.099   2.097  13.450  0.7221 -2.1043 -3.8094
  472TIP3    H222832   1.229   2.076  13.524  0.1647  0.9301 -1.8038
  473TIP3   OH222833   3.607   2.273  15.926 -0.2646 -0.2849  0.0288
  473TIP3    H122834   3.677   2.289  15.990 -0.3699 -2.1863  0.6790
  473TIP3    H222835   3.653   2.252  15.845 -0.0902 -0.3122  0.1330
  474TIP3   OH222836   6.250   1.372  15.634  0.4334  0.1412  0.2960
  474TIP3    H122837   6.288   1.441  15.689  0.7733  1.5545 -1.5892
  474TIP3    H222838   6.305   1.372  15.555  0.4611 -2.3682  0.2429
  475TIP3   OH222839   4.392   5.626   5.701 -0.2856  0.0410  0.4731
  475TIP3    H122840   4.389   5.634   5.796 -1.0409 -1.9062  0.6565
  475TIP3    H222841   4.302   5.611   5.674  0.2637 -3.4032 -0.0423
  476TIP3   OH222842   5.656   0.123   4.291 -0.7450  0.3524  0.8573
  476TIP3    H122843   5.704   0.040   4.285  0.2253  0.9262  0.3926
  476TIP3    H222844   5.650   0.154   4.201  0.3409  1.5629  1.1711
  477TIP3   OH222845   1.677   1.155  17.270 -0.5195  0.5258 -0.4061
  477TIP3    H122846   1.628   1.091  17.321  0.7720 -0.2089 -0.0361
  477TIP3    H222847   1.731   1.201  17.334 -1.6718  2.2736 -0.6054
  478TIP3   OH222848   1.435   1.028  14.591  0.3339  0.3702 -0.0938
  478TIP3    H122849   1.403   1.001  14.677 -0.7732  0.1669 -0.5468
  478TIP3    H222850   1.397   1.114  14.577 -0.7493 -0.2199 -0.9934
  479TIP3   OH222851   2.996   0.677   1.638  0.4083  0.1028 -0.3435
  479TIP3    H122852   2.934   0.625   1.588  0.8662  0.4977 -1.3453
  479TIP3    H222853   2.984   0.648   1.729 -0.6969 -0.3486 -0.6222
  480TIP3   OH222854   3.816   5.964   5.809 -0.6890  0.1939 -0.1398
  480TIP3    H122855   3.755   5.938   5.740  0.5720 -0.4998 -1.0134
  480TIP3    H222856   3.810   6.060   5.811 -0.7578  0.2203 -1.2016
  481TIP3   OH222857   0.895   6.297   2.057 -0.5459  0.0103 -0.1095
  481TIP3    H122858   0.860   6.222   2.105  1.0818  0.9377  2.7898
  481TIP3    H222859   0.823   6.360   2.054 -1.1096 -0.6330 -0.1645
  482TIP3   OH222860   0.619   6.726   1.350  0.0037 -0.2913  0.8063
  482TIP3    H122861   0.583   6.699   1.266  1.0354 -2.7215  1.0751
  482TIP3    H222862   0.705   6.763   1.328 -0.6403  1.1904  0.6296
  483TIP3   OH222863   0.488   1.001   4.648  0.3070  0.1094 -0.4429
  483TIP3    H122864   0.414   0.972   4.701  0.9534 -2.7968 -0.9546
  483TIP3    H222865   0.560   0.944   4.675  1.7997  1.4117 -1.4721
  484TIP3   OH222866   1.244   5.736   5.265 -0.8838 -0.1210 -0.0150
  484TIP3    H122867   1.294   5.790   5.326  1.5757 -0.6140 -1.4778
  484TIP3    H222868   1.263   5.772   5.179 -3.3030 -0.2107 -0.6810
  485TIP3   OH222869   1.870   4.166  14.111 -0.3865 -0.3143  0.5894
  485TIP3    H122870   1.805   4.199  14.174  2.0126  1.0684  2.5072
  485TIP3    H222871   1.845   4.208  14.028 -2.0278  0.0286  1.2080
  486TIP3   OH222872   1.761   1.023   1.944 -0.0557  0.0262  0.2175
  486TIP3    H122873   1.724   0.950   1.895 -0.1875 -0.5551  1.1504
  486TIP3    H222874   1.849   1.033   1.910 -0.3583  0.0515 -0.5691
  487TIP3   OH222875   1.526   5.350  12.721 -0.2021 -0.2867  0.2102
  487TIP3    H122876   1.493   5.404  12.649  0.7212 -0.1853 -0.1548
  487TIP3    H222877   1.552   5.413  12.788  0.3467 -0.2941  0.0122
  488TIP3   OH222878   3.306   2.135   5.195 -0.2484 -0.1985  0.3049
  488TIP3    H122879   3.245   2.178   5.135 -0.2013 -0.0389  0.3712
  488TIP3    H222880   3.270   2.047   5.207  0.2322 -0.5355 -0.6715
  489TIP3   OH222881   4.543   0.408  15.419 -0.0489  0.4300  0.0618
  489TIP3    H122882   4.597   0.414  15.498 -0.7107  0.0262  0.5530
  489TIP3    H222883   4.606   0.408  15.347  0.5973  0.1467  0.6191
  490TIP3   OH222884   0.185   2.019   2.394  0.4681 -0.1439 -0.5155
  490TIP3    H122885   0.195   1.937   2.345  0.3514 -0.2725 -0.3254
  490TIP3    H222886   0.126   1.997   2.466  2.3014 -0.4890  0.9326
  491TIP3   OH222887   0.480   4.937   5.278  0.3767 -0.5714  0.4329
  491TIP3    H122888   0.407   4.970   5.226  1.5410  0.0381 -0.8931
  491TIP3    H222889   0.446   4.858   5.321 -1.3777  0.3295  0.7771
  492TIP3   OH222890   5.817   2.401  13.339  0.1969 -0.1338  0.3030
  492TIP3    H122891   5.911   2.400  13.322  0.0257 -0.2112 -0.7268
  492TIP3    H222892   5.809   2.422  13.432  1.1850  1.3799  0.0779
  493TIP3   OH222893   0.852   1.952  15.886 -0.9241  0.1503 -0.5240
  493TIP3    H122894   0.880   2.015  15.820  1.1843  0.5086  0.6028
  493TIP3    H222895   0.839   2.005  15.965 -1.4057 -0.5274 -0.1446
  494TIP3   OH222896   4.125   4.577   1.013  0.0499  0.3200  0.1114
  494TIP3    H122897   4.211   4.547   0.983  0.6544 -0.7147  2.6312
  494TIP3    H222898   4.125   4.671   0.995  1.0991  0.1056 -1.2450
  495TIP3   OH222899   0.107   2.136  14.473  0.3730 -0.2700 -0.4131
  495TIP3    H122900   0.020   2.175  14.478  1.1572  1.5736 -0.1344
  495TIP3    H222901   0.148   2.161  14.556  0.5361 -2.8282  0.3565
  496TIP3   OH222902   6.677   2.674   5.156 -0.3406  0.0634 -0.6264
  496TIP3    H122903   6.607   2.633   5.207  0.8371 -0.0583  0.9550
  496TIP3    H222904   6.681   2.764   5.189  0.6601 -0.1130 -0.2370
  497TIP3   OH222905   3.759   6.089   4.184  0.1321  0.5095 -0.1389
  497TIP3    H122906   3.796   6.149   4.118 -1.3689  1.0928 -0.4924
  497TIP3    H222907   3.785   6.128   4.268 -1.1634  1.9242 -0.3578
  498TIP3   OH222908   1.376   1.630   1.423  0.4350 -0.5204  0.5411
  498TIP3    H122909   1.414   1.670   1.345 -1.6350  0.8111  0.1528
  498TIP3    H222910   1.432   1.659   1.495 -0.3724  2.3630  0.1414
  499TIP3   OH222911   4.807   1.422   4.178  0.1213  0.1091 -0.2101
  499TIP3    H122912   4.878   1.457   4.231 -0.8058  1.3073  0.2890
  499TIP3    H222913   4.836   1.434   4.088 -0.6260  3.3747 -0.1253
  500TIP3   OH222914   1.465   3.001  12.974 -0.4321  0.8401 -0.4756
  500TIP3    H122915   1.446   3.051  13.054 -1.2280  2.9903 -1.9307
  500TIP3    H222916   1.444   2.910  12.998 -3.8031  1.8013  0.8539
  501TIP3   OH222917   0.066   3.360   3.818  0.6859 -0.0924  0.4761
  501TIP3    H122918   0.053   3.354   3.724 -0.8757 -1.0790  0.7172
  501TIP3    H222919   0.048   3.452   3.839 -1.6381 -0.4034  0.1268
  502TIP3   OH222920   1.653   4.410   2.408 -0.1293  0.1919  0.2730
  502TIP3    H122921   1.673   4.334   2.462 -1.0311  0.9601  1.7512
  502TIP3    H222922   1.566   4.437   2.437 -0.2916  1.1226 -1.0102
  503TIP3   OH222923   1.123   2.607   4.870 -0.2235  0.1841 -0.1015
  503TIP3    H122924   1.163   2.595   4.956  0.3402  1.5652 -0.1372
  503TIP3    H222925   1.037   2.566   4.878  0.1286 -0.4221  0.8563
  504TIP3   OH222926   0.561   4.855  16.763 -0.1200  0.4102  0.2030
  504TIP3    H122927   0.501   4.928  16.747 -3.0353 -1.6048  1.0555
  504TIP3    H222928   0.566   4.849  16.858 -0.3925 -0.8227  0.1510
  505TIP3   OH222929   4.957   1.074  15.540 -0.0110 -0.3148 -0.7238
  505TIP3    H122930   4.988   1.154  15.497 -0.3500 -0.2198 -0.7891
  505TIP3    H222931   5.038   1.025  15.560  0.2227  0.2321 -0.3004
  506TIP3   OH222932   1.229   2.816  14.393  0.0389 -0.0392  0.0805
  506TIP3    H122933   1.285   2.741  14.408 -0.1306 -0.3865 -0.9666
  506TIP3    H222934   1.141   2.779  14.384 -0.1180  0.3346  0.0593
  507TIP3   OH222935   6.064   4.729   1.998  0.0782 -0.1747  0.1157
  507TIP3    H122936   6.129   4.748   1.930 -0.7562  0.8996 -0.4252
  507TIP3    H222937   6.014   4.811   2.007 -0.9490 -0.8457  0.7856
  508TIP3   OH222938   4.252   4.082   4.092  0.0008 -0.8703 -0.1791
  508TIP3    H122939   4.238   4.086   4.187 -1.4651  0.2274 -0.3985
  508TIP3    H222940   4.184   4.140   4.056  1.9912  0.6334 -1.7495
  509TIP3   OH222941   5.287   3.317   4.066 -0.6686 -0.5482 -0.2265
  509TIP3    H122942   5.369   3.320   4.115  0.0054 -2.2089 -1.1548
  509TIP3    H222943   5.269   3.408   4.042  0.8622 -0.1571  0.0443
  510TIP3   OH222944   4.157   0.968   3.829  0.7261 -0.2198 -0.4244
  510TIP3    H122945   4.096   0.958   3.902  0.8397  2.4201  0.1143
  510TIP3    H222946   4.211   0.888   3.833 -0.9995 -1.4059  0.6464
  511TIP3   OH222947   4.157   5.184   1.129  0.0862 -0.4886 -0.1864
  511TIP3    H122948   4.088   5.122   1.150  1.5355 -2.7083 -1.5840
  511TIP3    H222949   4.130   5.223   1.046  0.5064 -1.4355 -0.7888
  512TIP3   OH222950   1.056   4.207  10.967  0.0635 -0.0609  0.0224
  512TIP3    H122951   1.150   4.222  10.977  0.3713  1.1903 -3.3723
  512TIP3    H222952   1.016   4.285  11.004  0.2062 -1.0383  2.4022
  513TIP3   OH222953   3.848   4.953   5.374  0.1410  0.4136  0.0684
  513TIP3    H122954   3.758   4.924   5.391  0.2753  1.1007  2.2438
  513TIP3    H222955   3.898   4.872   5.368 -0.3515  0.0593  0.5915
  514TIP3   OH222956   5.755   3.627   5.132  0.5662  0.6197  0.3973
  514TIP3    H122957   5.819   3.661   5.069 -0.0032  2.3232  0.6660
  514TIP3    H222958   5.671   3.636   5.089  0.3350  0.0834  0.7241
  515TIP3   OH222959   2.888   2.596   2.312 -0.0073 -0.1090  0.3348
  515TIP3    H122960   2.829   2.559   2.377 -0.5873  0.2986  0.0434
  515TIP3    H222961   2.975   2.591   2.352 -0.2787 -0.4305  0.8826
  516TIP3   OH222962   0.660   0.786   3.769 -0.0030 -0.4042 -0.7311
  516TIP3    H122963   0.593   0.853   3.754  1.3566  0.7185 -2.1812
  516TIP3    H222964   0.645   0.722   3.699  0.3389 -0.2177 -0.9786
  517TIP3   OH222965   6.082   6.727   3.967  0.0400 -0.7832 -0.7255
  517TIP3    H122966   6.069   6.813   4.009 -0.6486 -0.9899 -0.4962
  517TIP3    H222967   6.018   6.726   3.896 -1.9567 -2.1677  0.9468
  518TIP3   OH222968   1.738   3.241   2.116  0.0677 -0.2311 -0.3326
  518TIP3    H122969   1.695   3.326   2.108 -0.1822 -0.4898 -2.2206
  518TIP3    H222970   1.801   3.253   2.187 -2.5030  0.3928  2.0261
  519TIP3   OH222971   2.745   0.830   1.368 -0.1128 -0.2598  0.0302
  519TIP3    H122972   2.744   0.798   1.459 -1.4087  0.2727  0.2359
  519TIP3    H222973   2.715   0.921   1.375  1.5926  0.4049 -0.7504
  520TIP3   OH222974   4.774   5.788   5.314 -0.4887  0.0571 -0.1638
  520TIP3    H122975   4.801   5.806   5.404 -0.9985 -0.7303  0.1580
  520TIP3    H222976   4.703   5.850   5.297 -0.3284  0.2704 -0.0595
  521TIP3   OH222977   6.167   0.229   0.882  0.8442 -0.3528 -0.3415
  521TIP3    H122978   6.119   0.304   0.846  0.2607 -0.4035  0.3090
  521TIP3    H222979   6.226   0.268   0.947  1.3920 -0.3370 -0.8406
  522TIP3   OH222980   4.990   2.606   5.036 -0.0838 -0.2749 -1.0122
  522TIP3    H122981   5.044   2.600   4.957  0.9667  1.6333 -0.5129
  522TIP3    H222982   5.041   2.662   5.095 -2.0617  0.5782 -0.0294
  523TIP3   OH222983   2.785   3.596   3.929 -0.0781 -0.2534  0.5925
  523TIP3    H122984   2.788   3.504   3.902  2.3860  0.3383 -1.5349
  523TIP3    H222985   2.819   3.644   3.854  4.3438  1.8786  3.4994
  524TIP3   OH222986   3.350   5.295   5.598  0.1494 -0.1879  0.0100
  524TIP3    H122987   3.365   5.314   5.691  0.6452 -3.5331  0.7443
  524TIP3    H222988   3.406   5.358   5.552  1.4881  0.2234  2.0402
  525TIP3   OH222989   2.310   1.816   0.148  0.0471  0.3218 -0.2696
  525TIP3    H122990   2.381   1.845   0.205 -1.2957  2.5776  0.3901
  525TIP3    H222991   2.317   1.872   0.071  0.7745 -1.5132 -1.5868
  526TIP3   OH222992   4.888   5.981  15.870  0.4001  0.2135 -0.6508
  526TIP3    H122993   4.950   6.043  15.833  0.6454  0.9602  0.9438
  526TIP3    H222994   4.942   5.916  15.914  0.0931  1.2101  1.2844
  527TIP3   OH222995   4.486   2.450   2.588 -0.1019  0.3278  0.1102
  527TIP3    H122996   4.413   2.506   2.616  0.1259  0.6666  0.0248
  527TIP3    H222997   4.540   2.440   2.666  0.6110  1.3915 -0.2288
  528TIP3   OH222998   2.085   4.007  14.159 -0.3350  0.6026  0.4676
  528TIP3    H122999   2.010   4.065  14.147 -0.9422 -0.3771 -0.6247
  528TIP3    H223000   2.059   3.948  14.230 -0.7385  0.0754 -0.1061
  529TIP3   OH223001   2.022   0.239   5.779 -0.2582  0.2840  0.8083
  529TIP3    H123002   1.985   0.205   5.861  0.5025  0.4474  1.2332
  529TIP3    H223003   2.050   0.161   5.731 -2.1266  0.0741 -0.0315
  530TIP3   OH223004   4.378   2.137  14.178  0.4173 -0.2580  0.2441
  530TIP3    H123005   4.329   2.219  14.182  0.4022 -0.2099 -0.6562
  530TIP3    H223006   4.409   2.132  14.088  2.1834 -0.2314  0.8219
  531TIP3   OH223007   0.335   3.687   4.327 -0.0302 -0.6360 -0.3071
  531TIP3    H123008   0.339   3.596   4.296 -1.1405 -1.4015  1.5754
  531TIP3    H223009   0.242   3.707   4.331  0.2178  0.8950 -1.4017
  532TIP3   OH223010   6.593   3.139   0.075 -0.2692 -0.4992 -0.2630
  532TIP3    H123011   6.608   3.218   0.024 -1.1766 -1.2268 -1.7339
  532TIP3    H223012   6.524   3.163   0.136  1.0814  0.4903  0.9391
  533TIP3   OH223013   3.034   1.757  15.174 -0.1203 -0.2053  0.2790
  533TIP3    H123014   2.986   1.695  15.120 -0.5792  0.3923 -0.0157
  533TIP3    H223015   3.013   1.843  15.136  0.7112  0.1099  0.5142
  534TIP3   OH223016   4.185   3.695   6.150 -0.5143 -0.1123 -0.1989
  534TIP3    H123017   4.119   3.640   6.191 -0.6326 -0.4967 -0.8860
  534TIP3    H223018   4.136   3.765   6.108 -0.3954  0.2767  0.3074
  535TIP3   OH223019   6.751   1.099  16.088  0.2706  0.1526 -0.0544
  535TIP3    H123020   6.724   1.166  16.026  0.3987 -0.9816 -1.3751
  535TIP3    H223021   6.732   1.016  16.044  1.8039 -0.6826  0.7796
  536TIP3   OH223022   3.019   2.568  15.662 -0.0666 -0.3222 -0.0023
  536TIP3    H123023   2.926   2.580  15.641 -0.2723 -0.1617  0.9709
  536TIP3    H223024   3.053   2.657  15.671 -0.2638 -0.3685  1.4948
  537TIP3   OH223025   1.022   1.174   5.631  0.0101  0.3609  0.1815
  537TIP3    H123026   1.035   1.235   5.704 -0.0130 -1.1254  1.4829
  537TIP3    H223027   0.937   1.134   5.648 -0.1701  0.2692 -0.8865
  538TIP3   OH223028   1.046   5.167   4.344 -0.0333 -0.4099 -0.1656
  538TIP3    H123029   1.110   5.097   4.336  1.4584  0.8979 -0.1326
  538TIP3    H223030   0.974   5.140   4.288  1.1541 -1.2713 -1.3395
  539TIP3   OH223031   6.489   2.218   3.091 -0.3883 -0.1712 -0.2403
  539TIP3    H123032   6.469   2.129   3.120 -0.1865  0.7134  2.9663
  539TIP3    H223033   6.573   2.210   3.046  0.0242 -1.4753  0.7126
  540TIP3   OH223034   4.481   0.632   0.504 -0.1224  0.6297  0.7876
  540TIP3    H123035   4.509   0.633   0.595  1.3756 -1.2606  0.4084
  540TIP3    H223036   4.539   0.570   0.461 -2.8072 -0.9963 -0.8170
  541TIP3   OH223037   0.943   0.250   2.470  0.5157 -0.1474 -0.2414
  541TIP3    H123038   0.980   0.270   2.557 -0.2138 -0.5095  0.1557
  541TIP3    H223039   0.973   0.161   2.451 -0.8410 -0.7895  0.4751
  542TIP3   OH223040   0.219   0.994  16.927 -0.8301 -0.5140  0.6148
  542TIP3    H123041   0.200   1.088  16.931  1.3532 -0.0235  0.6541
  542TIP3    H223042   0.148   0.958  16.875 -1.2161  1.3162 -0.2175
  543TIP3   OH223043   3.354   0.337   1.951 -0.5163 -0.0199  0.3691
  543TIP3    H123044   3.279   0.368   1.900 -0.5463  0.3178  0.6156
  543TIP3    H223045   3.415   0.302   1.885 -1.6436 -1.9583  0.2843
  544TIP3   OH223046   2.337   3.134   4.352  0.5382 -0.5430 -0.2452
  544TIP3    H123047   2.397   3.208   4.351  2.1632 -1.7818  0.5061
  544TIP3    H223048   2.364   3.079   4.278 -1.1449 -0.0478 -1.2689
  545TIP3   OH223049   1.680   3.519  15.623 -0.0820 -0.9859 -0.1494
  545TIP3    H123050   1.647   3.522  15.713  1.0467 -0.0411  0.2568
  545TIP3    H223051   1.615   3.568  15.573 -0.3353 -0.8668  0.2824
  546TIP3   OH223052   5.908   6.280  15.140  0.6290 -0.3027 -0.0273
  546TIP3    H123053   5.985   6.228  15.117  1.1816  0.0452  0.9435
  546TIP3    H223054   5.849   6.217  15.182  0.5016 -0.5119 -0.5139
  547TIP3   OH223055   5.282   1.808   2.493 -0.2377  0.3229  0.2148
  547TIP3    H123056   5.346   1.806   2.423  0.8158  1.7964  1.0819
  547TIP3    H223057   5.200   1.834   2.451 -0.3956 -1.8091 -0.9433
  548TIP3   OH223058   3.504   4.482  14.220  0.3116 -0.5776  0.4152
  548TIP3    H123059   3.409   4.484  14.209  0.1898  0.0144  1.4256
  548TIP3    H223060   3.538   4.540  14.152 -0.1002 -0.3034  0.4435
  549TIP3   OH223061   4.732   3.728  16.784  0.4134 -0.3162  1.1346
  549TIP3    H123062   4.802   3.774  16.736  1.3253 -0.5674  2.1929
  549TIP3    H223063   4.728   3.642  16.743 -1.3607  0.6282 -0.9182
  550TIP3   OH223064   4.755   2.095   3.105 -0.0576  0.3320 -0.1021
  550TIP3    H123065   4.797   2.010   3.106 -0.8782 -0.1632 -2.0755
  550TIP3    H223066   4.684   2.086   3.041  0.6996  2.8593 -1.4409
  551TIP3   OH223067   6.525   1.920   5.588 -0.1690 -0.2448 -0.7318
  551TIP3    H123068   6.568   1.838   5.615 -0.9800 -0.0965  1.1780
  551TIP3    H223069   6.587   1.960   5.526  1.7881 -0.7394  0.7942
  552TIP3   OH223070   4.662   2.165   2.561 -0.0177  0.4997 -0.1399
  552TIP3    H123071   4.714   2.089   2.538 -0.4236  0.4747 -0.9920
  552TIP3    H223072   4.689   2.233   2.499  1.7542  1.7006  1.7770
  553TIP3   OH223073   4.869   6.144   6.889  0.1696 -0.5218  0.3663
  553TIP3    H123074   4.825   6.064   6.862  1.7621 -0.6585 -2.1606
  553TIP3    H223075   4.835   6.211   6.830 -0.0976  0.3740  1.5146
  554TIP3   OH223076   6.451   3.413  11.656  0.1055 -0.1133 -0.5436
  554TIP3    H123077   6.370   3.363  11.668 -0.4753  0.7306 -0.8884
  554TIP3    H223078   6.445   3.484  11.720 -0.5352  1.3049 -2.0842
  555TIP3   OH223079   6.403   0.115   2.354  0.1946 -0.0601 -0.3787
  555TIP3    H123080   6.400   0.184   2.288 -1.5556  0.2722  0.0136
  555TIP3    H223081   6.322   0.066   2.342  1.4692 -2.2576 -0.8055
  556TIP3   OH223082   2.499   3.463  11.540 -0.1455  0.0308 -0.2291
  556TIP3    H123083   2.420   3.496  11.498 -0.5970 -0.4974  0.1851
  556TIP3    H223084   2.526   3.534  11.599 -0.8692 -0.1617  0.3463
  557TIP3   OH223085   4.562   0.436   0.937 -0.1834 -0.1453 -0.0990
  557TIP3    H123086   4.559   0.514   0.991  0.5328  0.0252 -0.3019
  557TIP3    H223087   4.569   0.364   0.999 -2.2376 -0.1838  0.1661
  558TIP3   OH223088   3.547   6.513   3.559  0.1331  0.3597 -0.2105
  558TIP3    H123089   3.473   6.457   3.582  0.4760  0.7076  1.9489
  558TIP3    H223090   3.507   6.588   3.515 -0.6188 -0.2058 -0.5106
  559TIP3   OH223091   0.439   4.446  13.856 -0.1445  0.0058  0.5065
  559TIP3    H123092   0.494   4.433  13.933 -0.8956 -0.8494  0.9228
  559TIP3    H223093   0.405   4.359  13.836  0.6546  0.0560 -1.2946
  560TIP3   OH223094   4.964   3.285   5.745 -0.0743  0.7185  0.2404
  560TIP3    H123095   4.947   3.258   5.654  0.3783 -0.3052  0.4415
  560TIP3    H223096   4.887   3.253   5.793  0.4496 -0.2246  0.4751
  561TIP3   OH223097   0.708   3.349  11.895  0.2609  0.3463  0.3702
  561TIP3    H123098   0.624   3.371  11.937 -0.5063 -1.0654 -0.3635
  561TIP3    H223099   0.685   3.286  11.827  1.6773  1.4724 -1.2249
  562TIP3   OH223100   2.859   6.029  11.414 -0.1774  0.7834  0.4609
  562TIP3    H123101   2.828   6.076  11.336  0.4596 -0.3953 -0.5337
  562TIP3    H223102   2.927   6.086  11.450 -0.3682  1.2704  0.0704
  563TIP3   OH223103   5.269   4.356   4.347 -0.0372 -0.3826  0.3093
  563TIP3    H123104   5.269   4.275   4.297  1.0775 -1.5317  2.0579
  563TIP3    H223105   5.248   4.424   4.283 -1.0752 -2.0325 -1.1895
  564TIP3   OH223106   5.165   3.030   5.461  0.2960  0.3526 -0.4637
  564TIP3    H123107   5.119   3.099   5.414  0.0366 -0.5515 -1.5956
  564TIP3    H223108   5.257   3.055   5.457  0.2334  0.4991 -1.1257
  565TIP3   OH223109   2.401   4.410  15.587  0.5704 -0.6717  0.0257
  565TIP3    H123110   2.359   4.472  15.647  2.0617  0.5785 -0.1659
  565TIP3    H223111   2.373   4.324  15.618 -1.4105  0.0657  0.4118
  566TIP3   OH223112   0.800   0.730   3.299  0.3604  0.1287  0.0858
  566TIP3    H123113   0.870   0.753   3.361  0.3564  1.3192 -0.3131
  566TIP3    H223114   0.775   0.814   3.261 -0.4634 -0.4456 -0.6550
  567TIP3   OH223115   3.529   2.469   3.241  0.2554  0.2415 -0.3578
  567TIP3    H123116   3.480   2.550   3.229 -0.6252 -0.3371 -0.7135
  567TIP3    H223117   3.606   2.480   3.185 -0.0818  0.6466 -0.7514
  568TIP3   OH223118   6.550   3.443  12.132  0.0617  0.8066 -0.2632
  568TIP3    H123119   6.579   3.428  12.042  1.4543  1.4480  0.0450
  568TIP3    H223120   6.514   3.360  12.160  1.3170  0.0459 -0.8129
  569TIP3   OH223121   1.480   5.633  13.327  0.7830  0.0053 -0.0113
  569TIP3    H123122   1.500   5.711  13.378  1.3360  0.0248 -0.2606
  569TIP3    H223123   1.476   5.563  13.392 -0.9501  0.4210  0.3967
  570TIP3   OH223124   3.963   3.199   0.229 -0.1354  0.2715  0.9747
  570TIP3    H123125   4.051   3.202   0.192 -0.1950  1.4183  0.8754
  570TIP3    H223126   3.943   3.106   0.236  0.7493  0.0044  0.2064
  571TIP3   OH223127   1.965   3.485   4.759  0.2571 -0.2589 -0.1653
  571TIP3    H123128   2.026   3.444   4.819 -0.3055 -1.3873 -0.3490
  571TIP3    H223129   1.882   3.441   4.774 -0.4499  1.0205 -0.1548
  572TIP3   OH223130   5.527   4.513   4.074 -0.0759  0.0351 -0.5282
  572TIP3    H123131   5.508   4.585   4.013  0.2365  1.1637  0.6475
  572TIP3    H223132   5.565   4.444   4.020  0.9411  1.3061 -1.4960
  573TIP3   OH223133   6.156   1.199  13.503 -0.4494  0.1840  0.2224
  573TIP3    H123134   6.236   1.240  13.471 -0.2518 -0.0870  0.3657
  573TIP3    H223135   6.091   1.215  13.434  0.8094 -3.4079 -2.0612
  574TIP3   OH223136   1.797   3.151  15.828  0.2894 -0.3466 -0.5234
  574TIP3    H123137   1.798   3.113  15.916  0.7378  0.3290 -0.2314
  574TIP3    H223138   1.784   3.076  15.770 -2.2482 -0.5699  0.2266
  575TIP3   OH223139   6.044   0.616   3.693  0.6545 -0.2970 -0.4267
  575TIP3    H123140   5.993   0.620   3.613  0.0031  1.7403  0.0340
  575TIP3    H223141   6.012   0.689   3.746  2.5762 -0.2500  0.7800
  576TIP3   OH223142   0.147   6.758  11.388  0.0865  0.1725 -0.4494
  576TIP3    H123143   0.210   6.790  11.452  0.9388 -2.9457  0.4889
  576TIP3    H223144   0.064   6.757  11.435  0.4076 -0.5845  0.1374
  577TIP3   OH223145   0.636   6.758  10.866 -0.0550  0.3037  0.1182
  577TIP3    H123146   0.688   6.698  10.813 -0.4342  0.1298 -0.0512
  577TIP3    H223147   0.547   6.723  10.864  0.3368 -1.1638  2.9235
  578TIP3   OH223148   4.160   1.155   1.357  0.6004  0.2091 -0.0431
  578TIP3    H123149   4.077   1.202   1.369  1.0219  0.9093  0.1878
  578TIP3    H223150   4.155   1.082   1.418 -0.3509 -0.4699 -0.8801
  579TIP3   OH223151   0.715   5.223   1.625 -0.9331  0.0742  0.3568
  579TIP3    H123152   0.774   5.258   1.692 -1.5165 -0.5612  1.2286
  579TIP3    H223153   0.656   5.296   1.605  0.1581  0.7305 -0.5623
  580TIP3   OH223154   0.003   6.436  13.014 -0.1417  0.1806  0.1819
  580TIP3    H123155   0.058   6.425  12.936 -1.1035  1.2327 -0.6784
  580TIP3    H223156  -0.027   6.347  13.034 -0.9971  0.0441 -1.5131
  581TIP3   OH223157   2.775   4.596  14.153  0.1406  0.5390  0.2622
  581TIP3    H123158   2.716   4.548  14.211  0.2510 -1.0879 -0.8882
  581TIP3    H223159   2.837   4.530  14.121 -0.3186  1.1708 -2.1738
  582TIP3   OH223160   2.134   5.863   3.447 -0.2784 -0.4853 -0.5611
  582TIP3    H123161   2.125   5.796   3.380  0.0280 -0.0623 -1.0367
  582TIP3    H223162   2.220   5.902   3.431 -0.0059 -0.6766  0.3588
  583TIP3   OH223163   1.796   5.642  12.136 -0.1265  0.2250 -0.3864
  583TIP3    H123164   1.765   5.732  12.124 -0.4053  0.2695  0.6121
  583TIP3    H223165   1.861   5.648  12.206 -0.4328 -0.4077 -0.0430
  584TIP3   OH223166   6.128   0.736  12.366 -0.0328  0.7862 -0.0073
  584TIP3    H123167   6.146   0.816  12.416 -0.2950  0.0015  1.4131
  584TIP3    H223168   6.041   0.708  12.397 -0.2748  0.3612 -1.0487
  585TIP3   OH223169   3.024   6.397   6.396  0.3444 -0.2892 -0.8369
  585TIP3    H123170   3.043   6.367   6.485 -0.4016 -0.5439 -0.7570
  585TIP3    H223171   2.966   6.330   6.360  0.5049 -0.1028 -1.4586
  586TIP3   OH223172   4.734   0.813   2.376  0.1572 -0.4983  0.6906
  586TIP3    H123173   4.641   0.819   2.400 -0.4411 -0.9706 -1.3763
  586TIP3    H223174   4.742   0.729   2.331  1.1324  0.4596 -1.0046
  587TIP3   OH223175   3.170   1.647  11.396  0.7801 -0.2184  0.4483
  587TIP3    H123176   3.203   1.581  11.457  0.0763 -1.3818 -0.3898
  587TIP3    H223177   3.158   1.600  11.314 -0.5637  0.7498  0.0519
  588TIP3   OH223178   2.837   6.143  10.883  0.2879 -0.3272  0.4099
  588TIP3    H123179   2.932   6.136  10.896  0.5886 -0.6514 -1.6568
  588TIP3    H223180   2.815   6.068  10.828 -0.7948  0.9068 -0.9035
  589TIP3   OH223181   2.883   1.348  10.689 -0.9395 -0.4044 -0.0960
  589TIP3    H123182   2.830   1.279  10.649 -1.7658 -0.5703  1.2338
  589TIP3    H223183   2.962   1.303  10.719 -0.0670 -0.1905 -1.9100
  590TIP3   OH223184   2.841   0.883   4.053 -0.5327  0.1102  0.5605
  590TIP3    H123185   2.773   0.934   4.008 -0.9096 -0.1501  0.8301
  590TIP3    H223186   2.854   0.929   4.136  0.3221  0.7192  0.1110
  591TIP3   OH223187   4.612   2.534  11.758  0.4025  0.2297 -0.9185
  591TIP3    H123188   4.676   2.565  11.694  3.4115  0.0820  1.7936
  591TIP3    H223189   4.615   2.438  11.749  1.8290  0.1362  0.2477
  592TIP3   OH223190   5.207   5.925   4.886  0.4375  0.2443 -0.4212
  592TIP3    H123191   5.169   6.007   4.917 -0.9413  0.5647 -2.7286
  592TIP3    H223192   5.189   5.924   4.791  0.0491 -2.8889 -0.4346
  593TIP3   OH223193   5.899   2.588  12.963 -0.3992 -0.2755  0.3529
  593TIP3    H123194   5.818   2.626  12.994  0.4738  0.7492  1.4734
  593TIP3    H223195   5.925   2.527  13.033 -0.5809 -1.1805 -0.3504
  594TIP3   OH223196   4.474   1.381   2.033 -0.1444  0.1156  0.0196
  594TIP3    H123197   4.462   1.476   2.033 -2.2324 -0.1136  0.1505
  594TIP3    H223198   4.566   1.369   2.009 -0.3389  2.1140 -2.1023
  595TIP3   OH223199   2.473   6.438   5.431 -0.3264 -0.5492  0.4254
  595TIP3    H123200   2.413   6.513   5.423  0.0516 -0.1685  1.0688
  595TIP3    H223201   2.520   6.454   5.513 -0.0084 -1.3281  0.3985
  596TIP3   OH223202   3.640   4.260  11.701  0.3110 -0.1614  0.3999
  596TIP3    H123203   3.654   4.185  11.644 -1.3401  1.8871 -3.0345
  596TIP3    H223204   3.545   4.267  11.710  0.4487  1.2035  1.0795
  597TIP3   OH223205   1.594   1.889   6.768 -0.0076 -0.3197 -0.4103
  597TIP3    H123206   1.689   1.899   6.761 -0.0258 -0.8659 -1.8295
  597TIP3    H223207   1.565   1.968   6.814  1.2119 -0.5949  0.8910
  598TIP3   OH223208   1.556   1.175  10.506 -0.6274 -0.4431 -0.3147
  598TIP3    H123209   1.584   1.262  10.476 -2.7005  0.8131  1.1582
  598TIP3    H223210   1.637   1.123  10.506  0.3365  0.8104 -3.2500
  599TIP3   OH223211   1.383   4.041  11.536  0.0959 -0.4569  0.2065
  599TIP3    H123212   1.453   4.001  11.588  0.4095 -0.6588 -0.3601
  599TIP3    H223213   1.394   4.004  11.448  1.2003  1.7502 -0.6912
  600TIP3   OH223214   4.868   1.522  12.113  0.4615  0.2206  0.0629
  600TIP3    H123215   4.832   1.443  12.153 -1.1313  0.2635 -1.1938
  600TIP3    H223216   4.875   1.585  12.185  0.1695 -0.5296  0.7558
  601TIP3   OH223217   2.373   5.160  12.800  0.1795 -0.6277 -0.1513
  601TIP3    H123218   2.292   5.137  12.845  0.4105  0.4836  0.8756
  601TIP3    H223219   2.405   5.077  12.764 -1.2809 -1.1136 -0.3761
  602TIP3   OH223220   3.601   0.963  16.142  0.2156 -0.6279 -0.1964
  602TIP3    H123221   3.558   0.905  16.080  2.1676 -0.0886 -2.1508
  602TIP3    H223222   3.679   0.916  16.171  0.4567 -0.0066  0.1990
  603TIP3   OH223223   5.937   1.410  14.285  0.0179  0.0566  0.2561
  603TIP3    H123224   6.026   1.400  14.253 -0.4131 -0.7656 -0.7476
  603TIP3    H223225   5.891   1.456  14.215 -0.7204 -0.9614  0.0480
  604TIP3   OH223226   0.513   6.141  10.392 -0.3379  0.0895 -0.0386
  604TIP3    H123227   0.540   6.188  10.313 -1.9764  0.1206 -0.6097
  604TIP3    H223228   0.463   6.205  10.442 -0.1994 -0.2419  0.5344
  605TIP3   OH223229   2.463   2.733  15.882  0.1696  0.0568  0.2510
  605TIP3    H123230   2.541   2.761  15.931  0.4221  1.0375 -0.6923
  605TIP3    H223231   2.489   2.650  15.841  0.9009  0.6369 -0.4809
  606TIP3   OH223232   4.813   4.781  14.097  0.1558 -0.0213 -1.0829
  606TIP3    H123233   4.908   4.793  14.094 -0.0501  1.7529 -1.3170
  606TIP3    H223234   4.779   4.838  14.028 -1.1584  0.3088 -0.2052
  607TIP3   OH223235   3.087   4.844   3.105  0.3642 -0.5209  0.1786
  607TIP3    H123236   3.170   4.800   3.091  0.2683 -0.3008 -1.3181
  607TIP3    H223237   3.109   4.937   3.106  0.0876 -0.4281 -0.8705
  608TIP3   OH223238   3.210   6.440  16.019  0.2481  0.1597  0.1635
  608TIP3    H123239   3.258   6.367  16.058  1.0273 -0.8041 -2.3509
  608TIP3    H223240   3.262   6.517  16.041  0.3658 -0.2506  1.4134
  609TIP3   OH223241   4.368   3.289  14.301 -0.2424 -0.5787 -0.4967
  609TIP3    H123242   4.349   3.366  14.354 -0.5069  0.2380 -1.7346
  609TIP3    H223243   4.335   3.215  14.353  0.1548  0.1208  0.7675
  610TIP3   OH223244   2.494   2.018   0.754 -0.0503  0.1770 -0.4632
  610TIP3    H123245   2.460   1.928   0.747 -1.6248  0.6095  0.9481
  610TIP3    H223246   2.443   2.057   0.825  2.9778  1.1396  1.3396
  611TIP3   OH223247   1.102   6.121  16.164  0.0062 -0.1434 -0.0701
  611TIP3    H123248   1.075   6.185  16.098  2.1477  0.1623 -0.7281
  611TIP3    H223249   1.026   6.113  16.222 -0.7817  2.0015 -0.7167
  612TIP3   OH223250   5.448   2.153  16.714  0.2150  0.3604  0.5426
  612TIP3    H123251   5.503   2.156  16.636  0.5263  0.3174  0.7611
  612TIP3    H223252   5.383   2.085  16.695 -0.9962  1.7311 -0.5304
  613TIP3   OH223253   1.110   1.802  16.207 -0.5283 -0.2174  0.3279
  613TIP3    H123254   1.060   1.720  16.209 -0.3077 -0.3504  0.4147
  613TIP3    H223255   1.046   1.869  16.183 -1.1948 -0.0773  2.3564
  614TIP3   OH223256   5.831   1.673  13.797 -0.4162  0.2370 -0.4454
  614TIP3    H123257   5.762   1.726  13.837  0.5881  0.9519  0.3883
  614TIP3    H223258   5.785   1.597  13.762 -1.4269 -0.2649  1.7604
  615TIP3   OH223259   0.371   4.864   3.992 -0.4040  0.3633 -0.0375
  615TIP3    H123260   0.417   4.912   4.062  0.6330  0.1787 -0.5890
  615TIP3    H223261   0.304   4.814   4.039 -0.2453  0.8600  0.7514
  616TIP3   OH223262   5.272   6.494   1.791  0.5462 -0.5803 -0.8484
  616TIP3    H123263   5.244   6.507   1.701  3.1722  1.9481 -1.4358
  616TIP3    H223264   5.358   6.452   1.784  0.7124 -0.5168  0.4786
  617TIP3   OH223265   4.956   5.170   5.662  0.3464  0.0674 -0.9901
  617TIP3    H123266   5.000   5.252   5.686 -1.8096  0.6458  1.3587
  617TIP3    H223267   5.022   5.103   5.679  0.6061  0.9345  2.0909
  618TIP3   OH223268   1.391   5.784  10.557  0.1023 -0.4407  0.0484
  618TIP3    H123269   1.451   5.740  10.497 -0.2725  0.1081 -0.7529
  618TIP3    H223270   1.432   5.775  10.643  1.7342  0.5867 -0.5766
  619TIP3   OH223271   5.765   2.391  11.973  0.1285  0.3908  0.0107
  619TIP3    H123272   5.822   2.427  12.040  0.8829 -1.1450  0.2334
  619TIP3    H223273   5.727   2.313  12.013  0.9508 -0.8212 -1.4649
  620TIP3   OH223274   0.869   5.679  13.543 -0.3001  0.1700  0.3582
  620TIP3    H123275   0.800   5.645  13.600 -0.7257  0.5429  0.0772
  620TIP3    H223276   0.822   5.729  13.476  0.3355  2.1222  1.2891
  621TIP3   OH223277   3.247   4.211  16.229  0.2960  0.3224  0.4457
  621TIP3    H123278   3.188   4.204  16.304  0.1731  1.6999  0.4982
  621TIP3    H223279   3.327   4.249  16.265  1.9830 -3.0894  0.7416
  622TIP3   OH223280   4.216   3.487   0.491  0.3826  0.1308  0.5338
  622TIP3    H123281   4.283   3.475   0.424  0.1656  1.2317  0.0977
  622TIP3    H223282   4.263   3.522   0.566  0.2197  1.5791 -0.0097
  623TIP3   OH223283   3.013   6.085   2.171 -0.8684 -0.3774 -0.5754
  623TIP3    H123284   3.099   6.043   2.166  0.2955  1.6307  0.7115
  623TIP3    H223285   3.002   6.128   2.086  0.6977  1.5458  0.1235
  624TIP3   OH223286   2.685   4.707   1.173 -0.0339  0.5008  0.0589
  624TIP3    H123287   2.617   4.649   1.206  0.6906 -0.3479  0.0928
  624TIP3    H223288   2.638   4.785   1.144 -1.0437 -0.1722 -0.1501
  625TIP3   OH223289   3.741   6.307   0.473  0.1299 -0.1260  0.1414
  625TIP3    H123290   3.768   6.215   0.467 -0.2022 -0.1817 -0.6415
  625TIP3    H223291   3.796   6.344   0.543  1.7979 -0.3900 -0.9607
  626TIP3   OH223292   5.024   3.284  11.385  0.1089  0.5684 -0.1981
  626TIP3    H123293   5.040   3.203  11.337 -0.9518  0.7267 -0.8531
  626TIP3    H223294   5.074   3.350  11.336 -0.4828  0.6195 -0.7532
  627TIP3   OH223295   1.361   5.914   2.475 -0.1963  0.4107  0.0524
  627TIP3    H123296   1.332   5.823   2.472  0.1931  0.3031 -0.5427
  627TIP3    H223297   1.413   5.926   2.396  0.0913  1.0398  0.3256
  628TIP3   OH223298   0.429   5.582  12.013  0.3768 -0.0085  0.5268
  628TIP3    H123299   0.373   5.641  11.963 -0.2811 -1.6710 -0.7662
  628TIP3    H223300   0.428   5.618  12.102 -0.8221  1.3234  0.0085
  629TIP3   OH223301   3.295   2.038  14.819  0.3559 -0.1331  0.0185
  629TIP3    H123302   3.239   2.064  14.746 -0.2674  1.1060  0.9058
  629TIP3    H223303   3.307   1.943  14.807 -1.3432 -0.3058 -0.6009
  630TIP3   OH223304   3.827   2.243  14.583  0.3215 -0.0576  0.4292
  630TIP3    H123305   3.744   2.290  14.590 -0.1832 -0.8424 -0.0689
  630TIP3    H223306   3.888   2.292  14.637  0.1348  1.8727 -1.0036
  631TIP3   OH223307   4.558   0.127  12.281 -0.4569  0.1762 -0.0097
  631TIP3    H123308   4.508   0.053  12.315 -0.0304 -0.5200 -0.8619
  631TIP3    H223309   4.634   0.087  12.239 -0.8382  1.0214 -1.5645
  632TIP3   OH223310   2.020   5.449  13.111 -0.3060  0.3804 -0.2465
  632TIP3    H123311   2.110   5.416  13.112 -0.4919 -0.2668 -1.7932
  632TIP3    H223312   2.027   5.538  13.075 -0.4401 -0.4118 -2.3987
  633TIP3   OH223313   4.729   6.622   2.080 -0.9786  0.2790 -0.2165
  633TIP3    H123314   4.779   6.546   2.050 -0.7815  0.1271  0.4824
  633TIP3    H223315   4.697   6.663   2.000  0.9835  0.8802 -0.7373
  634TIP3   OH223316   1.596   2.411  16.674  0.3434 -0.1185  0.2744
  634TIP3    H123317   1.622   2.345  16.738  1.0388  0.4859  0.6312
  634TIP3    H223318   1.583   2.491  16.726 -2.5623 -0.4083  0.1979
  635TIP3   OH223319   5.731   3.748  16.331  0.0097  0.2749 -0.0640
  635TIP3    H123320   5.822   3.772  16.350 -0.2089  1.8797 -0.8774
  635TIP3    H223321   5.723   3.760  16.237 -0.7544 -1.0030 -0.1873
  636TIP3   OH223322   5.150   3.890  16.159  0.0788 -0.2219 -0.6017
  636TIP3    H123323   5.109   3.818  16.111  0.8629 -1.0590 -0.0299
  636TIP3    H223324   5.239   3.894  16.125  0.3617 -0.2222  0.1259
  637TIP3   OH223325   5.728   5.002   4.127 -0.1217  0.1193 -0.1716
  637TIP3    H123326   5.666   4.978   4.195 -0.5484 -2.0993 -1.2500
  637TIP3    H223327   5.680   5.063   4.071 -0.8792 -0.4819 -0.2025
  638TIP3   OH223328   2.040   1.483  17.245 -1.0904  0.0885  0.3174
  638TIP3    H123329   1.963   1.432  17.269  0.7152 -2.9724  0.2832
  638TIP3    H223330   2.053   1.464  17.152  0.8308 -1.3190  0.7928
  639TIP3   OH223331   5.380   3.437  15.285  0.1489 -0.2060 -0.2997
  639TIP3    H123332   5.415   3.526  15.286  0.0974 -0.1702  1.1170
  639TIP3    H223333   5.378   3.411  15.377 -0.5009 -1.4166 -0.6263
  640TIP3   OH223334   5.087   0.356  16.269 -0.5541 -0.2655 -0.1840
  640TIP3    H123335   5.149   0.290  16.301 -0.3612 -0.8721 -1.7030
  640TIP3    H223336   5.140   0.433  16.252 -0.7356  0.2323  1.3383
  641TIP3   OH223337   5.665   1.714   1.722  0.2327 -0.2338  0.0808
  641TIP3    H123338   5.653   1.675   1.635 -0.0059 -0.7233  0.3307
  641TIP3    H223339   5.748   1.761   1.715  0.8881 -1.3679 -0.0200
  642TIP3   OH223340   4.605   1.635  15.848 -0.2023 -0.0289  0.3882
  642TIP3    H123341   4.632   1.566  15.787  0.4135  0.3053  0.2814
  642TIP3    H223342   4.512   1.649  15.828 -0.0666 -0.0918 -0.3033
  643TIP3   OH223343   5.295   3.114   3.863  0.2829  0.1598 -0.9200
  643TIP3    H123344   5.200   3.119   3.854  0.1375 -0.0673  0.2589
  643TIP3    H223345   5.313   3.155   3.948  0.8808 -2.5611  0.3962
  644TIP3   OH223346   0.081   5.358   2.306 -0.2671 -0.3708 -0.1922
  644TIP3    H123347  -0.011   5.333   2.292 -0.6582  0.7378  0.2566
  644TIP3    H223348   0.092   5.438   2.256  0.3836 -0.3560 -0.0296
  645TIP3   OH223349   0.550   0.894  12.420  0.4998  0.3438  0.2301
  645TIP3    H123350   0.605   0.956  12.374 -1.1578  1.4703 -0.3302
  645TIP3    H223351   0.544   0.819  12.361 -0.4914  1.2166 -0.8316
  646TIP3   OH223352   1.120   1.382   3.413 -0.2882 -0.1491 -0.1224
  646TIP3    H123353   1.166   1.323   3.352  0.5910 -2.5380  2.6340
  646TIP3    H223354   1.027   1.365   3.398 -0.0892 -0.7645 -0.7056
  647TIP3   OH223355   2.799   3.958   2.911  0.4698 -0.0389 -0.3493
  647TIP3    H123356   2.889   3.965   2.881  0.0922  1.0281 -1.3180
  647TIP3    H223357   2.781   3.864   2.913  1.4619 -0.2414 -0.5655
  648TIP3   OH223358   2.097   2.877  17.294 -0.0911  0.4282 -0.2329
  648TIP3    H123359   2.155   2.864  17.369  0.9491  1.1976 -0.8775
  648TIP3    H223360   2.015   2.909  17.331  0.2975  0.4694  0.5989
  649TIP3   OH223361   6.519   0.572   2.771 -0.1687  0.1563 -0.4083
  649TIP3    H123362   6.439   0.614   2.803  0.6542  1.6037 -0.1272
  649TIP3    H223363   6.549   0.518   2.843 -0.0866  0.8255  0.0743
  650TIP3   OH223364   3.043   1.972   2.119 -0.0934 -0.3329 -0.4430
  650TIP3    H123365   2.951   1.948   2.128 -0.3746  0.9754  0.4333
  650TIP3    H223366   3.084   1.941   2.200  0.0005  0.1306 -0.3123
  651TIP3   OH223367   4.494   6.175   1.399 -0.0424  0.0476 -0.6297
  651TIP3    H123368   4.434   6.248   1.381 -0.3176 -0.3230 -1.2241
  651TIP3    H223369   4.581   6.214   1.393 -0.0462 -0.2140 -3.7335
  652TIP3   OH223370   2.750   4.926   4.932  0.7109  0.2735 -0.1546
  652TIP3    H123371   2.697   4.882   4.866 -1.2328  2.3625 -0.1448
  652TIP3    H223372   2.801   4.990   4.883 -0.7308  1.8259  0.2562
  653TIP3   OH223373   4.431   0.799  15.689  0.1313 -0.0670 -0.2738
  653TIP3    H123374   4.458   0.813  15.598  2.2322 -0.2690  0.2871
  653TIP3    H223375   4.367   0.869  15.706 -0.0679  0.1548 -1.7874
  654TIP3   OH223376   1.397   3.288  12.372  0.3488 -0.4320 -0.5207
  654TIP3    H123377   1.463   3.227  12.406  0.7482  0.1282 -0.2610
  654TIP3    H223378   1.360   3.244  12.295  0.8757 -0.8503 -0.5385
  655TIP3   OH223379   0.657   4.168  11.556 -0.5010  0.4722  0.3157
  655TIP3    H123380   0.743   4.146  11.593 -0.3231 -0.6601 -0.7005
  655TIP3    H223381   0.609   4.085  11.555 -0.5404  0.4596 -1.8326
  656TIP3   OH223382   1.886   4.167   0.402  0.1264 -0.3376  0.3371
  656TIP3    H123383   1.836   4.123   0.333 -0.0792  2.4480 -1.4490
  656TIP3    H223384   1.843   4.252   0.413  1.3455  0.0739  2.5642
  657TIP3   OH223385   6.508   2.873  17.128  0.0948 -0.2817 -0.3213
  657TIP3    H123386   6.513   2.781  17.102 -0.0436 -0.9506  1.8321
  657TIP3    H223387   6.586   2.887  17.181  0.9136  1.3142 -1.8578
  658TIP3   OH223388   5.482   5.654   0.267 -0.1901 -0.1850  0.0340
  658TIP3    H123389   5.509   5.734   0.221 -1.0270 -0.5063 -1.0780
  658TIP3    H223390   5.487   5.677   0.360 -0.4239  1.1680 -0.2595
  659TIP3   OH223391   4.227   4.880  11.075 -0.2243  0.3308  0.5966
  659TIP3    H123392   4.246   4.890  10.982  0.8735  0.4354  0.8258
  659TIP3    H223393   4.313   4.877  11.117 -0.7095  0.9687  1.6775
  660TIP3   OH223394   1.685   4.719  13.414 -0.0014 -0.1075 -0.4252
  660TIP3    H123395   1.781   4.721  13.415  0.0071  0.9110  1.3112
  660TIP3    H223396   1.662   4.743  13.325  1.3490 -1.3037 -1.1416
  661TIP3   OH223397   1.039   2.113   0.881  0.0061  0.9080  0.6035
  661TIP3    H123398   0.961   2.058   0.887  0.8405 -0.4906 -0.6898
  661TIP3    H223399   1.105   2.057   0.841  1.6041  2.1547  1.3623
  662TIP3   OH223400   0.073   4.046   1.716 -0.0052  0.3827 -0.6302
  662TIP3    H123401   0.041   3.994   1.790 -0.0819  2.0905  0.5949
  662TIP3    H223402   0.164   4.065   1.738  0.0542  0.6705 -1.1138
  663TIP3   OH223403   5.960   0.889  13.472  0.3860 -0.4297 -0.6856
  663TIP3    H123404   6.038   0.893  13.527  0.4972 -1.8930 -0.7072
  663TIP3    H223405   5.915   0.972  13.489  0.7422 -0.5603  1.1099
  664TIP3   OH223406   3.987   6.372  16.825  0.1691  0.2117 -0.2966
  664TIP3    H123407   4.043   6.333  16.757 -0.9525  0.5518 -1.4528
  664TIP3    H223408   3.916   6.309  16.836 -0.9115  1.2268 -1.1694
  665TIP3   OH223409   4.582   1.437   2.336 -0.5099  0.2393 -0.4265
  665TIP3    H123410   4.489   1.416   2.339 -0.4316 -0.1243 -0.6073
  665TIP3    H223411   4.589   1.505   2.269 -1.1891  3.0438  2.0868
  666TIP3   OH223412   3.945   0.799  15.235  0.4731  0.6330 -0.2507
  666TIP3    H123413   3.905   0.875  15.194 -0.7475 -0.2970 -0.8695
  666TIP3    H223414   3.959   0.737  15.163  0.7961  0.0031  0.3338
  667TIP3   OH223415   5.365   5.185  13.563 -0.4094 -0.4398 -0.2248
  667TIP3    H123416   5.325   5.268  13.590  0.5081 -0.4804  1.4143
  667TIP3    H223417   5.316   5.119  13.612 -0.8424 -0.8327 -1.1809
  668TIP3   OH223418   5.038   4.696   1.658  0.6308 -0.8357  0.0297
  668TIP3    H123419   5.125   4.735   1.671  1.4487 -2.1435 -1.1842
  668TIP3    H223420   5.044   4.610   1.699 -1.0076  0.0341  2.2940
  669TIP3   OH223421   2.509   3.691   3.912 -0.2354  0.5375 -0.1155
  669TIP3    H123422   2.596   3.655   3.927  0.1152  0.2833 -2.3834
  669TIP3    H223423   2.523   3.785   3.906 -0.1684  0.5212 -0.2082
  670TIP3   OH223424   4.815   1.617  15.029  0.0384 -0.2358 -0.1119
  670TIP3    H123425   4.861   1.695  15.059  2.0765 -0.6582 -1.8824
  670TIP3    H223426   4.884   1.558  15.000 -1.5126 -2.1511 -0.1377
  671TIP3   OH223427   4.964   3.481  15.594 -1.1699  0.1887  0.0961
  671TIP3    H123428   5.048   3.504  15.556 -0.7862  0.5037  1.0970
  671TIP3    H223429   4.908   3.460  15.519 -0.7384  1.7314 -0.6836
  672TIP3   OH223430   5.978   1.606  13.004  0.1982 -0.6509  0.0848
  672TIP3    H123431   5.888   1.616  12.973 -0.0339  0.3513  1.0088
  672TIP3    H223432   6.023   1.559  12.933 -0.7888 -0.2453 -0.8425
  673TIP3   OH223433   2.061   3.637  15.595 -0.3127 -0.0293  0.5325
  673TIP3    H123434   2.048   3.732  15.604 -0.4953 -0.1753  1.9883
  673TIP3    H223435   2.004   3.599  15.662  0.8641 -1.1021  0.9503
  674TIP3   OH223436   0.720   0.481  14.399 -0.2962  0.0044 -0.1003
  674TIP3    H123437   0.725   0.562  14.450 -0.4853  0.3338 -0.5984
  674TIP3    H223438   0.639   0.439  14.428 -0.5849  0.3623 -0.3695
  675TIP3   OH223439   5.324   1.199  11.220  0.7018  0.9051  0.2894
  675TIP3    H123440   5.369   1.234  11.297  2.1985 -0.8994  0.2991
  675TIP3    H223441   5.376   1.123  11.194 -1.1282  0.0316 -1.0624
  676TIP3   OH223442   3.914   3.763  15.928 -0.5730 -0.0043  0.0328
  676TIP3    H123443   4.000   3.782  15.890 -1.5308  0.7031 -1.8969
  676TIP3    H223444   3.933   3.743  16.020  1.6064  0.4877 -0.2441
  677TIP3   OH223445   6.568   5.726   0.714  0.9808 -0.3413 -0.0568
  677TIP3    H123446   6.582   5.631   0.711 -0.2034 -0.5183 -1.3775
  677TIP3    H223447   6.521   5.741   0.796 -0.0946 -1.1266 -0.5034
  678TIP3   OH223448   4.590   2.365   2.163 -0.6797 -0.8073  0.2468
  678TIP3    H123449   4.501   2.375   2.129  0.1750  0.0643 -1.9634
  678TIP3    H223450   4.629   2.297   2.108  0.5563  0.1163 -0.0656
  679TIP3   OH223451   5.315   0.868   5.163 -0.1507  0.2566 -0.6307
  679TIP3    H123452   5.291   0.911   5.082  1.5025 -0.9695 -1.8357
  679TIP3    H223453   5.288   0.777   5.152  0.8557 -0.1185 -0.1836
  680TIP3   OH223454   4.180   4.000   1.575  0.4789  0.0112  0.6578
  680TIP3    H123455   4.165   4.024   1.484 -0.7056 -1.4439  0.4178
  680TIP3    H223456   4.140   4.071   1.625  0.0323  0.2132  0.0297
  681TIP3   OH223457   1.142   6.349   0.784 -0.6405  0.3782  0.2616
  681TIP3    H123458   1.108   6.297   0.857  1.3341  1.1239  1.8054
  681TIP3    H223459   1.134   6.292   0.708 -3.0304 -0.3317  0.9424
  682TIP3   OH223460   0.762   1.534  12.981 -0.1518  0.1632  0.2437
  682TIP3    H123461   0.840   1.494  13.021 -1.2726 -0.6166  1.7143
  682TIP3    H223462   0.723   1.586  13.051 -0.6359  1.0640 -0.6727
  683TIP3   OH223463   2.171   3.341   1.501 -0.0004  0.1443 -0.3061
  683TIP3    H123464   2.225   3.323   1.578 -1.1259 -0.2724  0.4219
  683TIP3    H223465   2.113   3.265   1.494 -1.3523  1.1334 -0.2810
  684TIP3   OH223466   1.009   4.310   0.689  0.0278 -0.5885  0.4068
  684TIP3    H123467   0.950   4.282   0.759 -0.3820 -1.4657 -0.2706
  684TIP3    H223468   0.978   4.264   0.611  0.9825 -0.2708 -0.1848
  685TIP3   OH223469   1.578   2.005  17.034 -0.0382  0.8863  0.6786
  685TIP3    H123470   1.666   1.974  17.015 -0.1156  1.7541 -1.2947
  685TIP3    H223471   1.569   1.995  17.129  0.8549 -2.5894  0.5261
  686TIP3   OH223472   5.522   2.988   6.519 -0.2594 -0.2611 -0.7316
  686TIP3    H123473   5.438   3.009   6.560  0.3349  1.8712 -0.4456
  686TIP3    H223474   5.554   2.912   6.566 -1.6731 -0.6335 -0.3298
  687TIP3   OH223475   5.020   6.612   6.934  0.0605 -0.0814  0.1620
  687TIP3    H123476   5.099   6.591   6.982 -0.6567  0.1313  1.4774
  687TIP3    H223477   5.036   6.579   6.845  1.8776  0.5740  0.2082
  688TIP3   OH223478   3.361   6.238  14.080 -0.3134 -0.1621  0.1918
  688TIP3    H123479   3.389   6.279  14.161  1.4296  0.3271 -0.6278
  688TIP3    H223480   3.332   6.311  14.025 -0.5270 -0.3902 -0.0002
  689TIP3   OH223481   5.850   6.161  16.240  0.0342 -0.6129  0.1169
  689TIP3    H123482   5.900   6.176  16.320  1.0574 -0.1897 -0.5864
  689TIP3    H223483   5.788   6.234  16.237 -1.7003 -1.9238  1.7506
  690TIP3   OH223484   2.329   1.311   0.873 -0.0343 -0.3960  0.4563
  690TIP3    H123485   2.249   1.347   0.835  0.2870 -0.4449 -0.2805
  690TIP3    H223486   2.386   1.387   0.884 -0.1604 -0.3678  0.9387
  691TIP3   OH223487   2.014   6.520  11.969 -0.8677  0.3429 -0.1162
  691TIP3    H123488   1.927   6.547  11.997 -0.5638  1.0333  0.1875
  691TIP3    H223489   2.021   6.429  11.999 -2.5906 -0.7640 -2.7520
  692TIP3   OH223490   3.382   6.545  13.541 -0.3822  0.6273 -0.7369
  692TIP3    H123491   3.349   6.489  13.471  0.1949  0.2769 -0.7379
  692TIP3    H223492   3.373   6.634  13.507  0.0007  0.4534 -1.3038
  693TIP3   OH223493   0.915   5.258  14.386 -0.2579 -0.5240 -0.3145
  693TIP3    H123494   0.874   5.173  14.371  0.7872 -0.9377 -0.9247
  693TIP3    H223495   0.987   5.261  14.323  0.6927  0.1480  0.7774
  694TIP3   OH223496   5.324   3.459   0.481 -0.3104 -0.3628 -0.1460
  694TIP3    H123497   5.395   3.460   0.417 -0.8731  0.6282 -0.7703
  694TIP3    H223498   5.335   3.376   0.527 -0.2679 -1.4246 -1.9642
  695TIP3   OH223499   0.852   4.446   2.530  0.4465 -0.2684  0.4042
  695TIP3    H123500   0.812   4.533   2.521 -0.0248 -0.4859  0.4182
  695TIP3    H223501   0.945   4.462   2.514  0.3713  0.2504  0.4574
  696TIP3   OH223502   3.793   4.333  14.272  0.2171  0.0221 -0.0653
  696TIP3    H123503   3.748   4.334  14.188  3.5524  0.1604 -2.0181
  696TIP3    H223504   3.813   4.241  14.288 -1.2427 -0.1264  1.1623
  697TIP3   OH223505   1.553   3.190   5.159 -0.3975  0.2907 -0.8096
  697TIP3    H123506   1.595   3.107   5.181 -0.5873  0.6371  1.0339
  697TIP3    H223507   1.483   3.200   5.224  0.0470  2.2077 -0.5473
  698TIP3   OH223508   2.908   2.138   3.844 -0.5467  0.1855 -0.6171
  698TIP3    H123509   2.890   2.077   3.916 -2.2049  0.1508 -1.0309
  698TIP3    H223510   2.866   2.098   3.767 -0.2593  1.0538 -1.2445
  699TIP3   OH223511   2.946   1.213   6.558 -0.3326  0.1077  0.3722
  699TIP3    H123512   2.904   1.290   6.597 -0.5742  0.1565  0.0165
  699TIP3    H223513   2.958   1.236   6.466 -0.9072 -0.4883  0.1438
  700TIP3   OH223514   3.106   0.422  13.360 -0.4849 -0.3970  0.7663
  700TIP3    H123515   3.191   0.454  13.327 -0.7758 -1.9185 -1.7228
  700TIP3    H223516   3.123   0.401  13.452  2.1763 -1.6364  0.1141
  701TIP3   OH223517   0.515   0.731   2.699  0.0654  0.4963 -0.6740
  701TIP3    H123518   0.528   0.655   2.755  0.8358 -0.2705 -1.8467
  701TIP3    H223519   0.604   0.756   2.673 -0.2815  0.7520 -1.6366
  702TIP3   OH223520   5.880   0.455  13.318  0.2084  0.4971  0.4059
  702TIP3    H123521   5.815   0.463  13.248  0.6297  0.6688  0.0289
  702TIP3    H223522   5.838   0.496  13.394 -1.2821 -1.9098  0.9907
  703TIP3   OH223523   1.438   1.542   3.759 -0.0401 -0.2931  0.3139
  703TIP3    H123524   1.523   1.508   3.731  0.8246  1.2845  0.8565
  703TIP3    H223525   1.425   1.620   3.706 -1.1207 -0.4680  0.3056
  704TIP3   OH223526   2.286   1.063  15.416  0.0524 -0.0545  0.3225
  704TIP3    H123527   2.231   1.077  15.339  1.6356  1.1172 -0.6640
  704TIP3    H223528   2.228   1.079  15.490 -1.3973 -0.7823 -0.6132
  705TIP3   OH223529   6.259   6.488   5.391 -0.3060 -0.1816  0.2484
  705TIP3    H123530   6.237   6.576   5.359  1.0891 -0.0366 -0.4085
  705TIP3    H223531   6.185   6.434   5.363 -0.2930  0.4255 -1.0766
  706TIP3   OH223532   4.504   3.817  15.313 -0.0101  0.3920 -0.9647
  706TIP3    H123533   4.442   3.831  15.385  2.0718 -1.3405  1.3192
  706TIP3    H223534   4.542   3.903  15.297 -1.1570  0.9801 -0.6534
  707TIP3   OH223535   5.243   3.499   5.626 -0.0327  0.2863 -0.5930
  707TIP3    H123536   5.217   3.422   5.575 -0.3974  0.3802 -0.5577
  707TIP3    H223537   5.191   3.570   5.588 -0.5657  0.2942  0.1324
  708TIP3   OH223538   1.642   0.982   1.462  0.0153 -0.1064  0.0227
  708TIP3    H123539   1.571   0.953   1.520  0.5043  0.3488  0.8651
  708TIP3    H223540   1.654   0.908   1.402 -0.3679 -0.6780  0.6254
  709TIP3   OH223541   3.413   2.258   2.199 -0.8436  0.2571  0.0345
  709TIP3    H123542   3.338   2.250   2.139 -2.5263 -0.1247  2.0897
  709TIP3    H223543   3.374   2.278   2.284  1.3855 -0.1369  1.2177
  710TIP3   OH223544   0.628   5.383  13.360 -0.4860  0.1515 -0.4435
  710TIP3    H123545   0.583   5.353  13.281 -0.6846  1.7482 -0.9780
  710TIP3    H223546   0.641   5.477  13.346 -1.4636  0.7072  1.8648
  711TIP3   OH223547   5.290   4.439   5.789  0.1097 -0.3269  0.1959
  711TIP3    H123548   5.291   4.344   5.786  1.9716 -0.3315 -2.3466
  711TIP3    H223549   5.372   4.465   5.748 -2.1012  2.3686 -3.0922
  712TIP3   OH223550   4.520   4.526  11.081 -0.2207 -0.1936  0.1799
  712TIP3    H123551   4.597   4.478  11.051 -0.7751 -1.3896  0.5809
  712TIP3    H223552   4.492   4.576  11.004  0.1527 -0.8324 -0.3847
  713TIP3   OH223553   5.966   6.694  14.239 -0.5988 -0.1737 -0.1985
  713TIP3    H123554   5.904   6.765  14.224  0.3230  0.9325  0.9171
  713TIP3    H223555   6.003   6.713  14.326 -0.0645 -1.8290 -0.0294
  714TIP3   OH223556   2.668   5.531   0.781 -0.4067  0.1046  0.0524
  714TIP3    H123557   2.633   5.606   0.733  0.3816 -0.1212 -0.9137
  714TIP3    H223558   2.750   5.563   0.819 -1.0969  0.3195  1.3803
  715TIP3   OH223559   4.683   4.902  14.614 -0.1332  0.2113  0.2668
  715TIP3    H123560   4.603   4.943  14.648  0.3391  0.4584  1.1044
  715TIP3    H223561   4.653   4.821  14.574 -0.6090 -0.7862  2.4549
  716TIP3   OH223562   2.448   5.232   5.778  0.2236 -0.3593  0.0883
  716TIP3    H123563   2.541   5.249   5.764 -0.0026 -0.0678 -1.1722
  716TIP3    H223564   2.404   5.312   5.748 -0.4008 -0.1288  1.5141
  717TIP3   OH223565   4.074   5.381   3.948 -0.0629  0.0331 -0.1659
  717TIP3    H123566   4.097   5.405   4.038  2.1150  0.2907 -0.7269
  717TIP3    H223567   3.982   5.357   3.952 -0.6892  2.3770  1.6740
  718TIP3   OH223568   3.117   5.557  14.820 -0.6481  0.4656 -0.5122
  718TIP3    H123569   3.162   5.626  14.770  2.8621 -0.9130  0.4837
  718TIP3    H223570   3.114   5.590  14.910 -1.7467  0.5266 -0.5495
  719TIP3   OH223571   5.514   0.422   2.192 -0.4267  0.0556  0.2667
  719TIP3    H123572   5.477   0.382   2.113  1.9616  0.8612 -1.3571
  719TIP3    H223573   5.475   0.510   2.194  0.8408  0.6800 -1.0791
  720TIP3   OH223574   0.349   0.331   1.575 -0.0417  0.5986 -0.4485
  720TIP3    H123575   0.372   0.239   1.585  1.2776  0.9864  0.2265
  720TIP3    H223576   0.286   0.348   1.645 -0.5367  0.1385 -0.7777
  721TIP3   OH223577   4.321   2.404  13.355  0.1463 -1.2787  0.3704
  721TIP3    H123578   4.395   2.373  13.303 -0.4430 -1.5619 -0.2975
  721TIP3    H223579   4.332   2.360  13.440  0.5709 -1.5526  0.1781
  722TIP3   OH223580   5.206   4.985  16.058  0.6042 -0.3760 -0.4831
  722TIP3    H123581   5.184   4.999  16.150  0.9968  2.2764 -0.7227
  722TIP3    H223582   5.128   4.943  16.020 -0.6201  0.9417  0.5097
  723TIP3   OH223583   3.345   5.972  15.903  0.5193  0.8646 -0.8145
  723TIP3    H123584   3.366   5.880  15.888 -2.6338 -0.1008 -0.1380
  723TIP3    H223585   3.319   6.006  15.818 -1.0294  0.2659 -0.6088
  724TIP3   OH223586   2.913   2.391   4.101  0.1515  0.4123  0.0714
  724TIP3    H123587   2.942   2.400   4.010 -1.7216  1.0413 -0.5039
  724TIP3    H223588   2.943   2.471   4.143  1.8402 -0.2937  0.2768
  725TIP3   OH223589   2.663   5.042   1.394  0.2563 -0.5490 -0.3903
  725TIP3    H123590   2.690   5.064   1.305 -0.3180  2.0442 -0.0228
  725TIP3    H223591   2.584   5.095   1.408  1.2526  0.3852  2.2007
  726TIP3   OH223592   4.872   2.611   0.247  0.2805  0.2797  0.2488
  726TIP3    H123593   4.924   2.590   0.169  0.3853 -0.7940  0.5890
  726TIP3    H223594   4.875   2.706   0.252  0.8151  0.3318 -0.6933
  727TIP3   OH223595   2.651   1.136   1.975 -0.4834 -0.3967  0.2304
  727TIP3    H123596   2.735   1.130   2.022 -0.5861 -1.7409  0.2813
  727TIP3    H223597   2.601   1.202   2.024  0.1614 -0.3268  0.8142
  728TIP3   OH223598   0.920   5.544   5.996  0.0974 -0.3638  0.7584
  728TIP3    H123599   0.996   5.488   5.983 -0.6580 -1.2537  0.1106
  728TIP3    H223600   0.951   5.612   6.056  1.8306  0.1665 -0.6415
  729TIP3   OH223601   1.900   1.211   4.973  0.0109  0.2817 -0.3352
  729TIP3    H123602   1.924   1.139   5.031 -0.8732  0.4475  0.2612
  729TIP3    H223603   1.856   1.169   4.900 -1.0575  0.2467  0.3113
  730TIP3   OH223604   3.643   4.606  17.025  0.2630  0.2207 -0.1286
  730TIP3    H123605   3.642   4.688  16.977 -3.0521  0.6151  0.3507
  730TIP3    H223606   3.686   4.626  17.108 -0.6819  1.5574  0.0570
  731TIP3   OH223607   5.617   4.262   0.791  0.1843 -0.6990  0.7812
  731TIP3    H123608   5.698   4.229   0.830  2.4520  1.5187 -1.6493
  731TIP3    H223609   5.588   4.332   0.850 -0.0052 -1.4606  1.6244
  732TIP3   OH223610   0.063   0.760   0.885  0.7062 -0.3069 -0.1681
  732TIP3    H123611   0.026   0.743   0.798  0.0048  1.0809 -0.1752
  732TIP3    H223612   0.121   0.686   0.902 -0.4522 -1.4570 -1.0799
  733TIP3   OH223613   4.673   6.528  12.292  0.3222 -0.0145  0.5453
  733TIP3    H123614   4.761   6.561  12.272  0.7271 -1.3750 -0.1086
  733TIP3    H223615   4.654   6.560  12.380  2.7156 -2.0121  1.9323
  734TIP3   OH223616   0.368   1.924  15.066 -0.2639  0.5374  1.0728
  734TIP3    H123617   0.435   1.858  15.085 -1.0466 -0.4163  0.6655
  734TIP3    H223618   0.330   1.945  15.152 -1.5317 -1.2616  1.0104
  735TIP3   OH223619   4.192   2.179  12.225 -0.3745  0.6335  0.3682
  735TIP3    H123620   4.269   2.123  12.216 -0.6800  0.5419 -2.7262
  735TIP3    H223621   4.221   2.251  12.282  1.8142  0.3054 -0.2467
  736TIP3   OH223622   4.812   5.813   5.601  0.1144 -0.1976 -0.4695
  736TIP3    H123623   4.753   5.887   5.611 -0.4083 -0.8476  1.7864
  736TIP3    H223624   4.840   5.792   5.691 -0.0705 -2.9589 -0.9749
  737TIP3   OH223625   2.492   5.235   1.508  0.4587 -0.7780 -0.5132
  737TIP3    H123626   2.413   5.253   1.559 -0.3266 -0.0253 -1.9205
  737TIP3    H223627   2.564   5.247   1.569 -0.2254  3.1716 -0.2270
  738TIP3   OH223628   6.709   1.393  14.575 -0.0485 -0.1466 -0.0830
  738TIP3    H123629   6.737   1.341  14.500  0.4302 -0.6177  0.4085
  738TIP3    H223630   6.755   1.477  14.564 -1.4652  0.5174 -1.3147
  739TIP3   OH223631   2.415   4.717  12.176 -0.1872 -0.1011  0.4014
  739TIP3    H123632   2.377   4.760  12.252  0.2413  0.0764  0.5148
  739TIP3    H223633   2.477   4.780  12.140 -1.3242  0.3475 -0.8620
  740TIP3   OH223634   1.475   4.434   1.155 -0.6364  0.8704 -0.2811
  740TIP3    H123635   1.568   4.430   1.177 -0.1722 -0.6425 -2.2247
  740TIP3    H223636   1.468   4.508   1.094 -0.5419  0.4549 -0.7991
  741TIP3   OH223637   0.223   2.137   4.632  0.2102 -0.5695 -0.6818
  741TIP3    H123638   0.299   2.191   4.653  0.1785 -1.6640  2.8888
  741TIP3    H223639   0.261   2.060   4.588  1.4409 -1.5445  1.8658
  742TIP3   OH223640   2.370   1.833   0.504 -0.4478  0.0534  0.4888
  742TIP3    H123641   2.421   1.759   0.535 -0.1378  0.4396  0.9223
  742TIP3    H223642   2.289   1.795   0.472  0.6225 -0.7444 -1.4826
  743TIP3   OH223643   5.112   0.012  15.119 -0.4674  0.2700  0.1156
  743TIP3    H123644   5.036  -0.036  15.153 -0.2153 -0.8528 -0.8039
  743TIP3    H223645   5.100   0.010  15.024  1.5946 -1.5927 -0.2081
  744TIP3   OH223646   5.155   4.259   4.632 -0.1915  0.0780  0.5435
  744TIP3    H123647   5.214   4.227   4.564  0.0131  0.2328  0.6488
  744TIP3    H223648   5.203   4.245   4.713  0.7854  2.5677  0.4622
  745TIP3   OH223649   3.182   2.254   3.421  0.2856 -0.7582  0.4038
  745TIP3    H123650   3.123   2.188   3.456 -1.7376  0.6253 -0.2407
  745TIP3    H223651   3.234   2.208   3.355 -1.7909 -1.5111 -0.7698
  746TIP3   OH223652   2.600   5.088   3.372  0.8627  0.4547 -0.0710
  746TIP3    H123653   2.527   5.134   3.414  1.5322  1.8133 -0.3201
  746TIP3    H223654   2.559   5.014   3.328 -0.0164 -0.3065  1.8969
  747TIP3   OH223655   0.069   4.939  15.050 -0.2778  0.4775 -0.0986
  747TIP3    H123656   0.060   4.858  15.100 -1.3612  1.3628  1.2113
  747TIP3    H223657   0.040   4.917  14.962 -2.0586 -0.2022  0.6207
  748TIP3   OH223658   0.517   2.963  12.938 -0.3524 -0.3395  0.3176
  748TIP3    H123659   0.437   2.961  12.992  0.7531  1.4765  2.1980
  748TIP3    H223660   0.491   3.010  12.859 -1.7107 -1.9652 -0.2714
  749TIP3   OH223661   5.714   1.753   3.206  0.0517  0.2759  0.5674
  749TIP3    H123662   5.640   1.801   3.171  0.8381  0.5514 -0.7845
  749TIP3    H223663   5.777   1.821   3.231  0.4670  0.0035  0.2667
  750TIP3   OH223664   2.950   1.393  12.511  0.3381 -0.0324  0.4599
  750TIP3    H123665   3.019   1.327  12.509  2.0573  1.6730  0.2032
  750TIP3    H223666   2.869   1.344  12.495  1.2673 -2.3172  2.2556
  751TIP3   OH223667   5.136   0.662   3.048  0.5246 -0.1580  0.0882
  751TIP3    H123668   5.172   0.655   3.136 -0.1538 -3.0283  0.2329
  751TIP3    H223669   5.210   0.645   2.990  0.9088  1.4555  0.0411
  752TIP3   OH223670   4.107   4.888  16.265  0.1139  0.0771  0.0394
  752TIP3    H123671   4.166   4.946  16.313  0.8337 -0.0534 -0.6668
  752TIP3    H223672   4.123   4.801  16.303  0.1822  0.0837  0.0258
  753TIP3   OH223673   3.164   5.808  11.610 -0.0902  0.4468  0.2410
  753TIP3    H123674   3.240   5.823  11.554 -0.0351  2.0261  0.6940
  753TIP3    H223675   3.172   5.717  11.637  1.4247  0.4667 -0.0511
  754TIP3   OH223676   5.269   2.702   2.226 -0.2164  0.1261 -0.3218
  754TIP3    H123677   5.206   2.655   2.171 -0.7576  1.3735 -0.7981
  754TIP3    H223678   5.228   2.787   2.243  1.0299  0.6956 -0.0347
  755TIP3   OH223679   5.783   2.120   3.537 -0.7779 -0.0280 -0.0604
  755TIP3    H123680   5.841   2.189   3.569 -0.9526  0.4996 -0.8395
  755TIP3    H223681   5.787   2.052   3.603 -1.1300  1.0155  1.0700
  756TIP3   OH223682   2.402   6.711  16.423  0.6181  0.5592  1.2727
  756TIP3    H123683   2.385   6.719  16.329  2.3334 -0.6855  0.8073
  756TIP3    H223684   2.371   6.793  16.460 -2.8173 -0.0449  0.0952
  757TIP3   OH223685   0.161   0.988   0.724  0.0651  0.0341  0.1098
  757TIP3    H123686   0.128   1.029   0.644  0.2296 -0.2099 -0.0833
  757TIP3    H223687   0.255   0.975   0.708 -0.1008 -0.9853 -0.0737
  758TIP3   OH223688   3.172   5.500  15.577 -0.3651  0.0355 -0.0607
  758TIP3    H123689   3.154   5.412  15.612 -3.0469  0.2027 -0.7913
  758TIP3    H223690   3.242   5.486  15.512 -0.9968 -1.6352 -0.4410
  759TIP3   OH223691   3.070   2.267   6.719 -0.2642 -0.5076 -0.1029
  759TIP3    H123692   3.078   2.336   6.652 -0.9302  0.0042  0.3291
  759TIP3    H223693   2.980   2.236   6.711 -1.0472  1.0259  1.9206
  760TIP3   OH223694   5.187   2.122  17.229  0.0797  0.0131 -0.1721
  760TIP3    H123695   5.269   2.098  17.273  1.0696 -0.4018 -2.1686
  760TIP3    H223696   5.160   2.203  17.273  1.9158  0.5382  0.0866
  761TIP3   OH223697   3.071   3.261  14.018 -0.2154  0.0060  0.1249
  761TIP3    H123698   3.126   3.307  14.082  1.4636  0.1412 -1.3400
  761TIP3    H223699   3.000   3.322  14.000  0.0485  0.5381  0.8179
  762TIP3   OH223700   5.206   2.042  14.235 -0.2943 -0.0964 -0.1834
  762TIP3    H123701   5.230   2.112  14.174 -0.0763 -0.9013 -1.0393
  762TIP3    H223702   5.283   1.987  14.241 -0.8051 -0.8467 -0.3389
  763TIP3   OH223703   4.416   3.616   0.681  0.6146  0.2622 -0.3485
  763TIP3    H123704   4.477   3.690   0.681 -0.0023  0.8687  2.0524
  763TIP3    H223705   4.331   3.656   0.698  0.0550 -0.8668 -0.4451
  764TIP3   OH223706   5.290   1.627   3.501  0.2849  0.0574 -0.3481
  764TIP3    H123707   5.343   1.705   3.484  0.6237  0.0010  0.4205
  764TIP3    H223708   5.352   1.554   3.494  0.0269 -0.1231 -0.7833
  765TIP3   OH223709   4.093   0.568   5.635 -0.2566  0.3121 -0.0878
  765TIP3    H123710   4.169   0.515   5.656 -0.6749 -0.6363 -0.8639
  765TIP3    H223711   4.125   0.658   5.635  1.0590 -0.1266 -1.1913
  766TIP3   OH223712   3.722   5.756  14.789  0.0155 -1.5204 -0.1990
  766TIP3    H123713   3.639   5.759  14.740  0.7053  0.0050 -1.3676
  766TIP3    H223714   3.789   5.746  14.721  0.9127 -0.9393  0.5852
  767TIP3   OH223715   2.768   1.107  14.694 -0.3877 -0.1997 -0.2570
  767TIP3    H123716   2.735   1.144  14.775 -0.7062 -1.2934  0.1346
  767TIP3    H223717   2.695   1.054  14.661  0.1021 -0.5947 -0.7171
  768TIP3   OH223718   0.503   3.558   4.513 -0.1488  0.2815 -0.0950
  768TIP3    H123719   0.525   3.466   4.504  0.9334  0.4055  0.9600
  768TIP3    H223720   0.410   3.563   4.494  0.0868 -0.7850 -1.6795
  769TIP3   OH223721   0.535   5.472  11.010  0.1623 -0.2102  0.3498
  769TIP3    H123722   0.536   5.489  10.916 -2.9925  2.4626  0.6160
  769TIP3    H223723   0.482   5.393  11.020 -0.5193  0.1858 -0.0752
  770TIP3   OH223724   4.755   3.073  13.351  0.1986 -0.0203  0.7500
  770TIP3    H123725   4.828   3.020  13.384  1.1003  0.3637 -0.5305
  770TIP3    H223726   4.727   3.028  13.271  0.2958  0.8610  0.2113
  771TIP3   OH223727   5.011   2.421  16.499 -0.3231 -0.2823 -0.0081
  771TIP3    H123728   4.972   2.381  16.577 -0.4076 -0.9561 -0.3879
  771TIP3    H223729   5.067   2.353  16.462 -0.1676  0.0795 -0.4523
  772TIP3   OH223730   0.958   6.715   5.020 -0.4932  0.0557  0.4417
  772TIP3    H123731   0.898   6.704   4.946 -1.2503 -1.2074  1.2125
  772TIP3    H223732   0.903   6.749   5.091 -0.4191 -1.4461  1.2623
  773TIP3   OH223733   3.577   4.345   5.036  0.6265  0.1114 -0.2018
  773TIP3    H123734   3.498   4.321   5.084  1.1477  1.8277  1.7173
  773TIP3    H223735   3.546   4.379   4.953 -0.4507 -1.4494 -0.4723
  774TIP3   OH223736   2.534   4.892   1.599 -0.0321  0.3791 -0.3093
  774TIP3    H123737   2.598   4.949   1.558  0.7380 -1.3897 -1.6920
  774TIP3    H223738   2.584   4.817   1.630 -1.1636 -0.1310  0.3734
  775TIP3   OH223739   4.093   1.842   1.162  0.5105  0.0989 -0.0183
  775TIP3    H123740   4.020   1.800   1.116 -1.1768  1.8847  0.9083
  775TIP3    H223741   4.129   1.903   1.098  0.0555  0.4777  0.0855
  776TIP3   OH223742   5.809   6.584   2.681  0.1471 -0.3477  0.1036
  776TIP3    H123743   5.900   6.578   2.652  0.3345 -1.4800  0.8400
  776TIP3    H223744   5.794   6.502   2.729 -1.8195 -1.1080 -1.6001
  777TIP3   OH223745   4.064   0.814  11.838  0.6225  0.4990 -0.2133
  777TIP3    H123746   4.047   0.722  11.821  1.0570  0.3895 -0.0820
  777TIP3    H223747   4.160   0.821  11.839  0.6008  0.7929  0.6014
  778TIP3   OH223748   1.407   0.753  12.714  0.4800  0.3038 -0.3942
  778TIP3    H123749   1.354   0.790  12.643  0.4127  0.4749 -0.2578
  778TIP3    H223750   1.398   0.816  12.786  1.2683  0.5813 -0.5328
  779TIP3   OH223751   1.804   1.688   3.750 -0.3920 -0.0599  0.3793
  779TIP3    H123752   1.819   1.709   3.843  0.0912  0.5864  0.1625
  779TIP3    H223753   1.787   1.594   3.750  0.8337 -0.3061  0.9924
  780TIP3   OH223754   1.308   2.989  15.969 -0.4488 -0.5819  0.1895
  780TIP3    H123755   1.287   2.931  16.043  1.5286 -0.1931  1.1169
  780TIP3    H223756   1.404   2.990  15.966 -0.4800  0.4864 -1.5548
  781TIP3   OH223757   2.167   1.592   1.119 -0.2255 -0.3764 -0.1252
  781TIP3    H123758   2.202   1.624   1.036  1.7153 -0.4682  0.6098
  781TIP3    H223759   2.243   1.557   1.166 -0.7335  2.0660  2.8084
  782TIP3   OH223760   3.723   0.598   0.707 -0.3817  0.0130 -0.3099
  782TIP3    H123761   3.697   0.516   0.665 -0.6498 -0.1874  0.2280
  782TIP3    H223762   3.768   0.648   0.639  2.3534 -1.7610  0.0444
  783TIP3   OH223763   3.285   1.102   0.562  0.5664  0.7711 -0.2797
  783TIP3    H123764   3.229   1.025   0.577  1.2455 -0.0785 -1.8300
  783TIP3    H223765   3.371   1.065   0.542  1.1329  1.9784 -0.1243
  784TIP3   OH223766   2.584   1.277   2.313 -0.3584 -0.1059 -0.0323
  784TIP3    H123767   2.618   1.194   2.348 -0.7396 -0.7243 -1.0799
  784TIP3    H223768   2.658   1.338   2.319  0.2432 -0.8060 -0.1828
  785TIP3   OH223769   1.396   4.615   0.999 -0.3624 -0.1371  0.7677
  785TIP3    H123770   1.356   4.627   0.913 -1.1183 -0.5098  1.0648
  785TIP3    H223771   1.352   4.678   1.055  2.3021  2.4287  0.2405
  786TIP3   OH223772   6.217   6.317   1.551 -0.1152 -0.0946 -0.6797
  786TIP3    H123773   6.231   6.411   1.556 -0.4250 -0.0145 -1.1520
  786TIP3    H223774   6.173   6.294   1.633  1.7572 -0.1774  0.3308
  787TIP3   OH223775   3.118   3.065  11.084 -0.4771 -0.0993 -0.6102
  787TIP3    H123776   3.050   3.128  11.062  0.1272  0.5667 -0.6126
  787TIP3    H223777   3.193   3.091  11.030  0.9257  1.3538  1.8415
  788TIP3   OH223778   6.358   5.937  16.898 -0.3485  0.1688  0.1367
  788TIP3    H123779   6.268   5.944  16.929 -0.6885 -1.7997 -0.2645
  788TIP3    H223780   6.411   5.936  16.977 -0.5520  2.3961  0.3464
  789TIP3   OH223781   4.920   2.580  17.281 -0.1594  0.0208  0.4642
  789TIP3    H123782   4.889   2.649  17.221  1.1490 -0.0190 -0.2879
  789TIP3    H223783   4.876   2.501  17.250  0.9267 -0.1077 -0.8338
  790TIP3   OH223784   5.970   4.606  13.354  0.0928  0.0651 -0.3116
  790TIP3    H123785   6.017   4.686  13.331  0.9903 -0.4075 -0.1719
  790TIP3    H223786   5.961   4.558  13.271 -1.7130  0.9333 -0.6653
  791TIP3   OH223787   1.450   2.967   0.882  0.3556  0.2704 -0.3311
  791TIP3    H123788   1.495   3.049   0.898 -0.5958  0.4510  1.7282
  791TIP3    H223789   1.359   2.984   0.909  0.1504 -1.4578  0.1770
  792TIP3   OH223790   4.361   2.314  17.178  0.2736  0.0347 -0.6732
  792TIP3    H123791   4.426   2.245  17.187 -0.7515 -0.8417  0.3244
  792TIP3    H223792   4.281   2.268  17.150 -0.5706  0.7206  0.5334
  793TIP3   OH223793   5.160   6.254  16.368 -0.0020 -0.2530  0.2277
  793TIP3    H123794   5.078   6.209  16.387 -1.2836  1.1609 -1.6376
  793TIP3    H223795   5.139   6.347  16.376  0.8109  0.2119 -2.3486
  794TIP3   OH223796   5.993   6.604   1.476  0.2929  0.4519  0.0384
  794TIP3    H123797   6.075   6.649   1.498  0.9346 -0.5173 -0.3133
  794TIP3    H223798   6.011   6.563   1.391 -1.0117  1.3305 -0.6890
  795TIP3   OH223799   3.649   2.707  10.953  0.2890  0.0122  0.3054
  795TIP3    H123800   3.556   2.701  10.972  0.1514 -0.4549 -0.4604
  795TIP3    H223801   3.670   2.623  10.911  1.4717 -0.6958  2.1969
  796TIP3   OH223802   3.338   5.639   2.056 -0.4355  0.2656 -0.6518
  796TIP3    H123803   3.286   5.634   2.136  0.7757 -0.6614  0.1080
  796TIP3    H223804   3.374   5.551   2.044  3.1771  1.4261  0.4275
  797TIP3   OH223805   3.637   5.696   3.707  0.2204  0.8687 -0.0378
  797TIP3    H123806   3.704   5.751   3.667  0.5203  0.6792  0.1980
  797TIP3    H223807   3.640   5.716   3.800 -1.1875  2.0680 -0.2083
  798TIP3   OH223808   6.538   0.955  12.040  0.2081 -0.0006 -0.3239
  798TIP3    H123809   6.590   1.035  12.051  0.2243 -0.0982  0.3227
  798TIP3    H223810   6.487   0.971  11.961 -0.5003  1.0389  0.3204
  799TIP3   OH223811   6.058   0.321  15.057 -0.2858  0.0029 -0.1177
  799TIP3    H123812   6.007   0.303  15.136 -0.8002 -0.5601 -0.5716
  799TIP3    H223813   6.021   0.402  15.022  0.3291  0.5808  0.5196
  800TIP3   OH223814   2.056   0.668   1.638  0.0246 -0.1676  0.4788
  800TIP3    H123815   2.116   0.602   1.674  0.4322  0.4107  0.8720
  800TIP3    H223816   2.089   0.685   1.550  0.6566  0.3992  0.8155
  801TIP3   OH223817   3.075   3.983  16.944 -0.6492  0.1237  0.0552
  801TIP3    H123818   3.066   3.968  16.849 -1.6574 -2.9626  0.5173
  801TIP3    H223819   2.986   3.970  16.978  0.2927 -2.5451  1.7647
  802TIP3   OH223820   5.378   5.038  16.573 -0.5116 -0.7648 -0.2800
  802TIP3    H123821   5.470   5.018  16.557 -0.7379 -2.0148 -0.1854
  802TIP3    H223822   5.348   4.966  16.629 -0.9189  0.9870  1.8649
  803TIP3   OH223823   2.669   0.255  15.623  0.3486  0.1195  0.0488
  803TIP3    H123824   2.642   0.308  15.547  0.1575  0.6359  0.4694
  803TIP3    H223825   2.586   0.226  15.662  0.3657  1.5240  1.2151
  804TIP3   OH223826   1.094   4.512  16.419  0.4705  0.3004 -0.4282
  804TIP3    H123827   1.111   4.419  16.435 -0.3192  0.0010 -1.2440
  804TIP3    H223828   0.999   4.521  16.423  0.2380  0.4080 -3.4836
  805TIP3   OH223829   2.191   5.482  15.638 -0.5401  0.1493 -0.0301
  805TIP3    H123830   2.098   5.502  15.650 -0.6274  1.2516 -2.1226
  805TIP3    H223831   2.212   5.518  15.552  2.0782  0.8155  0.8134
  806TIP3   OH223832   3.667   6.313  17.055  0.5980  0.2237 -0.4603
  806TIP3    H123833   3.699   6.264  16.979  4.0344  2.0514 -0.3978
  806TIP3    H223834   3.708   6.270  17.130 -0.5293  0.1033  0.0905
  807TIP3   OH223835   4.899   3.116  16.668  0.5944 -0.1334  0.2671
  807TIP3    H123836   4.870   3.090  16.580  0.7424 -2.1369  0.7787
  807TIP3    H223837   4.821   3.109  16.723  0.6779  0.3803  0.4564
  808TIP3   OH223838   6.721   4.609  14.458 -0.4093 -0.4646 -0.1747
  808TIP3    H123839   6.655   4.667  14.420  0.3665  0.1251 -0.6697
  808TIP3    H223840   6.758   4.563  14.383  1.1560  0.7235 -0.1783
  809TIP3   OH223841   4.352   4.555  13.532  0.1422  0.1513 -0.1354
  809TIP3    H123842   4.257   4.570  13.539  0.2202  1.3091 -1.1534
  809TIP3    H223843   4.364   4.464  13.558 -1.0589  0.4153  1.5037
  810TIP3   OH223844   6.174   2.124  16.800  0.4752 -0.4742 -0.0976
  810TIP3    H123845   6.161   2.217  16.782  2.7959  0.1166  0.8967
  810TIP3    H223846   6.261   2.105  16.763  0.9551 -1.6900  1.5477
  811TIP3   OH223847   1.773   5.310   5.262 -0.3953  0.5427 -0.4267
  811TIP3    H123848   1.765   5.394   5.307  1.0877 -0.0887  1.1367
  811TIP3    H223849   1.835   5.327   5.191 -1.9466  1.2955 -1.6625
  812TIP3   OH223850   2.601   4.580  16.322  0.0529 -0.2346 -0.9436
  812TIP3    H123851   2.681   4.528  16.331 -0.6285 -1.2035 -0.2632
  812TIP3    H223852   2.570   4.560  16.234 -0.8839 -2.0546 -0.2624
  813TIP3   OH223853   3.766   1.655  11.651  0.0720 -0.4797 -0.3503
  813TIP3    H123854   3.772   1.590  11.580  2.2993 -0.9911  0.2118
  813TIP3    H223855   3.702   1.619  11.712 -0.3999 -1.0097 -1.1427
  814TIP3   OH223856   5.935   3.200   6.550 -0.0840 -0.2578  0.5361
  814TIP3    H123857   5.870   3.199   6.480  2.3484  0.7234 -1.9334
  814TIP3    H223858   5.944   3.108   6.575 -2.0686 -0.4586  0.6726
  815TIP3   OH223859   0.461   3.221  11.878 -0.6422 -0.0013 -0.2870
  815TIP3    H123860   0.408   3.232  11.798 -2.0951 -0.2673  0.5937
  815TIP3    H223861   0.428   3.288  11.938 -0.6740 -0.8113  0.6255
  816TIP3   OH223862   1.350   3.774   1.549 -0.5058 -0.3748 -0.3315
  816TIP3    H123863   1.270   3.817   1.579  0.7367  1.3748  0.6716
  816TIP3    H223864   1.376   3.822   1.471  0.8308  0.7295  0.7292
  817TIP3   OH223865   5.290   4.211  15.144 -0.3930  0.4300 -0.5470
  817TIP3    H123866   5.279   4.202  15.050 -0.1603  0.7607 -0.6091
  817TIP3    H223867   5.230   4.147  15.182 -1.5282  1.2612 -0.8915
  818TIP3   OH223868   0.275   3.557  16.425 -0.1998 -0.5298 -0.6689
  818TIP3    H123869   0.238   3.558  16.336  1.0135  0.7314 -1.1955
  818TIP3    H223870   0.369   3.551  16.411  0.0613  0.5249  0.5071
  819TIP3   OH223871   6.120   4.554  16.454 -0.2823  0.1389  0.1759
  819TIP3    H123872   6.042   4.502  16.471 -0.3852  0.8454  2.2097
  819TIP3    H223873   6.193   4.494  16.467 -0.4554 -0.5621 -1.8857
  820TIP3   OH223874   3.936   4.382   2.680  0.3012  0.1499  0.3612
  820TIP3    H123875   3.845   4.370   2.654  1.0041  0.8807 -2.8070
  820TIP3    H223876   3.933   4.455   2.743 -1.3999 -0.8352  1.4997
  821TIP3   OH223877   2.595   0.240   4.939 -0.4991  0.4428  0.6727
  821TIP3    H123878   2.597   0.163   4.996  0.6335 -0.8711 -1.0432
  821TIP3    H223879   2.518   0.228   4.885  1.5542 -1.5057 -2.0901
  822TIP3   OH223880   0.001   4.352  11.857  0.4260 -0.0651  0.1067
  822TIP3    H123881   0.084   4.316  11.889  0.0426  0.2126  1.4678
  822TIP3    H223882  -0.064   4.285  11.879  0.2421 -0.2066 -0.8038
  823TIP3   OH223883   4.361   6.310   2.824 -0.0871  0.4918 -0.5699
  823TIP3    H123884   4.412   6.234   2.797 -0.7739  0.2800 -1.3332
  823TIP3    H223885   4.277   6.274   2.853 -0.3513  0.9329 -0.7665
  824TIP3   OH223886   2.578   1.690   0.685 -0.3514 -0.3043 -0.4497
  824TIP3    H123887   2.601   1.609   0.730 -0.5459 -0.7028 -1.0568
  824TIP3    H223888   2.517   1.734   0.744 -0.1501 -0.5388 -0.0625
  825TIP3   OH223889   3.005   0.274  13.878  0.1733  0.1707 -0.4481
  825TIP3    H123890   3.070   0.341  13.899 -1.7839  1.7103  1.2429
  825TIP3    H223891   2.992   0.282  13.784  1.3149  0.8981 -0.5577
  826TIP3   OH223892   1.254   1.298  14.549 -0.6118 -0.0961  0.3609
  826TIP3    H123893   1.315   1.363  14.516 -1.9634  1.5527  0.9532
  826TIP3    H223894   1.201   1.273  14.473 -0.1091 -0.4888  0.1387
  827TIP3   OH223895   3.693   5.911   2.138  0.6203  0.7205 -0.0530
  827TIP3    H123896   3.623   5.972   2.160  0.1049  0.4444 -0.8794
  827TIP3    H223897   3.653   5.825   2.144  1.1616  0.5003  0.4473
  828TIP3   OH223898   4.886   3.027   4.272 -0.2346 -0.3201  0.1682
  828TIP3    H123899   4.895   2.990   4.360  0.1241  1.3461  0.8736
  828TIP3    H223900   4.971   3.069   4.255 -1.1718  1.7091  0.1781
  829TIP3   OH223901   0.539   2.857  16.064 -0.2270 -0.2716 -0.8199
  829TIP3    H123902   0.596   2.886  16.135 -1.4375  1.2020 -0.4029
  829TIP3    H223903   0.450   2.873  16.096 -0.8420 -0.9167 -2.1158
  830TIP3   OH223904   6.046   5.366  11.948  0.1086 -0.1964  0.2726
  830TIP3    H123905   5.963   5.379  11.902  0.8279 -0.1438 -1.0663
  830TIP3    H223906   6.073   5.453  11.975 -0.2279 -0.2024  0.6297
  831TIP3   OH223907   3.255   6.017  14.540  0.4872  0.1997  0.1640
  831TIP3    H123908   3.336   5.987  14.499 -0.6071 -1.0450 -1.1795
  831TIP3    H223909   3.236   5.952  14.608 -0.7459 -1.0715 -1.3148
  832TIP3   OH223910   3.835   4.891  12.909 -0.0977  0.2938 -0.0271
  832TIP3    H123911   3.837   4.903  12.814  1.5151  1.4844  0.1177
  832TIP3    H223912   3.913   4.937  12.941  0.5126 -1.7601  1.6907
  833TIP3   OH223913   2.260   4.761  13.398 -0.4146 -0.9899  0.0332
  833TIP3    H123914   2.275   4.700  13.325  3.0454  0.3154 -0.5063
  833TIP3    H223915   2.337   4.751  13.454 -1.6135  0.1513  1.9960
  834TIP3   OH223916   3.541   3.600  15.876 -0.3568 -0.0320  0.0474
  834TIP3    H123917   3.525   3.506  15.879 -1.4324  0.1630  1.2022
  834TIP3    H223918   3.548   3.619  15.782 -2.4791 -0.9199 -0.3578
  835TIP3   OH223919   6.319   4.691  11.922 -0.3423 -0.1921 -0.1412
  835TIP3    H123920   6.313   4.613  11.977  1.5093 -0.3689 -0.1608
  835TIP3    H223921   6.364   4.755  11.976  0.6657 -0.0635 -1.1065
  836TIP3   OH223922   5.936   1.511  13.513 -0.2409  0.7621  0.0586
  836TIP3    H123923   5.844   1.510  13.538 -0.3355 -1.0180 -0.2216
  836TIP3    H223924   5.937   1.484  13.421  0.6321 -1.0161  0.5406
  837TIP3   OH223925   3.476   0.985   4.863 -0.2529  0.5255 -0.7417
  837TIP3    H123926   3.455   1.057   4.805 -1.3683 -0.3833 -1.5061
  837TIP3    H223927   3.393   0.960   4.903  0.2713  0.2475  0.2163
  838TIP3   OH223928   6.027   5.507  16.270  0.0687  0.1413 -0.0045
  838TIP3    H123929   5.961   5.505  16.339  0.2369  0.3962  0.1634
  838TIP3    H223930   6.074   5.424  16.280  0.1142  0.1926  0.2055
  839TIP3   OH223931   4.910   4.637   5.527  0.2556  0.0364  0.2650
  839TIP3    H123932   5.005   4.638   5.539  0.2147 -0.6429  0.6908
  839TIP3    H223933   4.895   4.698   5.454  1.0733 -0.3130 -0.2157
  840TIP3   OH223934   6.649   3.707  12.144  0.5432  0.6284 -0.2103
  840TIP3    H123935   6.602   3.626  12.123  1.1506  0.3261 -0.4519
  840TIP3    H223936   6.645   3.713  12.239 -0.2740  0.7950 -0.2470
  841TIP3   OH223937   5.582   4.710   1.983  0.1287 -0.0409 -0.6442
  841TIP3    H123938   5.541   4.630   1.949  1.1157 -0.7109 -0.2689
  841TIP3    H223939   5.616   4.754   1.905 -1.1157  0.4416 -0.9459
  842TIP3   OH223940   0.080   0.567  16.016 -0.4505 -0.3241 -0.0261
  842TIP3    H123941   0.053   0.517  16.093 -0.3349 -0.1735  0.1131
  842TIP3    H223942   0.148   0.512  15.976  0.7533  0.3855  0.9488
  843TIP3   OH223943   3.533   1.010  16.776  0.5058  0.3560 -0.1698
  843TIP3    H123944   3.629   1.009  16.785  0.7247  0.8827 -1.9534
  843TIP3    H223945   3.517   0.961  16.695 -0.8207 -0.5335  0.6047
  844TIP3   OH223946   1.369   3.835  15.802  0.0488  0.3264  0.1880
  844TIP3    H123947   1.352   3.900  15.870 -0.9077 -1.7188  2.0291
  844TIP3    H223948   1.312   3.761  15.824  0.3099 -0.7669 -2.3914
  845TIP3   OH223949   2.264   0.967  16.065  0.3154 -0.8213 -0.1985
  845TIP3    H123950   2.354   0.933  16.058  1.2008  0.9418  1.6038
  845TIP3    H223951   2.261   1.008  16.152 -1.0412  2.4710 -1.6537
  846TIP3   OH223952   6.007   6.642   4.470  0.0373  0.1412 -0.4992
  846TIP3    H123953   6.058   6.667   4.548 -0.1308  0.8780 -0.6181
  846TIP3    H223954   5.967   6.558   4.494 -0.4454  0.6109  0.4249
  847TIP3   OH223955   6.382   4.213  14.983 -0.4643 -0.1231  0.0242
  847TIP3    H123956   6.404   4.132  14.936 -0.2326  0.0450 -0.1595
  847TIP3    H223957   6.390   4.282  14.917 -0.7062  0.0445  0.1696
  848TIP3   OH223958   4.683   1.571   5.168 -0.7364 -0.1177  0.0166
  848TIP3    H123959   4.650   1.661   5.169 -1.4856 -0.3719 -0.6883
  848TIP3    H223960   4.775   1.579   5.141 -0.4748  0.5144  1.0296
  849TIP3   OH223961   6.201   6.130  14.847 -0.4962 -0.1076  0.4026
  849TIP3    H123962   6.119   6.093  14.816  0.3600 -1.1521 -0.7097
  849TIP3    H223963   6.244   6.059  14.895 -0.0726  0.3063  0.6472
  850TIP3   OH223964   5.553   5.166  16.096  0.2261 -0.3265  0.0804
  850TIP3    H123965   5.501   5.096  16.056 -0.6352  0.3318  0.0008
  850TIP3    H223966   5.502   5.192  16.173  1.5005 -1.0751  1.2034
  851TIP3   OH223967   6.568   6.307  12.790  0.4641 -0.1090  0.3652
  851TIP3    H123968   6.525   6.393  12.797  1.7641  0.7019 -0.8869
  851TIP3    H223969   6.650   6.317  12.838  1.2156 -0.1903 -0.8408
  852TIP3   OH223970   5.697   1.043   0.138 -0.2851 -0.1378  0.1829
  852TIP3    H123971   5.650   0.992   0.204 -0.4868 -0.1382  0.0408
  852TIP3    H223972   5.717   0.980   0.069 -0.9425  0.0686 -0.2055
  853TIP3   OH223973   2.064   0.805   6.502 -0.7483 -0.6222  0.0914
  853TIP3    H123974   2.122   0.866   6.545 -0.7534 -0.8324  0.3965
  853TIP3    H223975   2.026   0.854   6.429 -2.8184  0.6171  1.8707
  854TIP3   OH223976   0.102   4.901  16.646 -0.0073  0.6776 -0.8554
  854TIP3    H123977   0.155   4.960  16.700  1.3357 -0.2028 -1.1735
  854TIP3    H223978   0.161   4.874  16.575 -0.4648 -1.3160 -0.5365
  855TIP3   OH223979   6.446   0.008  14.946 -0.1452  0.5366 -0.2385
  855TIP3    H123980   6.440   0.099  14.976  0.1092  0.5401 -0.1979
  855TIP3    H223981   6.528   0.004  14.898  0.2154  0.1362  0.4028
  856TIP3   OH223982   0.426   4.521   4.683 -0.2292 -0.2975  0.5358
  856TIP3    H123983   0.398   4.472   4.761  1.0140  1.8109  2.4309
  856TIP3    H223984   0.412   4.613   4.706  1.7566  0.4716 -1.0676
  857TIP3   OH223985   4.394   3.265  16.966 -0.0094 -0.3747 -0.1368
  857TIP3    H123986   4.307   3.290  16.936  0.4183 -1.9150 -3.0623
  857TIP3    H223987   4.448   3.343  16.952  0.1141 -0.9288 -3.5974
  858TIP3   OH223988   5.198   2.974   4.856 -0.0966  0.2713 -0.9585
  858TIP3    H123989   5.196   2.898   4.797  0.6672  1.3845 -2.4888
  858TIP3    H223990   5.286   3.011   4.844  0.3530  0.1420  1.4513
  859TIP3   OH223991   4.470   2.604   1.565 -0.1797  0.7604  0.0083
  859TIP3    H123992   4.521   2.539   1.614  1.0198  0.9487 -0.9347
  859TIP3    H223993   4.474   2.683   1.620  1.5171  1.0981 -0.5270
  860TIP3   OH223994   4.415   6.707   1.457  0.7145 -0.1672  0.1979
  860TIP3    H123995   4.452   6.764   1.525  0.8580 -0.6089  0.4897
  860TIP3    H223996   4.407   6.765   1.381 -1.2985  0.8773  1.1229
  861TIP3   OH223997   3.066   5.050  16.184  0.0944 -0.2700  0.1853
  861TIP3    H123998   3.150   5.067  16.227  0.1927 -0.4875  0.0805
  861TIP3    H223999   3.029   4.975  16.232 -0.0073 -0.2215  0.1825
  862TIP3   OH224000   1.257   4.085  17.255 -0.3241 -0.5699 -0.4002
  862TIP3    H124001   1.332   4.143  17.267 -0.3282 -0.6090 -0.1874
  862TIP3    H224002   1.289   3.999  17.281 -0.2516 -0.7081 -0.9347
  863TIP3   OH224003   1.299   5.488   5.389 -0.0387  0.0093 -0.1868
  863TIP3    H124004   1.257   5.570   5.364  1.7261  1.4000  1.1613
  863TIP3    H224005   1.385   5.513   5.421  0.0198 -2.1822  1.6893
  864TIP3   OH224006   4.497   3.067   5.501 -0.3379  0.0821 -0.7034
  864TIP3    H124007   4.548   2.990   5.525 -0.6036  0.2035  0.2973
  864TIP3    H224008   4.560   3.126   5.460  0.1343 -0.1553 -0.3331
  865TIP3   OH224009   4.291   0.290  15.222  0.2640 -0.1246  0.3364
  865TIP3    H124010   4.241   0.303  15.302  1.0455 -0.0209  0.8210
  865TIP3    H224011   4.347   0.214  15.240  1.6059  0.8509  0.4977
  866TIP3   OH224012   3.927   0.326   5.288  0.2011  0.3130  0.0928
  866TIP3    H124013   3.907   0.369   5.205 -1.3654  1.3128  0.9496
  866TIP3    H224014   4.000   0.375   5.325 -0.5340  1.2589  0.3135
  867TIP3   OH224015   1.625   2.787   0.534  0.0165  0.5200 -0.1393
  867TIP3    H124016   1.540   2.756   0.567 -0.4904  0.4032 -1.4645
  867TIP3    H224017   1.633   2.744   0.448  2.3295 -1.0147  0.7614
  868TIP3   OH224018   3.834   6.554  14.752 -0.2846 -0.2124  0.4594
  868TIP3    H124019   3.799   6.486  14.695  0.4697 -0.5662  0.4203
  868TIP3    H224020   3.867   6.621  14.692  3.3987 -1.9505  0.2851
  869TIP3   OH224021   6.151   2.653   5.134  0.9201 -0.4076  0.0151
  869TIP3    H124022   6.090   2.693   5.195 -0.3216 -2.5463  0.2896
  869TIP3    H224023   6.160   2.716   5.063 -1.9512 -0.1692 -0.2283
  870TIP3   OH224024   5.233   2.335  16.004  0.0148 -0.4051  0.6093
  870TIP3    H124025   5.247   2.406  15.941 -1.4911  0.1380  0.8299
  870TIP3    H224026   5.280   2.362  16.082 -0.0375  0.0436  0.4875
  871TIP3   OH224027   6.188   5.073   3.111  0.1749  0.8419 -0.3939
  871TIP3    H124028   6.275   5.035   3.122  0.2855  1.7789  2.7744
  871TIP3    H224029   6.201   5.148   3.052  1.6946  1.4221  0.6333
  872TIP3   OH224030   5.868   5.246   5.830  0.1525 -0.0673 -0.2229
  872TIP3    H124031   5.964   5.241   5.840  0.1114  1.5749  1.7510
  872TIP3    H224032   5.835   5.237   5.920 -1.5321 -0.2557 -0.8361
  873TIP3   OH224033   3.854   5.571  12.300 -0.9330 -0.0956  0.3477
  873TIP3    H124034   3.936   5.545  12.259 -1.1069 -0.3748  0.1762
  873TIP3    H224035   3.850   5.521  12.381 -0.9738 -0.1430  0.3160
  874TIP3   OH224036   5.719   2.514   2.623 -0.2510 -0.0732  0.6377
  874TIP3    H124037   5.707   2.582   2.557  1.7584  0.1065  0.4085
  874TIP3    H224038   5.761   2.441   2.577 -1.6034 -1.1797  1.0700
  875TIP3   OH224039   4.971   4.791   1.420 -0.5746 -0.5659 -0.1497
  875TIP3    H124040   5.000   4.728   1.486  1.9316 -0.1293 -0.7227
  875TIP3    H224041   5.025   4.771   1.343 -1.7645  0.4493 -1.2968
  876TIP3   OH224042   4.400   6.341   4.935  0.1809  0.1307 -0.2719
  876TIP3    H124043   4.307   6.364   4.940 -0.4210 -1.9788 -1.0409
  876TIP3    H224044   4.439   6.413   4.885 -0.8517  1.4435  0.7216
  877TIP3   OH224045   4.695   3.188  12.935  0.2289 -0.3173  0.3361
  877TIP3    H124046   4.748   3.268  12.943 -0.0672 -0.0906  0.0774
  877TIP3    H224047   4.714   3.156  12.847 -0.2570 -0.0889  0.1419
  878TIP3   OH224048   4.195   5.497  10.758  0.0039 -0.0523  0.4491
  878TIP3    H124049   4.241   5.555  10.697  0.6869  0.0656  1.0643
  878TIP3    H224050   4.223   5.409  10.733  2.3537  0.1007  2.1754
  879TIP3   OH224051   4.356   2.604   4.702  0.3502  0.3896 -0.3234
  879TIP3    H124052   4.309   2.686   4.715 -0.5978  0.0341 -1.3516
  879TIP3    H224053   4.418   2.623   4.632  3.4378  1.4966  2.4627
  880TIP3   OH224054   2.182   1.441  16.770 -0.3270 -0.2864 -0.2760
  880TIP3    H124055   2.122   1.500  16.724  1.3575  0.0361 -2.2230
  880TIP3    H224056   2.191   1.479  16.857 -1.3875  0.7745 -0.6029
  881TIP3   OH224057   4.870   1.773  11.210 -0.2158  0.1440  0.3076
  881TIP3    H124058   4.869   1.743  11.119 -2.5716  0.1239  0.2886
  881TIP3    H224059   4.843   1.865  11.205  0.3101  0.3473  0.9573
  882TIP3   OH224060   4.308   0.515  15.476 -0.2332  0.5140 -0.4833
  882TIP3    H124061   4.392   0.475  15.454  0.9546  2.4125  0.3722
  882TIP3    H224062   4.298   0.587  15.414 -1.2430  0.3265 -0.5652
  883TIP3   OH224063   4.892   2.732   2.447  0.0921  0.4067 -0.1883
  883TIP3    H124064   4.939   2.809   2.478  0.8111  0.6080 -1.6771
  883TIP3    H224065   4.865   2.686   2.527  1.4847  1.0986  0.7178
  884TIP3   OH224066   5.538   2.179   1.877  0.3774 -0.0207  0.5143
  884TIP3    H124067   5.603   2.222   1.821  0.7867 -0.2618  0.8026
  884TIP3    H224068   5.582   2.167   1.960 -0.0119 -0.2633  0.6879
  885TIP3   OH224069   5.722   5.948  12.440  0.2875 -0.1091 -0.4388
  885TIP3    H124070   5.692   5.894  12.367  0.4892 -2.5579  1.1808
  885TIP3    H224071   5.660   5.932  12.510 -0.0725  2.4252 -0.0710
  886TIP3   OH224072   5.815   4.788   0.327  0.0729  0.1621 -0.2078
  886TIP3    H124073   5.800   4.867   0.275  0.4664  0.2351 -0.2165
  886TIP3    H224074   5.895   4.750   0.290 -2.0501 -2.2952 -2.7468
  887TIP3   OH224075   0.992   2.646   3.086 -0.0039 -0.3865  0.2468
  887TIP3    H124076   0.983   2.604   3.172  0.4109 -0.3947  0.2908
  887TIP3    H224077   1.072   2.698   3.094 -0.7130  0.7402  0.3303
  888TIP3   OH224078   5.630   3.963  14.138  0.5152 -0.1986 -0.7403
  888TIP3    H124079   5.558   4.007  14.092  0.7863 -0.2651 -1.2333
  888TIP3    H224080   5.653   3.889  14.081  2.0924  0.7835 -1.4222
  889TIP3   OH224081   2.091   5.034  13.181 -0.6540 -0.8093  0.6637
  889TIP3    H124082   2.158   5.100  13.199 -2.0027  0.6985  0.3516
  889TIP3    H224083   2.079   4.988  13.264  1.3096 -1.6679  0.5262
  890TIP3   OH224084   3.112   2.375   5.292  0.1062 -0.0305 -0.3708
  890TIP3    H124085   3.115   2.295   5.344  0.7203  0.9551  1.1848
  890TIP3    H224086   3.193   2.421   5.314 -0.7792  1.5635 -0.3092
  891TIP3   OH224087   2.083   3.222  17.188 -0.0920  0.1411  0.3089
  891TIP3    H124088   2.170   3.196  17.219 -0.0776 -0.2758 -0.0700
  891TIP3    H224089   2.023   3.180  17.250 -0.0328  0.1369  0.3637
  892TIP3   OH224090   4.600   0.338   4.288 -0.0445 -0.0430  0.3151
  892TIP3    H124091   4.511   0.337   4.254  0.3455  1.2808 -0.8444
  892TIP3    H224092   4.599   0.404   4.356 -0.0800 -0.4401  0.7018
  893TIP3   OH224093   6.386   5.984  15.022  0.7991 -0.2793 -0.2381
  893TIP3    H124094   6.433   5.908  14.988  0.3276 -2.0334  2.6791
  893TIP3    H224095   6.447   6.057  15.011  1.7019 -1.2510 -2.1115
  894TIP3   OH224096   0.260   5.141   1.638 -0.1816  0.3808  0.3096
  894TIP3    H124097   0.259   5.185   1.723 -2.4378  0.2014  0.4496
  894TIP3    H224098   0.315   5.063   1.651 -0.2706  0.5119  1.5247
  895TIP3   OH224099   2.487   0.331  12.941 -0.4817  0.4682  0.2025
  895TIP3    H124100   2.437   0.372  13.011 -0.4323  2.2139 -0.7306
  895TIP3    H224101   2.572   0.312  12.980 -1.9012 -3.2248  2.0306
  896TIP3   OH224102   2.277   1.229   3.895 -0.1886 -0.2129  0.5380
  896TIP3    H124103   2.333   1.208   3.969  0.2130  1.0690  0.6158
  896TIP3    H224104   2.188   1.221   3.930 -0.0260 -0.5494  0.8861
  897TIP3   OH224105   2.414   2.167   5.378  0.4151  0.3518 -0.3150
  897TIP3    H124106   2.446   2.077   5.379  1.6983  0.7792  0.0331
  897TIP3    H224107   2.437   2.201   5.465  0.0298  1.0341 -0.4725
  898TIP3   OH224108   2.649   4.556   4.445 -0.3609 -0.5073 -0.1253
  898TIP3    H124109   2.645   4.460   4.450  1.1869 -0.5890 -0.0805
  898TIP3    H224110   2.558   4.584   4.455 -0.8478 -1.9733 -0.2130
  899TIP3   OH224111   6.487   1.545  11.397  0.5543  0.0431  0.3797
  899TIP3    H124112   6.539   1.531  11.318 -2.2790 -0.5611 -1.5386
  899TIP3    H224113   6.472   1.639  11.400 -0.2291 -0.0368 -0.4918
  900TIP3   OH224114   6.052   1.491  15.393 -0.0805 -0.1139 -0.4019
  900TIP3    H124115   6.074   1.463  15.482  1.3676  1.0126 -0.3729
  900TIP3    H224116   5.956   1.498  15.394 -0.0805  0.1959  1.1814
  901TIP3   OH224117   5.766   6.524   3.726  0.4440 -0.2571 -0.3776
  901TIP3    H124118   5.767   6.465   3.650 -1.3698 -1.3400  0.3672
  901TIP3    H224119   5.752   6.466   3.801 -1.3242  1.0727  0.3896
  902TIP3   OH224120   3.596   4.365  16.161  0.0185 -0.3567 -0.3618
  902TIP3    H124121   3.539   4.392  16.089 -0.8427 -1.8578 -0.2913
  902TIP3    H224122   3.538   4.362  16.237  0.6432  0.0041  0.1383
  903TIP3   OH224123   0.280   5.059  15.194 -0.4231  0.0055  0.1879
  903TIP3    H124124   0.207   5.036  15.252  0.6737 -2.4569  0.7408
  903TIP3    H224125   0.271   4.999  15.120  0.9427 -0.2470  0.2026
  904TIP3   OH224126   4.625   3.442   2.177 -0.3180 -0.0265 -0.0449
  904TIP3    H124127   4.570   3.403   2.109  0.4263 -1.3290  0.0856
  904TIP3    H224128   4.647   3.370   2.235 -1.2779  1.1346  1.8561
  905TIP3   OH224129   0.856   1.355   1.708 -0.0735 -0.3345 -0.7793
  905TIP3    H124130   0.788   1.289   1.718  0.2140 -0.4708  0.4207
  905TIP3    H224131   0.808   1.437   1.696 -0.5141 -0.2327  1.2715
  906TIP3   OH224132   3.486   1.701   3.319 -0.6041  0.2732  0.0725
  906TIP3    H124133   3.496   1.788   3.282  1.6109  0.2113  0.3848
  906TIP3    H224134   3.392   1.691   3.334 -1.5499  0.7146 -4.3911
  907TIP3   OH224135   4.363   5.332   3.511  0.3536  0.3001 -1.0191
  907TIP3    H124136   4.412   5.253   3.487  2.2831  1.4387 -1.0683
  907TIP3    H224137   4.328   5.313   3.598  0.8845 -0.5621 -0.9824
  908TIP3   OH224138   4.032   4.344  13.826  0.1363  0.0981  0.6260
  908TIP3    H124139   4.015   4.251  13.841  0.8240  0.1504  1.8653
  908TIP3    H224140   4.053   4.379  13.912  1.1830  1.1251 -0.0125
  909TIP3   OH224141   4.544   3.708   2.191  0.5992 -0.1791 -0.0197
  909TIP3    H124142   4.558   3.615   2.175 -0.1654 -0.1549 -0.9166
  909TIP3    H224143   4.499   3.712   2.275  2.1215 -0.5006  0.8372
  910TIP3   OH224144   5.098   6.509  16.424 -0.0206 -0.3753 -0.5451
  910TIP3    H124145   5.052   6.587  16.455  0.5795 -0.0793 -0.3779
  910TIP3    H224146   5.182   6.541  16.393 -0.7608 -0.6009 -2.9362
  911TIP3   OH224147   1.338   1.626   0.734  0.0670  0.4425 -0.1303
  911TIP3    H124148   1.360   1.664   0.819  0.7748 -2.8708  1.3215
  911TIP3    H224149   1.408   1.655   0.676  1.0974  0.5586  1.1265
  912TIP3   OH224150   5.488   4.897   5.687  0.2745 -0.4171  0.1580
  912TIP3    H124151   5.577   4.932   5.692  0.5997 -0.8385 -1.8715
  912TIP3    H224152   5.499   4.802   5.680 -0.2640 -0.4004 -1.1416
  913TIP3   OH224153   4.552   0.080  13.564 -0.2945  0.1540 -0.4288
  913TIP3    H124154   4.585   0.160  13.605  1.7548 -1.0698  0.4559
  913TIP3    H224155   4.531   0.022  13.637 -0.5282 -0.5822 -1.0689
  914TIP3   OH224156   3.353   6.345  15.252 -0.0186  0.3464  0.2185
  914TIP3    H124157   3.343   6.316  15.161 -4.0377  0.2030  0.5359
  914TIP3    H224158   3.330   6.268  15.304  0.3893  0.9592  1.3352
  915TIP3   OH224159   5.985   2.530  11.535 -0.6757  0.2979  0.6918
  915TIP3    H124160   5.913   2.490  11.486  0.7604 -0.3725 -0.9605
  915TIP3    H224161   5.997   2.472  11.610  0.3451 -1.5757 -0.8417
  916TIP3   OH224162   6.067   0.714   3.273 -0.9779 -0.0563  0.0292
  916TIP3    H124163   6.157   0.744   3.262 -0.2894 -2.2543 -0.7611
  916TIP3    H224164   6.020   0.748   3.197 -0.6178  0.3201 -0.0272
  917TIP3   OH224165   4.119   2.456   0.931 -0.3570  0.1449 -0.0849
  917TIP3    H124166   4.033   2.481   0.897  0.1931  1.3983 -0.6106
  917TIP3    H224167   4.136   2.519   1.001  0.4062  0.3018 -0.4088
  918TIP3   OH224168   2.533   2.202   0.066  0.0973 -0.2313  0.1982
  918TIP3    H124169   2.600   2.176   0.002 -0.4563 -1.7249  0.1874
  918TIP3    H224170   2.450   2.178   0.024 -0.4264  1.0609  0.4583
  919TIP3   OH224171   1.100   5.647  14.232 -0.1729  0.5715 -0.2533
  919TIP3    H124172   1.015   5.634  14.190 -0.2316  0.0059  0.0397
  919TIP3    H224173   1.153   5.572  14.205  0.6883  1.5973 -1.5310
  920TIP3   OH224174   3.978   0.249  15.995 -0.3506 -0.0106 -0.1135
  920TIP3    H124175   4.016   0.193  16.063  0.2132  0.7190  0.1894
  920TIP3    H224176   3.979   0.195  15.916  1.0505 -0.1253 -0.0409
  921TIP3   OH224177   4.014   5.955   4.023  0.1202  0.0344 -0.1362
  921TIP3    H124178   4.093   5.932   4.071  0.2420 -1.4388 -0.9811
  921TIP3    H224179   3.951   5.981   4.090  0.9324  0.0501  0.6338
  922TIP3   OH224180   5.761   5.757  16.408  0.2294  0.3734  0.0224
  922TIP3    H124181   5.770   5.776  16.501 -0.0698  0.7611 -0.0258
  922TIP3    H224182   5.782   5.663  16.401  1.6588  0.6591  0.2616
  923TIP3   OH224183   2.847   0.549  13.335  0.6929  0.0238  0.1402
  923TIP3    H124184   2.855   0.487  13.407  0.7024 -0.6447 -0.4226
  923TIP3    H224185   2.927   0.601  13.339  0.6220  0.0960  0.6998
  924TIP3   OH224186   3.803   2.105  16.950  0.4179  0.3933  0.1736
  924TIP3    H124187   3.827   2.183  16.999  1.5681 -1.1823  2.2881
  924TIP3    H224188   3.880   2.084  16.897 -0.5080  1.5916 -1.7575
  925TIP3   OH224189   6.093   2.189  14.061  1.0142  0.0429  0.3624
  925TIP3    H124190   6.153   2.130  14.107  0.3461 -1.0760 -0.1745
  925TIP3    H224191   6.062   2.139  13.986  0.0526  0.9118  0.1543
  926TIP3   OH224192   5.517   2.457   3.511  0.3874  0.7195 -0.1804
  926TIP3    H124193   5.558   2.537   3.543  1.8938 -0.1653  0.1877
  926TIP3    H224194   5.579   2.422   3.446  1.5525 -1.9589  2.1486
  927TIP3   OH224195   3.557   3.415  11.818  0.2579 -0.3172 -0.2479
  927TIP3    H124196   3.481   3.455  11.860 -0.1254 -0.1265 -1.1143
  927TIP3    H224197   3.627   3.422  11.884  0.0690  1.3326 -0.1821
  928TIP3   OH224198   3.420   6.376  16.642 -0.3311 -0.2186 -0.5616
  928TIP3    H124199   3.336   6.419  16.650  0.5596  1.2013  2.6628
  928TIP3    H224200   3.484   6.444  16.662  1.4365 -1.8519 -0.3551
  929TIP3   OH224201   6.181   5.764   4.619  0.3888  0.1601  0.7419
  929TIP3    H124202   6.159   5.718   4.701  2.2453  0.2393  1.3193
  929TIP3    H224203   6.209   5.851   4.647  0.4200  0.4081 -0.0396
  930TIP3   OH224204   4.317   0.509  11.527  0.2509  0.1869 -0.2567
  930TIP3    H124205   4.321   0.605  11.531  1.5828  0.1346  0.0099
  930TIP3    H224206   4.282   0.483  11.612  0.3827  0.4074 -0.1333
  931TIP3   OH224207   6.073   4.435  12.685 -0.2787 -0.1877  0.5659
  931TIP3    H124208   6.152   4.385  12.666  0.4614 -0.0092  2.8214
  931TIP3    H224209   6.022   4.377  12.743 -0.9317  0.4149  0.6078
  932TIP3   OH224210   4.800   1.198   2.616  0.3121 -0.2420  0.7397
  932TIP3    H124211   4.771   1.122   2.666 -0.4344 -0.3164  0.1992
  932TIP3    H224212   4.890   1.178   2.591 -0.0662 -1.1976  0.1185
  933TIP3   OH224213   2.053   5.407   6.915  0.0670 -0.2644 -0.4250
  933TIP3    H124214   2.013   5.419   6.828 -1.5590 -2.1488  0.0152
  933TIP3    H224215   1.990   5.445   6.976  0.7915  0.2346  0.0371
  934TIP3   OH224216   2.548   5.928   1.173 -0.1239  0.4845  0.4790
  934TIP3    H124217   2.625   5.910   1.227 -0.4826  0.1742  0.9063
  934TIP3    H224218   2.517   5.841   1.146 -0.0234  0.6325 -0.1247
  935TIP3   OH224219   2.234   6.520   1.052  0.1536  0.2277  0.3891
  935TIP3    H124220   2.190   6.444   1.091  0.3195 -0.4367 -0.6674
  935TIP3    H224221   2.307   6.482   1.004 -0.8642  0.8157 -1.7613
  936TIP3   OH224222   2.951   2.361  10.682  0.0562 -0.5564  0.5386
  936TIP3    H124223   3.038   2.333  10.713  0.5845 -1.8543 -1.8372
  936TIP3    H224224   2.901   2.280  10.675  0.0755 -0.4178 -2.0945
  937TIP3   OH224225   3.158   5.036  16.812 -0.1081 -0.1212  0.0973
  937TIP3    H124226   3.134   4.955  16.768  0.5748 -0.4118  0.2470
  937TIP3    H224227   3.232   5.069  16.761 -1.0301  0.9605 -0.5941
  938TIP3   OH224228   4.264   5.038   5.458  0.4735 -0.1545  0.1405
  938TIP3    H124229   4.328   4.984   5.504  0.9496 -0.4862 -0.8803
  938TIP3    H224230   4.314   5.081   5.388  0.0548  1.4238  0.7650
  939TIP3   OH224231   0.332   5.329  15.858 -0.1079 -0.3390 -0.2772
  939TIP3    H124232   0.270   5.398  15.835 -1.0774 -1.3877 -0.9199
  939TIP3    H224233   0.290   5.248  15.830  1.3850 -1.1289 -0.3798
  940TIP3   OH224234   1.828   1.840   0.706  0.1497 -0.0344 -0.0510
  940TIP3    H124235   1.922   1.821   0.696  0.0913  0.0491 -0.7841
  940TIP3    H224236   1.806   1.805   0.792  0.9576  0.3430  0.3214
  941TIP3   OH224237   1.636   6.372  12.665  0.5371  0.8052  0.5945
  941TIP3    H124238   1.589   6.289  12.673 -0.0165  1.0967  0.4293
  941TIP3    H224239   1.571   6.434  12.631  1.1854  1.0812 -0.1905
  942TIP3   OH224240   4.122   5.373   5.179 -0.0404 -0.3830 -0.1687
  942TIP3    H124241   4.135   5.278   5.175  1.1831 -0.1986 -0.9226
  942TIP3    H224242   4.156   5.398   5.265 -0.5174 -0.6380  0.1006
  943TIP3   OH224243   1.343   2.403   4.765  0.3891 -0.2546  0.1051
  943TIP3    H124244   1.398   2.471   4.728 -1.5015  0.9487 -0.6292
  943TIP3    H224245   1.372   2.396   4.856  1.2136  0.8900 -0.0468
  944TIP3   OH224246   5.258   6.383  16.083 -0.0724  0.2832 -0.0451
  944TIP3    H124247   5.171   6.423  16.083 -0.6084 -0.8619  0.4611
  944TIP3    H224248   5.318   6.457  16.070 -1.1606  0.9598 -1.4222
  945TIP3   OH224249   2.188   6.610  16.620 -0.0681  0.3770 -0.5716
  945TIP3    H124250   2.186   6.690  16.674  1.4539 -0.9574  1.6826
  945TIP3    H224251   2.204   6.641  16.531  0.9413  2.5849  0.3065
  946TIP3   OH224252   3.799   1.873  12.261 -0.6083 -0.6088  0.0213
  946TIP3    H124253   3.782   1.788  12.220  0.2975 -0.3514 -0.9142
  946TIP3    H224254   3.876   1.907  12.216 -2.3684  1.8282 -1.4097
  947TIP3   OH224255   2.439   0.567   2.453  0.4900  0.1963 -0.9873
  947TIP3    H124256   2.444   0.548   2.546 -1.7534 -1.0040 -1.0631
  947TIP3    H224257   2.531   0.575   2.426  1.2109  3.0835  1.7417
  948TIP3   OH224258   1.369   6.709  16.952  0.0803 -0.0041  0.3149
  948TIP3    H124259   1.323   6.791  16.939  0.5732 -0.0104 -1.7712
  948TIP3    H224260   1.300   6.646  16.972 -0.5049  0.5520  0.0859
  949TIP3   OH224261   1.539   5.702   3.887  0.0953 -0.1447 -0.9050
  949TIP3    H124262   1.576   5.775   3.935 -1.6015  0.5228 -0.5409
  949TIP3    H224263   1.550   5.726   3.795 -1.6068  1.2563 -0.8026
  950TIP3   OH224264   0.504   5.381   1.577  0.3451 -0.2266 -0.5069
  950TIP3    H124265   0.473   5.458   1.529  1.6032 -0.4939 -1.8189
  950TIP3    H224266   0.470   5.307   1.528 -0.5111 -0.5393  0.5191
  951TIP3   OH224267   5.445   2.031  15.693  0.0283 -0.0372 -0.1561
  951TIP3    H124268   5.482   2.047  15.606  1.5220  2.2093  0.8185
  951TIP3    H224269   5.426   2.118  15.728  0.5476 -0.8101  2.2163
  952TIP3   OH224270   3.479   1.725  12.007  0.1281  0.0842  0.2141
  952TIP3    H124271   3.471   1.658  11.939 -0.2360 -0.0607  0.3945
  952TIP3    H224272   3.447   1.806  11.965 -0.2720 -0.0440  0.2682
  953TIP3   OH224273   1.377   5.643   1.605  0.3425  0.6777  0.0273
  953TIP3    H124274   1.329   5.702   1.547  0.6907  0.6836 -0.2624
  953TIP3    H224275   1.408   5.699   1.676 -1.9426  0.2841  1.4126
  954TIP3   OH224276   0.148   6.163   2.381  0.5800  0.1865 -0.3290
  954TIP3    H124277   0.108   6.128   2.461  0.0976 -1.5564 -1.2774
  954TIP3    H224278   0.084   6.226   2.348  0.7664  0.8964  0.6189
  955TIP3   OH224279   3.696   3.587   6.585 -0.4010 -0.3531  0.1872
  955TIP3    H124280   3.625   3.523   6.594 -0.1692 -1.0879 -2.3020
  955TIP3    H224281   3.772   3.535   6.557 -0.0619  0.8892 -1.3883
  956TIP3   OH224282   5.519   2.004   6.178 -0.2266 -0.6189  0.0835
  956TIP3    H124283   5.434   1.960   6.177 -1.2655  1.2672 -0.5455
  956TIP3    H224284   5.553   1.993   6.090 -1.2577  1.1495 -0.5801
  957TIP3   OH224285   2.743   2.101   4.299 -0.2762  0.1084  0.4517
  957TIP3    H124286   2.694   2.149   4.233  0.0572 -0.8735 -0.5381
  957TIP3    H224287   2.705   2.013   4.297  1.0347 -0.4727  0.1645
  958TIP3   OH224288   3.434   4.398   6.146  0.5188 -0.0711 -0.6517
  958TIP3    H124289   3.365   4.445   6.194  0.5776 -1.1665  0.5509
  958TIP3    H224290   3.515   4.425   6.188  0.6101 -0.7159 -0.4110
  959TIP3   OH224291   5.317   1.480  11.382 -0.4202 -0.6344 -0.5138
  959TIP3    H124292   5.399   1.441  11.413  0.6419  0.3079 -2.0235
  959TIP3    H224293   5.256   1.468  11.455  1.2230 -0.8046  0.9024
  960TIP3   OH224294   4.312   2.021  11.516 -0.2114 -0.0698 -0.3154
  960TIP3    H124295   4.308   2.116  11.509  0.4815 -0.0724 -0.8265
  960TIP3    H224296   4.247   1.989  11.454 -0.0558  0.0608 -0.5446
  961TIP3   OH224297   3.776   4.510   4.026  0.1518 -0.2538 -0.2440
  961TIP3    H124298   3.836   4.499   4.100 -1.5255 -0.1732  1.1870
  961TIP3    H224299   3.739   4.423   4.012  2.3354 -0.9253 -2.7936
  962TIP3   OH224300   1.721   5.797   3.108 -0.0849 -0.1663 -0.3916
  962TIP3    H124301   1.664   5.721   3.096  1.4808 -1.2942 -1.0517
  962TIP3    H224302   1.675   5.868   3.065 -1.4415 -0.7903 -0.0434
  963TIP3   OH224303   5.493   4.712  11.391 -0.7928 -0.3522  0.2417
  963TIP3    H124304   5.537   4.797  11.385  2.4938 -1.9628 -0.6109
  963TIP3    H224305   5.490   4.693  11.484 -1.4292  0.5918  0.4325
  964TIP3   OH224306   0.686   4.598  13.736  0.2292  0.0726  0.5780
  964TIP3    H124307   0.685   4.504  13.752 -2.5919 -0.4430 -1.7254
  964TIP3    H224308   0.633   4.635  13.807  0.4163 -0.2222  0.8734
  965TIP3   OH224309   5.744   2.471  14.298  0.7980  0.0103  0.4170
  965TIP3    H124310   5.745   2.498  14.206  0.8931  0.7795  0.6349
  965TIP3    H224311   5.747   2.376  14.296 -0.7501 -0.0573 -0.4216
  966TIP3   OH224312   3.418   6.349   4.136 -0.1803  0.2121 -0.5099
  966TIP3    H124313   3.499   6.394   4.160  0.4495 -0.6193 -1.0222
  966TIP3    H224314   3.427   6.262   4.174 -0.3318 -0.2485 -1.4934
  967TIP3   OH224315   1.546   4.622   0.633 -0.8106  0.2911 -0.0504
  967TIP3    H124316   1.590   4.594   0.713 -0.4523  2.7836  0.7093
  967TIP3    H224317   1.453   4.622   0.657 -0.6700  1.5101  0.5675
  968TIP3   OH224318   3.620   3.843  12.074  0.0931  0.2265 -0.1942
  968TIP3    H124319   3.562   3.839  11.998 -0.2432 -1.1118  0.1036
  968TIP3    H224320   3.580   3.906  12.132 -0.5168  0.0704 -0.4393
  969TIP3   OH224321   5.017   2.669  14.641 -0.6253  0.5255  0.4312
  969TIP3    H124322   4.951   2.692  14.576  0.5302  0.9871 -0.6227
  969TIP3    H224323   5.025   2.746  14.696  0.2969  1.1773 -0.5648
  970TIP3   OH224324   5.135   2.825   0.673 -0.3169 -0.2695 -0.2502
  970TIP3    H124325   5.102   2.910   0.702  0.1879  0.0697 -0.6612
  970TIP3    H224326   5.229   2.837   0.664 -0.3292 -0.6757 -0.9706
  971TIP3   OH224327   1.837   3.748  12.803  0.2752 -0.0007  0.2755
  971TIP3    H124328   1.844   3.825  12.748  1.3615 -0.6953 -0.5918
  971TIP3    H224329   1.763   3.766  12.861 -0.0840  1.2704 -0.5584
  972TIP3   OH224330   1.140   6.108  16.500 -0.4486 -0.7409 -0.1374
  972TIP3    H124331   1.208   6.157  16.545 -0.3420 -0.1130 -0.9682
  972TIP3    H224332   1.187   6.052  16.439 -0.6546 -0.6888 -0.3453
  973TIP3   OH224333   5.643   0.917   5.336 -0.4870  0.3626  0.3472
  973TIP3    H124334   5.552   0.918   5.364 -0.5342 -0.6193  0.2451
  973TIP3    H224335   5.646   0.979   5.263 -1.2591 -0.2013 -0.1814
  974TIP3   OH224336   6.360   4.436   4.296 -0.4741  0.0847  0.3715
  974TIP3    H124337   6.329   4.349   4.320  0.0745 -0.0537  0.5915
  974TIP3    H224338   6.360   4.485   4.379  0.9583 -0.2499  0.5832
  975TIP3   OH224339   3.925   3.692  15.502  0.0692 -0.3952 -0.1443
  975TIP3    H124340   3.894   3.667  15.589  0.3205  0.1883  0.1159
  975TIP3    H224341   3.983   3.766  15.517  2.2715 -1.9408 -0.5253
  976TIP3   OH224342   3.721   6.358   1.271 -0.4075  0.4527 -0.2937
  976TIP3    H124343   3.805   6.365   1.226 -0.6647  1.3802 -0.6595
  976TIP3    H224344   3.656   6.375   1.203 -0.7894  2.5100  0.5228
  977TIP3   OH224345   5.762   1.141   0.875  0.4258 -0.2013  0.2991
  977TIP3    H124346   5.782   1.167   0.965 -1.2054  2.4117  0.0094
  977TIP3    H224347   5.818   1.198   0.821 -0.8521  0.4929 -0.3371
  978TIP3   OH224348   3.960   2.385  12.243 -0.2327  0.0926 -0.0022
  978TIP3    H124349   3.996   2.328  12.175  0.2478 -0.1232  0.4353
  978TIP3    H224350   3.892   2.436  12.197 -0.1227 -0.2634 -0.5717
  979TIP3   OH224351   1.437   4.558  15.646 -0.1161  0.5450 -0.0473
  979TIP3    H124352   1.521   4.597  15.668  0.1185  2.3378 -3.3960
  979TIP3    H224353   1.450   4.464  15.660  1.7976  0.9528  1.2990
  980TIP3   OH224354   3.649   1.001  12.745 -0.3041  0.3573 -0.3739
  980TIP3    H124355   3.664   0.919  12.792  0.7532  0.9682  0.4109
  980TIP3    H224356   3.577   1.043  12.793 -2.8937 -1.3609 -2.5181
  981TIP3   OH224357   0.312   4.209   4.884  0.2582  0.2483  0.3006
  981TIP3    H124358   0.346   4.297   4.899  1.4909 -0.0333 -0.7220
  981TIP3    H224359   0.330   4.163   4.966 -1.6511  1.2787  1.3784
  982TIP3   OH224360   1.926   4.283   4.979  0.1820 -0.4382  0.2342
  982TIP3    H124361   1.979   4.210   5.010  2.2717 -0.5210 -3.0454
  982TIP3    H224362   1.839   4.267   5.016  1.5279 -2.2076  3.0267
  983TIP3   OH224363   3.362   1.135   1.193 -0.8473  0.0916 -0.2251
  983TIP3    H124364   3.435   1.074   1.197 -1.4661 -0.6930 -0.5039
  983TIP3    H224365   3.393   1.214   1.236  0.5686  0.1986 -1.3737
  984TIP3   OH224366   4.729   0.039   5.075 -0.2832 -0.0742 -0.5616
  984TIP3    H124367   4.776   0.073   5.151 -1.6096  1.0832 -0.2013
  984TIP3    H224368   4.795   0.033   5.006  0.7984 -0.4803  0.4757
  985TIP3   OH224369   6.758   5.465   4.401 -0.2740 -0.3924  0.6425
  985TIP3    H124370   6.844   5.429   4.379  1.4660  1.7615  3.2679
  985TIP3    H224371   6.765   5.558   4.381 -1.6368 -0.0108  1.7846
  986TIP3   OH224372   3.721   3.157   3.969 -0.1242  0.3250 -0.5821
  986TIP3    H124373   3.625   3.155   3.959 -0.0069  0.2870 -1.8428
  986TIP3    H224374   3.751   3.079   3.922  0.3825 -1.2199  2.1027
  987TIP3   OH224375   4.862   2.030   1.658  0.5427 -0.1381  0.1285
  987TIP3    H124376   4.853   2.123   1.640  0.9018 -0.2617 -0.7154
  987TIP3    H224377   4.942   2.004   1.611  0.0653 -1.0102 -0.2146
  988TIP3   OH224378   2.469   5.371   5.352 -0.2257 -0.0255  0.1742
  988TIP3    H124379   2.502   5.410   5.433 -0.2593 -2.8717  1.6893
  988TIP3    H224380   2.489   5.278   5.360 -1.4426 -0.6285 -2.5195
  989TIP3   OH224381   2.883   5.242  12.931  0.6763  0.2243  0.3062
  989TIP3    H124382   2.927   5.321  12.963 -0.7844  0.8149  0.9432
  989TIP3    H224383   2.822   5.218  13.000 -3.8103  2.4628 -2.4137
  990TIP3   OH224384   6.548   6.237   5.207  0.2911  0.2074  0.0089
  990TIP3    H124385   6.504   6.185   5.274  2.9043  1.6796  3.1239
  990TIP3    H224386   6.629   6.190   5.190  1.3537  1.7178  0.7223
  991TIP3   OH224387   3.137   1.798  13.189  0.0253 -0.0296  0.5885
  991TIP3    H124388   3.132   1.728  13.254 -0.6693 -0.3018  0.2444
  991TIP3    H224389   3.193   1.763  13.120  0.7601  0.2576  1.0201
  992TIP3   OH224390   4.169   0.922   6.182  0.5400  0.2303 -0.3812
  992TIP3    H124391   4.194   0.859   6.250 -0.8071  0.4385  0.3396
  992TIP3    H224392   4.156   1.004   6.229  1.7013  0.9178 -1.2286
  993TIP3   OH224393   0.591   5.957   4.661  0.3331  0.2017 -0.4489
  993TIP3    H124394   0.685   5.965   4.681  0.5336  0.7203 -1.5379
  993TIP3    H224395   0.588   5.951   4.566 -0.8798  2.1641 -0.5732
  994TIP3   OH224396   6.725   5.392  12.867  0.1716 -0.2308 -0.1426
  994TIP3    H124397   6.748   5.463  12.927  1.0517 -1.5872  1.2201
  994TIP3    H224398   6.634   5.372  12.886  0.0466  0.2376 -0.2353
  995TIP3   OH224399   1.347   5.963   4.423 -0.5497 -0.1499 -0.0476
  995TIP3    H124400   1.416   5.902   4.449 -0.2615  0.6793  1.2352
  995TIP3    H224401   1.308   5.924   4.344  0.2275 -1.5030  0.2119
  996TIP3   OH224402   4.900   5.053   1.526 -0.1438  0.3539  0.2001
  996TIP3    H124403   4.968   5.092   1.582 -1.1044 -0.0555  1.7027
  996TIP3    H224404   4.941   4.972   1.493  0.0463 -0.0057  1.2687
  997TIP3   OH224405   4.514   2.547  12.429  0.0944  0.4966 -0.0657
  997TIP3    H124406   4.542   2.615  12.368 -0.2334  1.7792  1.1690
  997TIP3    H224407   4.556   2.467  12.397  0.1916  1.1949 -1.7600
  998TIP3   OH224408   2.827   6.747  13.125 -0.2251  0.3586  0.0262
  998TIP3    H124409   2.761   6.679  13.110 -1.1267  1.6757 -2.3398
  998TIP3    H224410   2.896   6.728  13.062  1.2456 -0.3731  1.7646
  999TIP3   OH224411   4.908   5.851   3.901  0.2586 -0.0197  0.3177
  999TIP3    H124412   4.954   5.898   3.832  0.0240 -0.2958 -0.0333
  999TIP3    H224413   4.879   5.919   3.961 -1.9530  0.5629 -1.2681
 1000TIP3   OH224414   3.228   4.578  16.278 -0.3087 -0.2088  0.4863
 1000TIP3    H124415   3.294   4.511  16.259 -2.0864 -1.2939 -2.6609
 1000TIP3    H224416   3.149   4.529  16.298 -0.9793  0.9958  0.8642
 1001TIP3   OH224417   4.188   2.918  12.832 -0.3759  0.3380  0.3706
 1001TIP3    H124418   4.251   2.867  12.883 -3.1150 -1.0046  2.7009
 1001TIP3    H224419   4.162   2.860  12.760 -1.6649 -0.7018  1.6088
 1002TIP3   OH224420   0.514   3.292  11.026  0.5144  1.2830  0.1418
 1002TIP3    H124421   0.540   3.233  10.955  0.1383  0.9823  0.2530
 1002TIP3    H224422   0.503   3.377  10.984 -0.2667  0.9892 -0.2656
 1003TIP3   OH224423   4.658   2.938   0.133 -0.2777  0.3563 -0.1685
 1003TIP3    H124424   4.674   2.885   0.054  0.8589  0.8246 -0.2638
 1003TIP3    H224425   4.593   2.888   0.182 -0.4783 -0.2926 -1.0686
 1004TIP3   OH224426   0.855   5.522   5.650  0.5509 -0.6297  0.4599
 1004TIP3    H124427   0.893   5.446   5.608 -3.6708 -1.6613 -2.1064
 1004TIP3    H224428   0.856   5.502   5.744  0.9853 -3.1345 -0.0273
 1005TIP3   OH224429   5.785   1.594  16.208  0.1106 -0.0928  0.3263
 1005TIP3    H124430   5.837   1.524  16.169  0.6544 -0.3311  1.4357
 1005TIP3    H224431   5.698   1.556  16.220 -0.3943  0.3298 -1.6063
 1006TIP3   OH224432   2.184   6.042   3.162 -0.7579 -0.5461  0.1891
 1006TIP3    H124433   2.248   6.024   3.093 -1.9700  1.8525 -1.6823
 1006TIP3    H224434   2.121   5.970   3.155 -0.1233 -1.0760 -0.2526
 1007TIP3   OH224435   2.145   4.191  11.689  0.3831 -0.3001 -0.8363
 1007TIP3    H124436   2.073   4.252  11.674 -2.0092 -2.1321  2.0793
 1007TIP3    H224437   2.107   4.105  11.673  1.7171 -1.3709  1.3157
 1008TIP3   OH224438   4.649   0.088  16.553 -0.2650 -0.1836  0.5439
 1008TIP3    H124439   4.597   0.136  16.618  0.2305  0.3101  0.5796
 1008TIP3    H224440   4.729   0.139  16.543 -0.3741 -0.1899 -0.5400
 1009TIP3   OH224441   0.276   5.142   4.147  0.2692  0.1016  0.0030
 1009TIP3    H124442   0.347   5.078   4.159  0.2349 -0.1555 -1.0128
 1009TIP3    H224443   0.227   5.140   4.228 -0.2850 -1.8690 -0.3427
 1010TIP3   OH224444   5.302   2.961  16.457  0.0136 -0.2537 -1.0105
 1010TIP3    H124445   5.265   3.050  16.453 -1.2677 -0.6925  0.3883
 1010TIP3    H224446   5.245   2.909  16.400 -0.9362 -0.7230  0.3385
 1011TIP3   OH224447   2.628   0.912  15.652 -0.0794 -0.1507  0.0388
 1011TIP3    H124448   2.624   0.972  15.578 -0.4944 -0.2427 -0.0192
 1011TIP3    H224449   2.614   0.967  15.729 -0.6009 -0.1874 -0.0247
 1012TIP3   OH224450   5.439   1.777   6.388 -0.1588  0.1146  0.2498
 1012TIP3    H124451   5.401   1.809   6.307  0.9579 -0.4771 -0.5367
 1012TIP3    H224452   5.375   1.714   6.422  0.3446 -1.3480 -1.3770
 1013TIP3   OH224453   2.274   6.160   2.871 -0.3558  0.0195  0.0164
 1013TIP3    H124454   2.181   6.178   2.859 -0.3187  1.0486  1.0935
 1013TIP3    H224455   2.310   6.242   2.906  0.9307 -0.3977 -0.2846
 1014TIP3   OH224456   2.428   2.747  17.082  0.9401  0.1886 -1.2330
 1014TIP3    H124457   2.440   2.827  17.133 -0.5024 -1.9443  2.9039
 1014TIP3    H224458   2.517   2.720  17.059  1.7024  1.2941  0.2505
 1015TIP3   OH224459   6.712   6.034  13.922 -0.7179  0.1511 -0.2932
 1015TIP3    H124460   6.806   6.027  13.905 -0.5361 -0.4623  0.8584
 1015TIP3    H224461   6.699   6.127  13.941 -0.2754  0.1820 -0.1223
 1016TIP3   OH224462   5.333   1.464   6.354  0.2635  0.3679 -0.3019
 1016TIP3    H124463   5.420   1.427   6.366 -0.4537 -1.1369  0.5154
 1016TIP3    H224464   5.315   1.512   6.435  0.1890  0.3925 -0.3324
 1017TIP3   OH224465   0.177   1.870  10.969 -0.1597 -0.1984  0.3328
 1017TIP3    H124466   0.129   1.948  10.943 -0.6109 -0.5027  0.2378
 1017TIP3    H224467   0.233   1.899  11.041 -0.7477  0.0875  0.6870
 1018TIP3   OH224468   5.722   2.916   0.110 -0.0692  0.0089 -0.1022
 1018TIP3    H124469   5.641   2.921   0.059  0.2683  1.6026 -0.5359
 1018TIP3    H224470   5.693   2.910   0.201 -0.6762 -0.1243 -0.3012
 1019TIP3   OH224471   4.739   3.640   5.422 -0.1620  0.4576 -0.1143
 1019TIP3    H124472   4.674   3.593   5.475  0.1233 -0.1621 -0.3136
 1019TIP3    H224473   4.744   3.726   5.463  0.6047 -0.2438  1.3368
 1020TIP3   OH224474   0.286   4.788  11.525 -0.1370  0.1960 -0.2829
 1020TIP3    H124475   0.360   4.763  11.469  1.7832  0.6578  1.8798
 1020TIP3    H224476   0.276   4.715  11.586  0.1429  1.1514  0.9431
 1021TIP3   OH224477   4.661   0.693   0.713 -0.1302  0.6043 -0.2767
 1021TIP3    H124478   4.746   0.660   0.742 -0.2030  1.2293  0.6717
 1021TIP3    H224479   4.665   0.787   0.726 -0.6524  0.7507 -1.0770
 1022TIP3   OH224480   1.707   4.916  16.431  0.2408 -0.6851  0.6763
 1022TIP3    H124481   1.693   5.010  16.427 -1.9793 -0.9477  0.9048
 1022TIP3    H224482   1.664   4.882  16.353  1.3510 -1.5049  0.3937
 1023TIP3   OH224483   2.583   1.713  17.212  0.2139 -0.1054  0.2450
 1023TIP3    H124484   2.594   1.701  17.118  0.2222 -1.8621  0.4291
 1023TIP3    H224485   2.489   1.702  17.227  0.5186 -2.8942  0.7373
 1024TIP3   OH224486   5.198   4.436  11.258 -0.0493  0.0957  0.4021
 1024TIP3    H124487   5.164   4.377  11.326 -0.4508  0.0936  0.1973
 1024TIP3    H224488   5.192   4.385  11.177  0.7393 -0.0260  0.4042
 1025TIP3   OH224489   3.038   1.845  15.978 -0.0260 -0.0362 -0.2574
 1025TIP3    H124490   3.115   1.867  16.032 -0.1686 -0.4688  0.1355
 1025TIP3    H224491   2.996   1.929  15.961  1.9781  0.5882 -2.7707
 1026TIP3   OH224492   4.273   1.830  16.897 -0.9321  0.4988 -0.0408
 1026TIP3    H124493   4.205   1.794  16.841 -0.7877 -0.0910  0.1501
 1026TIP3    H224494   4.355   1.800  16.858 -0.8193  0.3997  0.2654
 1027TIP3   OH224495   0.000   2.695   5.525  0.5499  0.1141  0.2586
 1027TIP3    H124496  -0.010   2.788   5.548 -1.4233 -0.2735  1.1063
 1027TIP3    H224497   0.009   2.650   5.609  0.5901 -0.5703 -0.1055
 1028TIP3   OH224498   0.438   4.464   2.647  0.3691  0.3464  0.3188
 1028TIP3    H124499   0.505   4.525   2.681 -1.1332  0.9372  2.4716
 1028TIP3    H224500   0.389   4.516   2.583  1.5371  0.0973 -0.8232
 1029TIP3   OH224501   5.390   6.439  14.623  0.0450 -0.2810 -0.1028
 1029TIP3    H124502   5.348   6.367  14.670 -1.7033  0.5934 -0.2432
 1029TIP3    H224503   5.441   6.396  14.553  1.8132 -1.5368  1.8151
 1030TIP3   OH224504   4.225   6.307   5.987  0.2323  0.6825  0.2396
 1030TIP3    H124505   4.244   6.213   5.990  2.6105  1.1129  0.5079
 1030TIP3    H224506   4.129   6.312   5.988  0.0361 -1.7405 -0.4429
 1031TIP3   OH224507   4.932   0.431   2.769  0.5134  0.7401 -0.7128
 1031TIP3    H124508   4.930   0.523   2.798 -1.9912  0.6808 -0.3911
 1031TIP3    H224509   4.890   0.432   2.683  0.4467 -0.0987 -0.6990
 1032TIP3   OH224510   3.888   5.017  16.138  0.4037 -0.1509 -0.1872
 1032TIP3    H124511   3.900   4.994  16.046  0.7365  0.4364 -0.2952
 1032TIP3    H224512   3.958   4.971  16.184 -0.2070 -1.0371 -0.1262
 1033TIP3   OH224513   1.011   0.622   3.680  0.2460 -0.1185 -0.0997
 1033TIP3    H124514   1.100   0.630   3.715 -0.7932 -0.6209  3.0327
 1033TIP3    H224515   0.964   0.697   3.717 -0.6342  0.2926 -1.9211
 1034TIP3   OH224516   4.164   0.599  16.770 -0.5435  0.3317 -0.4151
 1034TIP3    H124517   4.187   0.530  16.707 -1.7604 -1.1573  0.7146
 1034TIP3    H224518   4.149   0.553  16.852 -2.7215  1.7734  0.0706
 1035TIP3   OH224519   3.330   0.433   5.374 -0.6442  0.1843 -0.1836
 1035TIP3    H124520   3.362   0.494   5.440  0.2923 -0.0215 -0.4321
 1035TIP3    H224521   3.375   0.458   5.293 -2.7873  1.2952 -1.0961
 1036TIP3   OH224522   6.223   3.159   1.998 -0.3239 -0.0629  0.0006
 1036TIP3    H124523   6.195   3.101   1.927 -0.9279 -1.5202  1.3900
 1036TIP3    H224524   6.311   3.130   2.020  0.9354  2.0192 -1.7402
 1037TIP3   OH224525   5.538   1.369   5.295 -0.2435 -0.0769  0.1193
 1037TIP3    H124526   5.563   1.417   5.216  1.6466  0.1923  0.8560
 1037TIP3    H224527   5.595   1.402   5.364 -0.2324 -1.9656  1.0892
 1038TIP3   OH224528   4.349   6.136   5.460  0.3126 -0.7177 -0.4966
 1038TIP3    H124529   4.399   6.177   5.389 -0.2857 -2.2542 -1.8710
 1038TIP3    H224530   4.349   6.202   5.530 -0.2706  1.4758 -2.4119
 1039TIP3   OH224531   1.385   1.354   1.514 -0.4463 -0.2171 -0.0889
 1039TIP3    H124532   1.376   1.446   1.488  0.0782 -0.1733 -0.1159
 1039TIP3    H224533   1.383   1.357   1.610 -0.7113 -0.2075 -0.0942
 1040TIP3   OH224534   1.461   6.649  14.924  0.0577 -0.2462 -0.6378
 1040TIP3    H124535   1.527   6.632  14.857 -0.0185 -1.0691 -0.5126
 1040TIP3    H224536   1.379   6.662  14.876  0.2975  0.7978 -0.7937
 1041TIP3   OH224537   5.643   2.397  16.551  0.2715  0.4824  0.3425
 1041TIP3    H124538   5.635   2.307  16.520  1.5451  0.6134 -0.4687
 1041TIP3    H224539   5.737   2.417  16.542  0.0220  1.8633  0.5438
 1042TIP3   OH224540   2.877   6.295   5.754 -0.0171  0.4680  0.0297
 1042TIP3    H124541   2.972   6.293   5.760 -0.0254 -1.2385  0.0516
 1042TIP3    H224542   2.859   6.327   5.666  0.5865  0.6256 -0.0401
 1043TIP3   OH224543   5.133   2.780  16.777 -0.4018 -0.1139 -0.0024
 1043TIP3    H124544   5.109   2.765  16.685  0.0211  0.3680 -0.1968
 1043TIP3    H224545   5.152   2.874  16.782  1.0649 -0.3972  0.2174
 1044TIP3   OH224546   1.731   1.805  15.306 -0.6625  0.0697 -0.4869
 1044TIP3    H124547   1.770   1.719  15.322  0.8322  0.6670 -0.8119
 1044TIP3    H224548   1.770   1.835  15.225 -1.6900  0.7859 -0.7360
 1045TIP3   OH224549   5.760   0.207   2.425  0.1526  0.5620 -0.2769
 1045TIP3    H124550   5.767   0.192   2.331 -0.5232  1.4287 -0.4708
 1045TIP3    H224551   5.833   0.157   2.462  0.5122  0.3280 -1.2689
 1046TIP3   OH224552   5.017   1.395  12.367 -1.0806  0.3518 -0.0795
 1046TIP3    H124553   4.950   1.343  12.323 -1.0571  0.6186 -0.4382
 1046TIP3    H224554   5.070   1.430  12.295 -0.3011 -0.1987  0.2125
 1047TIP3   OH224555   5.549   1.471   0.162  0.0322 -0.4479 -0.2172
 1047TIP3    H124556   5.579   1.427   0.242 -0.3465 -0.5060 -0.1091
 1047TIP3    H224557   5.610   1.441   0.094 -0.3132 -1.2481 -0.1804
 1048TIP3   OH224558   3.744   1.367   6.093 -0.1240  0.1749  0.0691
 1048TIP3    H124559   3.658   1.349   6.132 -0.0830 -2.8775 -1.0020
 1048TIP3    H224560   3.723   1.398   6.004 -0.0942  2.2366  0.7201
 1049TIP3   OH224561   6.208   1.706   3.395 -0.4941  0.4529 -0.1801
 1049TIP3    H124562   6.288   1.660   3.368 -0.3772 -0.0471  0.9353
 1049TIP3    H224563   6.234   1.798   3.401 -0.2937  0.4454 -0.8692
 1050TIP3   OH224564   3.828   4.390  12.982 -1.0582  0.2803 -0.3252
 1050TIP3    H124565   3.756   4.328  12.995 -0.7489  0.2518  1.4845
 1050TIP3    H224566   3.803   4.438  12.903 -2.7104 -0.2102 -0.1533
 1051TIP3   OH224567   1.911   2.326  15.724  0.8234 -0.3173 -0.0468
 1051TIP3    H124568   1.993   2.311  15.676  1.1622 -1.4294  0.8264
 1051TIP3    H224569   1.856   2.251  15.700 -1.4451  2.1069 -3.4701
 1052TIP3   OH224570   1.713   1.965   1.951 -0.3137  0.1948  0.2803
 1052TIP3    H124571   1.773   1.948   2.024 -0.8155 -0.6881  0.5043
 1052TIP3    H224572   1.769   1.969   1.874  0.1333  0.3253  0.6067
 1053TIP3   OH224573   0.386   3.423  10.674 -0.9542 -0.4150 -0.1598
 1053TIP3    H124574   0.451   3.387  10.614 -1.1095  0.1095 -0.6505
 1053TIP3    H224575   0.413   3.514  10.688 -1.3475 -0.3111 -0.0510
 1054TIP3   OH224576   5.614   5.825  14.389 -0.2064  0.5746  0.0581
 1054TIP3    H124577   5.624   5.801  14.481  1.5009 -0.1591 -0.2786
 1054TIP3    H224578   5.522   5.806  14.369  0.3566 -3.5512  0.4790
 1055TIP3   OH224579   6.657   0.721  12.015  0.6916  0.2430  0.5725
 1055TIP3    H124580   6.670   0.719  11.921 -0.0842  0.8457  0.4410
 1055TIP3    H224581   6.622   0.808  12.033  0.2409 -0.0789  1.3252
 1056TIP3   OH224582   3.365   1.201   3.361  0.5272 -0.2104  0.0732
 1056TIP3    H124583   3.281   1.231   3.328 -0.7001 -1.9070  1.4699
 1056TIP3    H224584   3.413   1.281   3.383 -1.5611  0.7720  1.2620
 1057TIP3   OH224585   1.170   3.460  10.846 -0.0015 -0.3225  0.0772
 1057TIP3    H124586   1.228   3.527  10.810  1.0841 -1.8654 -1.1944
 1057TIP3    H224587   1.131   3.501  10.923  1.4808  1.3657 -0.0027
 1058TIP3   OH224588   4.987   4.011  14.525 -0.7388  0.1835  0.0539
 1058TIP3    H124589   4.994   3.937  14.464  1.7712 -0.1607  0.6599
 1058TIP3    H224590   5.047   4.077  14.490  0.4453  0.1397  1.8768
 1059TIP3   OH224591   0.460   0.399  13.523  0.0312  0.4219 -0.3761
 1059TIP3    H124592   0.555   0.391  13.518 -0.1424 -1.8621 -1.3116
 1059TIP3    H224593   0.430   0.388  13.432 -1.2058 -1.3357  0.1721
 1060TIP3   OH224594   1.346   4.358   1.402  0.5930 -1.0040 -0.5257
 1060TIP3    H124595   1.401   4.433   1.379  0.4844 -1.0227 -0.8456
 1060TIP3    H224596   1.260   4.379   1.365 -0.1105 -0.1616  1.4464
 1061TIP3   OH224597   1.440   2.286   0.917 -0.0389  0.5537  0.2869
 1061TIP3    H124598   1.435   2.193   0.895  0.9221  0.0128  2.0696
 1061TIP3    H224599   1.378   2.329   0.859 -0.2425 -1.1593 -0.8211
 1062TIP3   OH224600   0.047   4.511   2.216 -0.3621  0.0659  0.8119
 1062TIP3    H124601   0.093   4.455   2.153  0.5488  0.2198  1.3192
 1062TIP3    H224602   0.102   4.590   2.223 -0.8707  0.3954  1.1913
 1063TIP3   OH224603   4.883   4.217   3.889 -0.1191  0.4021 -0.0707
 1063TIP3    H124604   4.875   4.285   3.822 -0.4237 -0.3296 -0.8046
 1063TIP3    H224605   4.864   4.262   3.972  0.8086  1.4452 -0.4009
 1064TIP3   OH224606   2.696   5.115  13.073 -0.2136 -0.0990 -0.2748
 1064TIP3    H124607   2.675   5.024  13.052 -4.8644  0.8573 -0.9722
 1064TIP3    H224608   2.682   5.121  13.168  1.8664 -0.3801  0.0982
 1065TIP3   OH224609   6.184   5.786   2.093 -0.0894 -0.3333  0.8884
 1065TIP3    H124610   6.275   5.814   2.104 -0.5703  0.9978  1.8105
 1065TIP3    H224611   6.177   5.706   2.145  0.7106 -0.8045  0.2853
 1066TIP3   OH224612   2.579   3.581   3.225  0.8819 -0.6375  0.0974
 1066TIP3    H124613   2.656   3.599   3.279  1.2410 -0.6714 -0.3962
 1066TIP3    H224614   2.537   3.666   3.215 -0.5141 -0.9720  2.3858
 1067TIP3   OH224615   0.286   2.623  15.464 -0.3438 -0.8613 -0.3014
 1067TIP3    H124616   0.267   2.572  15.385 -0.2110 -2.3584  0.6004
 1067TIP3    H224617   0.325   2.561  15.524  1.7531  0.7691  0.1398
 1068TIP3   OH224618   1.232   6.524   1.824 -0.5744  0.1364  0.3847
 1068TIP3    H124619   1.179   6.450   1.853  0.3384 -0.4029  0.7189
 1068TIP3    H224620   1.195   6.600   1.870 -0.0605 -0.4786  1.8681
 1069TIP3   OH224621   2.507   1.172   4.121 -0.6884 -0.4595 -0.6300
 1069TIP3    H124622   2.498   1.191   4.214  0.3257 -1.0086 -0.4061
 1069TIP3    H224623   2.479   1.081   4.112 -0.3761 -0.5396 -0.7903
 1070TIP3   OH224624   4.793   5.299   4.181  0.9718  0.8998 -0.3695
 1070TIP3    H124625   4.849   5.222   4.173 -1.9375 -1.4992  0.8222
 1070TIP3    H224626   4.741   5.299   4.100 -1.6752 -0.7890  1.1807
 1071TIP3   OH224627   2.356   4.147  12.017 -0.1091  0.5003 -0.0490
 1071TIP3    H124628   2.436   4.155  12.069  1.1459 -0.3295 -1.7384
 1071TIP3    H224629   2.311   4.070  12.054  1.6934 -1.2306 -1.2628
 1072TIP3   OH224630   2.499   3.315   5.381  0.2894 -0.3185 -0.0385
 1072TIP3    H124631   2.538   3.266   5.308 -1.7414  0.9093 -2.0789
 1072TIP3    H224632   2.436   3.255   5.420 -0.2983 -0.2283 -0.8339
 1073TIP3   OH224633   6.205   4.595  13.784  0.5635  0.2229  0.6140
 1073TIP3    H124634   6.301   4.595  13.793  0.6231 -1.1470  0.2156
 1073TIP3    H224635   6.189   4.545  13.704 -0.4772  0.8085  0.4479
 1074TIP3   OH224636   0.735   0.882   4.783 -0.0225 -0.5991  0.0187
 1074TIP3    H124637   0.681   0.937   4.840  0.6461 -1.3575  1.4315
 1074TIP3    H224638   0.701   0.794   4.796  0.2566 -0.8073 -0.6377
 1075TIP3   OH224639   5.564   6.396  13.906  0.4903 -0.3571 -0.1557
 1075TIP3    H124640   5.647   6.426  13.943  0.2616 -0.2655  0.2814
 1075TIP3    H224641   5.567   6.425  13.814 -0.3753  2.3907  0.6019
 1076TIP3   OH224642   6.368   2.159   3.953  0.0532 -0.0691  0.4150
 1076TIP3    H124643   6.275   2.150   3.973 -0.3469  0.0518 -1.2203
 1076TIP3    H224644   6.413   2.140   4.035 -1.4319  0.3969  1.3646
 1077TIP3   OH224645   4.633   0.402  13.134  0.2816 -0.0104  0.3175
 1077TIP3    H124646   4.692   0.432  13.203  0.5829 -2.3871  1.1597
 1077TIP3    H224647   4.691   0.371  13.065  0.0310 -1.0259  0.5500
 1078TIP3   OH224648   4.001   4.474   2.417  0.1670 -0.1375 -0.1865
 1078TIP3    H124649   3.973   4.429   2.497  0.0388 -0.5211 -0.4440
 1078TIP3    H224650   3.997   4.567   2.439  0.3019 -0.2464  0.3101
 1079TIP3   OH224651   1.306   0.193   0.824 -0.6791  0.4046  0.1078
 1079TIP3    H124652   1.378   0.130   0.833 -1.1161 -0.1025  0.1233
 1079TIP3    H224653   1.241   0.164   0.888 -1.0362  0.6561 -0.1391
 1080TIP3   OH224654   0.055   2.418   5.427  0.0569 -0.2555 -0.7832
 1080TIP3    H124655   0.038   2.504   5.464  0.2385  1.0182 -3.4864
 1080TIP3    H224656  -0.023   2.366   5.450 -0.3373  0.7790  0.3144
 1081TIP3   OH224657   3.309   1.760  14.768 -0.6705  0.3927 -0.6671
 1081TIP3    H124658   3.352   1.732  14.848 -1.0738  0.9771 -0.2312
 1081TIP3    H224659   3.371   1.741  14.698  0.3781  1.3682 -0.0358
 1082TIP3   OH224660   0.712   5.498  12.168 -0.7001 -0.1978  0.1711
 1082TIP3    H124661   0.661   5.457  12.099 -1.5282  0.4530  0.3761
 1082TIP3    H224662   0.666   5.580  12.186  1.9197  1.8058 -1.5259
 1083TIP3   OH224663   4.324   6.333   3.766  0.2644 -0.8071 -0.1349
 1083TIP3    H124664   4.300   6.352   3.676  0.4535 -0.6256 -0.1492
 1083TIP3    H224665   4.411   6.372   3.776  0.0187 -0.3498  0.2795
 1084TIP3   OH224666   3.313   1.858   0.746 -0.1727 -0.5145  0.2327
 1084TIP3    H124667   3.259   1.916   0.800 -0.9181  0.1755 -1.1776
 1084TIP3    H224668   3.249   1.803   0.700  0.3883 -0.6194 -0.4368
 1085TIP3   OH224669   5.374   6.609  13.983 -0.0907 -0.2919 -0.1072
 1085TIP3    H124670   5.411   6.521  13.986 -3.7899 -2.0262  1.3188
 1085TIP3    H224671   5.418   6.658  14.052  0.6821 -1.6300  0.3631
 1086TIP3   OH224672   5.755   1.227  12.290 -0.1659  0.2524  0.3141
 1086TIP3    H124673   5.764   1.308  12.239 -0.6910 -0.3264 -0.7249
 1086TIP3    H224674   5.812   1.241  12.366  1.5994  0.6842 -1.0146
 1087TIP3   OH224675   2.575   0.096   1.833 -0.2675  0.3259  0.1807
 1087TIP3    H124676   2.496   0.075   1.784 -0.4689  1.2621  0.0918
 1087TIP3    H224677   2.636   0.026   1.810 -0.8546 -0.0566 -0.2418
 1088TIP3   OH224678   2.807   4.381   1.568 -0.7393 -0.2172 -0.6835
 1088TIP3    H124679   2.873   4.444   1.599  1.0266 -2.0019 -0.6377
 1088TIP3    H224680   2.840   4.351   1.484 -0.8960 -1.9500 -0.1625
 1089TIP3   OH224681   3.403   0.432  16.929 -0.0977  0.5009  0.3704
 1089TIP3    H124682   3.471   0.499  16.937 -0.4628  0.8069  0.9649
 1089TIP3    H224683   3.411   0.381  17.010 -1.0624  1.0063  0.8012
 1090TIP3   OH224684   1.163   6.404   0.162 -0.1967  0.1473 -0.0958
 1090TIP3    H124685   1.203   6.393   0.248 -1.3551  1.7256  0.6807
 1090TIP3    H224686   1.228   6.455   0.113 -0.1699  0.5360  0.3353
 1091TIP3   OH224687   6.157   2.952   0.875  0.0435  0.5978  0.0211
 1091TIP3    H124688   6.119   3.012   0.939 -0.4001  1.2427 -0.8282
 1091TIP3    H224689   6.152   2.999   0.791  0.1901 -0.4039 -0.5731
 1092TIP3   OH224690   5.688   1.753  14.978 -0.2707  0.1756 -0.0315
 1092TIP3    H124691   5.597   1.725  14.968 -0.5921  1.7443 -2.0126
 1092TIP3    H224692   5.713   1.722  15.065 -1.9402 -2.3183 -0.3526
 1093TIP3   OH224693   4.062   6.235   2.627  1.0312  0.5565  0.2149
 1093TIP3    H124694   4.056   6.206   2.718 -1.7322 -0.1745 -0.1113
 1093TIP3    H224695   4.080   6.155   2.578 -0.4469  0.4025 -0.1169
 1094TIP3   OH224696   6.596   0.384   1.323 -0.1769 -0.2295 -0.0040
 1094TIP3    H124697   6.598   0.474   1.356  0.9190 -0.2919  0.1331
 1094TIP3    H224698   6.661   0.383   1.254 -2.1443 -0.2120 -1.9633
 1095TIP3   OH224699   4.164   2.416   0.314  0.5408  0.4315  0.1436
 1095TIP3    H124700   4.233   2.442   0.253  0.7972 -0.8787 -0.1603
 1095TIP3    H224701   4.103   2.490   0.314  0.8276  0.6943 -1.2558
 1096TIP3   OH224702   0.510   2.842  14.174 -0.0460 -0.0914 -0.1635
 1096TIP3    H124703   0.506   2.903  14.248  0.5447 -1.4080  0.9911
 1096TIP3    H224704   0.418   2.817  14.159 -0.1840  0.3045  0.0062
 1097TIP3   OH224705   1.762   2.951  15.591  0.4077 -0.2334  0.6805
 1097TIP3    H124706   1.717   2.945  15.507  0.8533 -0.3737  0.4451
 1097TIP3    H224707   1.777   2.860  15.617  2.4200 -0.2255 -0.2800
 1098TIP3   OH224708   4.723   4.584   4.048 -0.3023  0.8866  0.4610
 1098TIP3    H124709   4.711   4.540   3.964  0.0298  0.3580  0.6843
 1098TIP3    H224710   4.634   4.595   4.082 -0.5436  2.3367 -0.5715
 1099TIP3   OH224711   2.859   0.540   3.789  0.0718  0.2064  0.0501
 1099TIP3    H124712   2.925   0.475   3.764  0.7738  1.4278 -1.4407
 1099TIP3    H224713   2.909   0.613   3.825 -0.6541  0.2577  1.0008
 1100TIP3   OH224714   3.680   1.965  13.834  0.1883 -0.3454  1.1092
 1100TIP3    H124715   3.726   2.009  13.763 -1.9372 -0.4048 -0.3727
 1100TIP3    H224716   3.642   2.036  13.886  0.1332 -0.3499  1.0749
 1101TIP3   OH224717   0.169   3.877  17.262 -0.3613  0.1623 -0.1491
 1101TIP3    H124718   0.260   3.864  17.290 -0.9191 -1.6402  1.0216
 1101TIP3    H224719   0.169   3.857  17.169  0.0911 -2.1240  0.2829
 1102TIP3   OH224720   1.272   3.213  16.760 -0.3710  0.5044 -0.1672
 1102TIP3    H124721   1.328   3.267  16.704 -0.5062  1.4278  0.5674
 1102TIP3    H224722   1.195   3.193  16.707  0.3676 -0.2769 -0.9794
 1103TIP3   OH224723   3.997   4.129  14.855  0.2864 -0.0656 -0.0546
 1103TIP3    H124724   3.993   4.206  14.799 -2.7458 -0.4661 -0.5690
 1103TIP3    H224725   3.963   4.158  14.940  1.0614 -0.3826  0.3776
 1104TIP3   OH224726   3.760   6.374   2.380  0.6095  0.0955 -0.3399
 1104TIP3    H124727   3.817   6.439   2.339 -0.5021  1.4418  0.1467
 1104TIP3    H224728   3.750   6.305   2.315  3.3062 -0.5566 -0.2002
 1105TIP3   OH224729   6.260   6.451  15.925  0.3664  0.0518  0.1858
 1105TIP3    H124730   6.341   6.462  15.876 -0.0179  0.2374 -0.4126
 1105TIP3    H224731   6.288   6.432  16.015  1.1408 -3.1471 -0.5961
 1106TIP3   OH224732   0.395   0.139   4.192  0.3027 -0.2605  0.5811
 1106TIP3    H124733   0.490   0.133   4.188  0.2449 -1.5714  0.6915
 1106TIP3    H224734   0.364   0.072   4.131 -0.5556  0.4279  0.2327
 1107TIP3   OH224735   2.481   3.208  14.777  0.0174  0.1180 -0.6327
 1107TIP3    H124736   2.403   3.155  14.791 -0.5118  0.7525 -1.0936
 1107TIP3    H224737   2.502   3.197  14.685  0.6500 -0.2772 -0.4466
 1108TIP3   OH224738   6.296   2.504  16.452  0.5933 -0.5666  0.0912
 1108TIP3    H124739   6.278   2.466  16.366 -0.1922 -1.1520  0.4948
 1108TIP3    H224740   6.356   2.577  16.434 -0.1994 -0.1602 -1.0483
 1109TIP3   OH224741   5.188   1.503  14.075  0.3592 -0.4160 -0.9429
 1109TIP3    H124742   5.102   1.479  14.109 -0.1910  3.3918  0.8376
 1109TIP3    H224743   5.240   1.523  14.152  0.9427  2.8387 -2.0246
 1110TIP3   OH224744   2.747   3.410   4.995 -0.3188 -0.0347 -0.3574
 1110TIP3    H124745   2.813   3.344   5.016 -0.2616 -0.0650 -0.6239
 1110TIP3    H224746   2.782   3.455   4.917 -0.1183  0.6442  0.1099
 1111TIP3   OH224747   5.032   0.144  12.172  0.0115 -0.0022  0.6505
 1111TIP3    H124748   5.030   0.140  12.268 -0.3638 -1.0303  0.6123
 1111TIP3    H224749   4.942   0.125  12.146  0.4081 -1.1505  0.0654
 1112TIP3   OH224750   5.624   1.298   2.531  0.3877  0.0717  0.2580
 1112TIP3    H124751   5.631   1.352   2.452 -1.2536 -0.6256 -0.3988
 1112TIP3    H224752   5.648   1.210   2.502  1.6271  0.1472  0.9933
 1113TIP3   OH224753   1.409   2.674   0.603  0.2662 -0.2284  0.0929
 1113TIP3    H124754   1.385   2.594   0.556 -1.9785  0.4958 -0.1117
 1113TIP3    H224755   1.378   2.659   0.693 -2.1052  1.1200 -0.4116
 1114TIP3   OH224756   0.430   3.694   3.259  0.3579  0.3348  0.0661
 1114TIP3    H124757   0.478   3.747   3.323  0.9902  0.2618 -0.3353
 1114TIP3    H224758   0.447   3.737   3.175  0.9364 -0.5298 -0.2726
 1115TIP3   OH224759   2.666   3.441  15.667  0.3098 -0.2742  0.2255
 1115TIP3    H124760   2.659   3.487  15.750  0.6763 -0.5582  0.4176
 1115TIP3    H224761   2.582   3.397  15.656  0.3106 -0.3510  0.5191
 1116TIP3   OH224762   1.370   1.440   6.378  0.1592 -0.2319 -0.0983
 1116TIP3    H124763   1.452   1.401   6.408  1.5393  0.8032 -2.3262
 1116TIP3    H224764   1.387   1.534   6.376 -0.6490 -0.0850 -1.7191
 1117TIP3   OH224765   5.767   0.748  14.969  0.3009 -0.1707  0.6571
 1117TIP3    H124766   5.675   0.721  14.968  0.2515 -0.0203  0.8796
 1117TIP3    H224767   5.765   0.842  14.952  0.5415 -0.4560 -1.1497
 1118TIP3   OH224768   6.747   0.175   0.438 -0.4717  0.5534  0.0769
 1118TIP3    H124769   6.827   0.176   0.490 -0.1265  1.5551 -0.4526
 1118TIP3    H224770   6.679   0.147   0.499  0.1309  0.5205  0.7497
 1119TIP3   OH224771   1.538   5.974  16.415  0.2755 -0.1726 -0.0405
 1119TIP3    H124772   1.453   6.001  16.448  0.5097 -1.8272  2.0579
 1119TIP3    H224773   1.601   6.026  16.466  0.5880 -0.3776 -0.2140
 1120TIP3   OH224774   2.763   3.433  13.307  0.5478  0.0816 -0.7362
 1120TIP3    H124775   2.803   3.509  13.265  1.6046  0.2705  0.5574
 1120TIP3    H224776   2.794   3.436  13.398 -1.1109 -0.6871 -0.0893
 1121TIP3   OH224777   3.456   4.202  13.443  0.2046  0.5211  0.1142
 1121TIP3    H124778   3.544   4.188  13.407  0.1277 -0.8419  0.3994
 1121TIP3    H224779   3.472   4.225  13.535  0.2479 -2.2641  0.8949
 1122TIP3   OH224780   0.757   6.178  16.976  0.2832  0.0320  0.8372
 1122TIP3    H124781   0.721   6.137  17.054 -0.3978  0.0856  0.5572
 1122TIP3    H224782   0.731   6.120  16.904 -3.7182  2.5515 -0.0608
 1123TIP3   OH224783   6.563   4.742  17.016 -0.4148  0.6409  0.0405
 1123TIP3    H124784   6.627   4.791  16.962 -0.3477  0.8251  0.2851
 1123TIP3    H224785   6.610   4.663  17.041  0.0233  1.1610  0.9173
 1124TIP3   OH224786   6.135   1.339   1.621  0.1107  0.2497 -0.3019
 1124TIP3    H124787   6.096   1.255   1.643  0.4711  0.1593  0.0012
 1124TIP3    H224788   6.218   1.340   1.669 -0.1381  1.0018  0.1352
 1125TIP3   OH224789   5.156   6.622  15.531  0.2027 -0.7869  0.4309
 1125TIP3    H124790   5.098   6.659  15.465 -0.8074 -0.0484  1.6916
 1125TIP3    H224791   5.211   6.695  15.559 -1.0957 -0.4367  2.1855
 1126TIP3   OH224792   5.952   5.399   4.122 -0.7415  0.3531  0.0802
 1126TIP3    H124793   5.862   5.423   4.142 -0.4574  1.8997 -0.3368
 1126TIP3    H224794   6.004   5.476   4.146  0.6708 -0.9984  1.6283
 1127TIP3   OH224795   0.939   5.037  11.829 -0.2415  0.2103  0.0697
 1127TIP3    H124796   0.942   5.034  11.925 -1.0107  0.3762  0.1066
 1127TIP3    H224797   0.869   5.100  11.810 -1.4825 -1.3072 -0.5939
 1128TIP3   OH224798   5.416   4.484  15.165 -0.0348  0.0571 -0.4027
 1128TIP3    H124799   5.353   4.414  15.147  0.4818 -1.0730  1.9303
 1128TIP3    H224800   5.452   4.463  15.250  2.3735  1.5540 -0.9659
 1129TIP3   OH224801   5.347   2.094   4.525 -0.2145  0.0090  0.1241
 1129TIP3    H124802   5.443   2.093   4.529 -0.1331  0.1672 -1.1823
 1129TIP3    H224803   5.328   2.145   4.446 -1.3491 -0.7003 -0.0773
 1130TIP3   OH224804   0.340   0.355  12.519 -0.0534  0.2548  0.1303
 1130TIP3    H124805   0.390   0.436  12.517  0.2607  0.0724 -1.8515
 1130TIP3    H224806   0.358   0.316  12.604  1.9275  0.9676  0.0693
 1131TIP3   OH224807   6.333   1.634   1.752 -0.3312 -0.1438  0.6732
 1131TIP3    H124808   6.338   1.724   1.785  0.2181  0.0670  0.0439
 1131TIP3    H224809   6.243   1.607   1.768 -0.5391  0.5724  0.7314
 1132TIP3   OH224810   2.604   4.108  14.435 -0.2648 -0.0563  0.3425
 1132TIP3    H124811   2.555   4.051  14.375 -1.7823  0.6676  0.8500
 1132TIP3    H224812   2.556   4.102  14.518  0.4067  0.8140  0.8049
 1133TIP3   OH224813   1.745   2.873  14.007  0.3135  0.0860  0.2755
 1133TIP3    H124814   1.698   2.956  13.998 -2.8175 -1.5413  0.1007
 1133TIP3    H224815   1.702   2.815  13.944  2.0605 -1.8296  0.7598
 1134TIP3   OH224816   0.423   0.067   1.632  0.7611 -0.2306  0.3255
 1134TIP3    H124817   0.502   0.012   1.633  0.1783 -1.1361 -0.9560
 1134TIP3    H224818   0.369   0.033   1.703 -0.1705 -2.2664 -1.2542
 1135TIP3   OH224819   3.912   4.828   4.526 -0.9542  0.4078  0.3912
 1135TIP3    H124820   3.865   4.755   4.487  1.2724 -1.5495  1.1579
 1135TIP3    H224821   3.892   4.822   4.620  0.0508  0.1197  0.5950
 1136TIP3   OH224822   4.970   3.173   1.004  0.2418 -0.1468 -0.6141
 1136TIP3    H124823   4.984   3.118   1.081  0.8154 -0.4789 -0.9446
 1136TIP3    H224824   4.927   3.252   1.037 -0.4084 -0.7131 -0.1054
 1137TIP3   OH224825   2.306   1.214  15.932 -0.5464 -0.2984 -0.3972
 1137TIP3    H124826   2.265   1.269  15.999 -0.6880  0.1051 -0.8098
 1137TIP3    H224827   2.278   1.125  15.953  0.7219 -0.3923  1.0473
 1138TIP3   OH224828   1.501   0.711   2.043  0.5893 -0.1365  0.9797
 1138TIP3    H124829   1.557   0.748   1.976  0.1135  0.3738  0.8560
 1138TIP3    H224830   1.530   0.620   2.052  0.2087 -0.4204 -0.4195
 1139TIP3   OH224831   3.036   4.558   0.557 -0.1568 -0.0795  0.8329
 1139TIP3    H124832   3.118   4.522   0.590 -0.1184 -0.8106 -0.0277
 1139TIP3    H224833   3.010   4.623   0.622  1.7637  1.0872  0.4903
 1140TIP3   OH224834   2.141   1.746   4.103 -0.5524 -0.1935  0.0818
 1140TIP3    H124835   2.230   1.750   4.068 -0.2223  3.0661  0.9183
 1140TIP3    H224836   2.142   1.672   4.163  1.0972 -1.1994 -1.1157
 1141TIP3   OH224837   5.732   5.148  13.212  0.3289 -0.4517 -0.1360
 1141TIP3    H124838   5.692   5.235  13.223 -1.3580 -1.1961 -0.0947
 1141TIP3    H224839   5.690   5.094  13.279 -0.0986 -1.7815 -1.4359
 1142TIP3   OH224840   5.922   2.041   5.700  0.1073 -0.4137 -0.0969
 1142TIP3    H124841   5.844   2.011   5.746  0.3580  0.7967  1.1663
 1142TIP3    H224842   5.989   1.975   5.721 -0.6343 -1.6858 -1.5298
 1143TIP3   OH224843   2.171   0.583   2.749 -0.4812 -0.0699  0.0862
 1143TIP3    H124844   2.224   0.543   2.680 -1.9728  0.3970 -1.3879
 1143TIP3    H224845   2.081   0.577   2.717 -1.1291  1.0350  1.5712
 1144TIP3   OH224846   3.133   5.411   4.347  0.2435  0.5781  0.1067
 1144TIP3    H124847   3.193   5.441   4.415 -0.2946  0.6158  0.5679
 1144TIP3    H224848   3.102   5.491   4.304  2.6697  0.4903 -2.0397
 1145TIP3   OH224849   0.198   4.431  10.923 -0.5313 -0.3025  0.7462
 1145TIP3    H124850   0.153   4.439  11.007  0.0116  1.1458  0.9253
 1145TIP3    H224851   0.141   4.476  10.861 -0.1227  0.1267  0.6759
 1146TIP3   OH224852   2.056   0.212   5.026  0.1022 -0.1245 -0.2762
 1146TIP3    H124853   2.018   0.153   5.090  0.2896 -1.4291 -1.3316
 1146TIP3    H224854   2.044   0.299   5.064 -1.4703 -0.7045  0.6508
 1147TIP3   OH224855   1.553   2.093  14.527 -0.1331 -0.0952 -0.5827
 1147TIP3    H124856   1.585   2.038  14.456 -1.4359 -0.5895 -0.8288
 1147TIP3    H224857   1.482   2.042  14.566 -1.4372  1.4219 -0.8711
 1148TIP3   OH224858   2.262   4.512   1.197 -0.4083 -0.0727 -0.3650
 1148TIP3    H124859   2.227   4.423   1.195  0.3799 -0.3790 -0.6508
 1148TIP3    H224860   2.314   4.519   1.118  0.3440  0.3072  0.1541
 1149TIP3   OH224861   4.267   1.657   0.967  0.1825  0.4913  0.1349
 1149TIP3    H124862   4.296   1.662   1.058  1.3460 -3.2579  0.1466
 1149TIP3    H224863   4.190   1.601   0.970  0.8053 -0.5023 -1.2223
 1150TIP3   OH224864   3.631   1.671  16.916 -0.7136  0.3809  0.2190
 1150TIP3    H124865   3.618   1.701  17.006 -0.1069 -0.8724  0.7514
 1150TIP3    H224866   3.660   1.580  16.925 -0.1343  0.3920 -1.2197
 1151TIP3   OH224867   5.456   5.389  16.973 -0.0569 -0.2167  0.2766
 1151TIP3    H124868   5.509   5.318  16.936  0.2395 -0.1182  0.4995
 1151TIP3    H224869   5.366   5.360  16.964  0.0788 -0.7826  0.6853
 1152TIP3   OH224870   6.699   2.570  16.158  0.8859 -0.2151  0.1268
 1152TIP3    H124871   6.686   2.509  16.086  0.1655  0.7152 -0.5500
 1152TIP3    H224872   6.792   2.589  16.156  0.7282  0.5299 -1.1764
 1153TIP3   OH224873   2.073   0.932  12.439 -0.6232 -0.3841 -0.0871
 1153TIP3    H124874   2.091   0.930  12.344 -2.6871 -0.6036 -0.5095
 1153TIP3    H224875   2.065   1.025  12.459 -1.4560 -0.3755 -0.4135
 1154TIP3   OH224876   2.482   4.275  14.125 -0.2272  0.1681 -0.1314
 1154TIP3    H124877   2.457   4.308  14.211 -1.5336  1.8711 -1.0918
 1154TIP3    H224878   2.517   4.188  14.142 -0.0858  0.6070  2.1472
 1155TIP3   OH224879   1.639   3.141  11.694 -0.0454  0.1834 -0.0652
 1155TIP3    H124880   1.672   3.076  11.632  1.3081 -0.0566  0.8623
 1155TIP3    H224881   1.666   3.225  11.656 -0.1789  0.1041 -0.3411
 1156TIP3   OH224882   5.871   6.430  16.846 -0.1162  0.0037 -0.3126
 1156TIP3    H124883   5.796   6.490  16.851 -0.3190 -0.2207 -0.6174
 1156TIP3    H224884   5.912   6.436  16.932  0.3756  1.2339 -0.6127
 1157TIP3   OH224885   4.184   1.731   0.377 -1.1108  0.6524 -0.0320
 1157TIP3    H124886   4.216   1.647   0.345  0.9144  0.0773  3.0682
 1157TIP3    H224887   4.121   1.708   0.446 -0.6947  1.6587  0.7027
 1158TIP3   OH224888   2.932   6.428  11.798 -0.6819  0.2436  0.2637
 1158TIP3    H124889   2.857   6.487  11.793 -0.4612  0.4441 -1.2662
 1158TIP3    H224890   2.894   6.341  11.803 -1.0158  0.4660  2.8172
 1159TIP3   OH224891   3.806   0.730  13.965 -1.0253  0.2041  0.1583
 1159TIP3    H124892   3.778   0.802  13.910 -0.2775  1.0111  0.8033
 1159TIP3    H224893   3.882   0.764  14.013 -2.0218 -0.2286  2.1791
 1160TIP3   OH224894   3.156   4.328  12.034  0.0256 -0.4630  0.0902
 1160TIP3    H124895   3.180   4.249  12.082  0.1748  0.0166  0.8194
 1160TIP3    H224896   3.074   4.305  11.990  0.1298 -1.0608  0.2044
 1161TIP3   OH224897   0.292   1.401  15.229 -0.5287 -0.1617  0.0958
 1161TIP3    H124898   0.230   1.328  15.230 -0.2982 -0.3586  0.9396
 1161TIP3    H224899   0.377   1.360  15.249 -0.4530  0.3761  0.9069
 1162TIP3   OH224900   3.679   1.330   0.793 -0.5097  0.2117 -0.2530
 1162TIP3    H124901   3.705   1.251   0.746 -2.0111 -0.2632 -0.3381
 1162TIP3    H224902   3.620   1.299   0.862  0.5108  1.0533  1.0529
 1163TIP3   OH224903   4.753   4.581   4.429  0.4877  0.0265 -0.0341
 1163TIP3    H124904   4.781   4.672   4.441  0.1544 -0.0856  1.9804
 1163TIP3    H224905   4.824   4.540   4.381  0.9889  1.1746 -0.3045
 1164TIP3   OH224906   1.630   4.205  14.222  0.1480  0.2575  0.2498
 1164TIP3    H124907   1.591   4.155  14.294 -0.1403  1.3342  0.8635
 1164TIP3    H224908   1.593   4.293  14.231  2.6310  1.3285  0.8287
 1165TIP3   OH224909   5.424   2.570   4.290 -0.1470 -0.1128 -0.1555
 1165TIP3    H124910   5.401   2.606   4.204  1.3850  2.3068  0.3469
 1165TIP3    H224911   5.486   2.633   4.327 -0.2279 -1.4150  2.4634
 1166TIP3   OH224912   6.051   1.052   4.271 -0.9743  0.1222  0.0849
 1166TIP3    H124913   6.144   1.056   4.293 -1.0721 -1.4977  0.9233
 1166TIP3    H224914   6.048   1.019   4.181 -0.7309  1.6642 -0.5279
 1167TIP3   OH224915   2.372   5.772  12.373  0.6054 -0.0508 -0.0259
 1167TIP3    H124916   2.348   5.827  12.448 -1.5056  0.8030 -1.2482
 1167TIP3    H224917   2.391   5.834  12.303  0.1248 -0.8432 -0.8769
 1168TIP3   OH224918   1.264   0.583   3.073 -0.3795  0.1484  0.2621
 1168TIP3    H124919   1.306   0.598   3.157 -0.3406 -0.2122  0.3102
 1168TIP3    H224920   1.235   0.492   3.076 -1.1475  0.3798  0.2205
 1169TIP3   OH224921   6.696   6.262  15.226  0.3119 -0.4988 -0.3322
 1169TIP3    H124922   6.744   6.337  15.263  0.2917 -1.1692  1.1451
 1169TIP3    H224923   6.709   6.192  15.291  0.9691 -2.0259 -2.0147
 1170TIP3   OH224924   5.890   4.346   3.242  0.9192  0.4052  0.4212
 1170TIP3    H124925   5.835   4.423   3.232 -0.3679 -0.5965 -0.4806
 1170TIP3    H224926   5.946   4.345   3.165  2.8236  1.8202  1.6734
 1171TIP3   OH224927   6.671   6.033  15.958 -0.5592 -0.1777 -1.2929
 1171TIP3    H124928   6.716   6.064  16.037  1.5991 -0.2544 -2.4162
 1171TIP3    H224929   6.581   6.062  15.969 -0.1081  0.6537  0.7471
 1172TIP3   OH224930   4.248   3.437  15.659 -0.8288  0.1741  0.2406
 1172TIP3    H124931   4.209   3.350  15.657 -0.3531 -0.0417 -1.2475
 1172TIP3    H224932   4.317   3.431  15.724  0.1321 -1.0118 -0.8366
 1173TIP3   OH224933   0.887   6.628   2.460 -0.3546 -0.5039  1.0080
 1173TIP3    H124934   0.792   6.637   2.461 -0.6742 -3.0467  1.3536
 1173TIP3    H224935   0.912   6.637   2.368 -1.0122 -0.5106  0.8298
 1174TIP3   OH224936   0.146   3.381  14.837  0.0990 -0.0260  0.5268
 1174TIP3    H124937   0.078   3.330  14.793  0.5549  0.0520 -0.2835
 1174TIP3    H224938   0.103   3.413  14.917 -0.9873  0.4580 -0.2206
 1175TIP3   OH224939   1.094   2.717   1.476  0.0350 -0.6845 -0.2878
 1175TIP3    H124940   1.044   2.731   1.556  0.6239  0.7219 -0.1420
 1175TIP3    H224941   1.186   2.720   1.504  0.3583  2.3686 -1.3006
 1176TIP3   OH224942   1.454   6.550  15.813 -0.4235 -0.1899 -0.0611
 1176TIP3    H124943   1.368   6.587  15.796  0.7012  2.8840  0.3006
 1176TIP3    H224944   1.505   6.622  15.850  2.2744 -1.9168 -0.0699
 1177TIP3   OH224945   1.121   4.793   3.516  0.6373  0.3765 -0.2544
 1177TIP3    H124946   1.112   4.824   3.606 -1.2492 -1.4907  0.3034
 1177TIP3    H224947   1.137   4.699   3.525  0.6804  0.2058 -1.8642
 1178TIP3   OH224948   1.840   2.225   1.817  0.1753  0.2430  0.4563
 1178TIP3    H124949   1.875   2.262   1.736 -0.7665 -1.5220 -0.8466
 1178TIP3    H224950   1.850   2.130   1.806 -2.5462 -0.2066  1.1262
 1179TIP3   OH224951   6.555   3.684   3.204  0.2450 -0.4075 -0.4148
 1179TIP3    H124952   6.640   3.699   3.244 -0.7768  2.6324  0.8918
 1179TIP3    H224953   6.528   3.598   3.237  0.0057  1.3010  4.8220
 1180TIP3   OH224954   2.317   5.498   5.679  0.4478 -0.2524 -0.6910
 1180TIP3    H124955   2.247   5.560   5.701 -0.0254 -1.8217  3.1204
 1180TIP3    H224956   2.382   5.550   5.632 -0.9520  2.5771  0.2695
 1181TIP3   OH224957   5.611   3.143  15.729 -0.0407 -0.4492 -0.1376
 1181TIP3    H124958   5.617   3.071  15.792  3.2059 -1.4780 -1.4366
 1181TIP3    H224959   5.691   3.194  15.744 -0.2875  0.5439 -1.9704
 1182TIP3   OH224960   5.684   4.051   5.597  0.1265  0.2247 -0.2689
 1182TIP3    H124961   5.680   4.078   5.689 -2.8318  1.2785 -0.5931
 1182TIP3    H224962   5.768   4.084   5.566  1.1987 -0.1729  2.0484
 1183TIP3   OH224963   3.169   1.302   0.704 -0.1216  0.0669  0.0788
 1183TIP3    H124964   3.083   1.336   0.677 -0.6634 -1.8080 -0.6725
 1183TIP3    H224965   3.191   1.236   0.639  0.4863 -1.6322  1.8947
 1184TIP3   OH224966   3.350   0.951  13.216  0.4396 -0.3844 -0.2661
 1184TIP3    H124967   3.266   0.950  13.262  0.7159  0.3275  0.2787
 1184TIP3    H224968   3.334   0.902  13.136 -0.6572  0.2280 -0.4448
 1185TIP3   OH224969   3.574   2.448   3.884  0.5322 -0.0763  0.3087
 1185TIP3    H124970   3.610   2.416   3.801 -0.7116  1.4694 -0.9098
 1185TIP3    H224971   3.635   2.518   3.910  0.1055  0.4839 -0.1532
 1186TIP3   OH224972   1.745   3.971   4.671  0.2387  0.0804 -0.1962
 1186TIP3    H124973   1.706   4.055   4.693 -2.3503 -1.4374  1.4502
 1186TIP3    H224974   1.791   3.944   4.751 -0.6198 -0.9231 -0.0242
 1187TIP3   OH224975   1.715   5.887   2.373 -0.0784 -0.3119 -0.5716
 1187TIP3    H124976   1.681   5.930   2.295  0.2807 -0.3310 -0.7396
 1187TIP3    H224977   1.691   5.945   2.445 -1.8754 -1.0940 -0.4825
 1188TIP3   OH224978   0.569   3.670   4.808  0.4484  0.0870 -0.2739
 1188TIP3    H124979   0.515   3.725   4.751  2.8354  0.9223 -1.8786
 1188TIP3    H224980   0.606   3.603   4.750  0.8185 -0.7260  0.8534
 1189TIP3   OH224981   3.745   6.203   4.453 -0.0578  0.3945  0.1302
 1189TIP3    H124982   3.789   6.131   4.499 -0.4298  0.1483  0.1068
 1189TIP3    H224983   3.701   6.251   4.523 -1.5298 -0.6120 -0.0611
 1190TIP3   OH224984   2.338   6.744  15.698 -0.2490 -0.6271 -0.0101
 1190TIP3    H124985   2.326   6.834  15.665 -1.0113 -1.1131 -1.1520
 1190TIP3    H224986   2.425   6.744  15.736 -0.2651  0.6272  0.0771
 1191TIP3   OH224987   0.110   5.680   3.117 -0.1965  0.1038  0.2064
 1191TIP3    H124988   0.181   5.632   3.160 -0.9045 -0.0199  1.2648
 1191TIP3    H224989   0.053   5.612   3.082 -0.2659  0.1978  0.1364
 1192TIP3   OH224990   4.613   6.577  15.261 -0.0989 -0.1046 -0.0354
 1192TIP3    H124991   4.517   6.577  15.256 -0.1403 -0.2200  0.6646
 1192TIP3    H224992   4.632   6.541  15.348  0.5584  0.8116  0.2105
 1193TIP3   OH224993   2.758   4.330  12.996 -0.0124 -0.2639 -0.0764
 1193TIP3    H124994   2.842   4.374  12.983 -0.7994  1.1180 -0.6720
 1193TIP3    H224995   2.717   4.377  13.069  0.4299 -2.0437  1.3956
 1194TIP3   OH224996   3.792   2.577  14.881 -0.0981 -0.3075 -0.4967
 1194TIP3    H124997   3.721   2.525  14.919 -1.4737  1.5275 -0.4308
 1194TIP3    H224998   3.779   2.570  14.786  0.3188 -0.8467 -0.5218
 1195TIP3   OH224999   3.130   3.556   3.069  0.1932 -0.1677 -0.2702
 1195TIP3    H125000   3.189   3.535   3.141 -0.4912  1.0857  0.7150
 1195TIP3    H225001   3.042   3.548   3.107 -0.2894 -1.5770 -1.5850
 1196TIP3   OH225002   5.801   3.224   2.064  0.2790 -0.5113  0.5238
 1196TIP3    H125003   5.752   3.234   2.146  0.4122  0.4121  0.5006
 1196TIP3    H225004   5.746   3.168   2.010 -0.2862 -0.3054  0.8729
 1197TIP3   OH225005   3.853   4.906  12.629  0.0053  0.1841 -0.6861
 1197TIP3    H125006   3.903   4.828  12.608 -1.3694 -1.2860  1.1154
 1197TIP3    H225007   3.916   4.978  12.623  1.5894 -1.1922 -1.2414
 1198TIP3   OH225008   0.473   6.169  13.838 -0.4593 -0.1292  0.9677
 1198TIP3    H125009   0.535   6.104  13.806 -0.2244  0.2420  0.6612
 1198TIP3    H225010   0.527   6.243  13.866 -0.7912  0.5366 -0.0807
 1199TIP3   OH225011   3.267   3.506  14.450 -0.7149 -0.5420 -0.3178
 1199TIP3    H125012   3.221   3.478  14.529  0.5967 -3.7446 -0.5484
 1199TIP3    H225013   3.360   3.501  14.473 -0.2645 -2.3113 -2.1952
 1200TIP3   OH225014   1.506   3.891  11.767 -0.1784 -0.2310 -0.0070
 1200TIP3    H125015   1.572   3.939  11.818 -0.0582 -1.5928  1.1841
 1200TIP3    H225016   1.475   3.822  11.827 -1.0355 -1.0368 -1.3334
 1201TIP3   OH225017   1.347   2.722   3.952  0.3266  0.2528 -0.1101
 1201TIP3    H125018   1.323   2.719   3.859 -0.2576 -0.9624  0.0597
 1201TIP3    H225019   1.413   2.791   3.957 -1.2582  1.9278 -1.0410
 1202TIP3   OH225020   2.864   4.456   2.188 -0.4165 -0.3348 -0.2913
 1202TIP3    H125021   2.841   4.367   2.162  0.5807 -0.3296 -1.2789
 1202TIP3    H225022   2.956   4.451   2.213 -0.9129 -0.0004  1.8239
 1203TIP3   OH225023   3.498   6.094   3.532 -0.2175 -0.3721 -0.1775
 1203TIP3    H125024   3.566   6.119   3.595  0.2852 -0.0159 -0.8519
 1203TIP3    H225025   3.446   6.174   3.521  0.0868 -0.2421 -0.6995
 1204TIP3   OH225026   4.904   6.690  15.400  0.1663  1.0714 -0.4389
 1204TIP3    H125027   4.849   6.736  15.463 -0.2091  1.6820 -1.1800
 1204TIP3    H225028   4.864   6.709  15.315  0.3947 -0.0992 -0.8291
 1205TIP3   OH225029   2.216   2.003   5.241  0.4946  0.2567 -0.3846
 1205TIP3    H125030   2.262   1.920   5.254  0.3820  0.0463 -1.2688
 1205TIP3    H225031   2.127   1.986   5.271  1.0150  0.7579  1.6386
 1206TIP3   OH225032   0.016   4.684  14.900  0.6987 -0.2880 -0.1862
 1206TIP3    H125033   0.103   4.672  14.939  1.6070 -1.4454 -2.3679
 1206TIP3    H225034  -0.041   4.624  14.948  1.3444 -0.3365  0.5369
 1207TIP3   OH225035   2.874   2.161   4.694 -0.1104 -0.2475 -0.5208
 1207TIP3    H125036   2.845   2.076   4.659  1.8316 -1.6752  1.0658
 1207TIP3    H225037   2.953   2.181   4.643 -0.1508  0.2483 -0.3899
 1208TIP3   OH225038   6.735   3.933   1.091  0.5717 -0.0244  0.0689
 1208TIP3    H125039   6.830   3.939   1.096  0.4642  3.1350  0.0366
 1208TIP3    H225040   6.713   3.968   1.004 -0.6817  0.8007  0.6946
 1209TIP3   OH225041   1.865   0.204   3.483  0.5020  0.3337 -0.1635
 1209TIP3    H125042   1.874   0.290   3.522  1.7270  0.1645 -0.0294
 1209TIP3    H225043   1.927   0.204   3.410  1.2878 -0.7827  0.4797
 1210TIP3   OH225044   0.386   5.452  12.498  0.2646 -0.3904  0.1874
 1210TIP3    H125045   0.349   5.513  12.561 -0.3734 -0.3563 -0.2100
 1210TIP3    H225046   0.312   5.424  12.445  0.8332 -0.1561 -0.7639
 1211TIP3   OH225047   5.499   2.320  17.215  0.1682 -0.2666  0.1548
 1211TIP3    H125048   5.449   2.395  17.184 -0.3791 -0.1290  1.3422
 1211TIP3    H225049   5.435   2.249  17.222  0.2386 -0.2483  1.1110
 1212TIP3   OH225050   5.440   0.128   0.947 -0.2357  0.1289 -0.3320
 1212TIP3    H125051   5.390   0.169   1.018  0.0284 -0.7550  0.3919
 1212TIP3    H225052   5.528   0.116   0.984 -0.2482 -0.8699 -0.5883
 1213TIP3   OH225053   6.688   0.175   1.796 -0.0903  0.3490  0.1473
 1213TIP3    H125054   6.688   0.089   1.836  0.8488 -0.7032 -1.9429
 1213TIP3    H225055   6.612   0.220   1.833 -0.2916 -1.1705  1.6611
 1214TIP3   OH225056   3.376   3.637   3.896  0.3820 -0.5460 -0.6688
 1214TIP3    H125057   3.437   3.569   3.925  0.7236  0.3380  0.7926
 1214TIP3    H225058   3.417   3.719   3.925 -0.4642  0.2183 -1.5859
 1215TIP3   OH225059   2.146   5.686   5.831  0.3075 -0.3059 -0.3704
 1215TIP3    H125060   2.077   5.733   5.879  1.8306  2.2357 -0.4748
 1215TIP3    H225061   2.217   5.750   5.822  2.9780 -2.9556  0.2512
 1216TIP3   OH225062   6.761   1.702   5.045  0.3229  0.1524  0.4422
 1216TIP3    H125063   6.751   1.789   5.086 -1.4361 -0.4623  1.4196
 1216TIP3    H225064   6.690   1.697   4.981 -0.3442 -1.0128  1.2438
 1217TIP3   OH225065   0.508   5.978  16.298  0.1145 -0.2669  0.6464
 1217TIP3    H125066   0.560   5.919  16.244  1.3064  1.9028 -0.6944
 1217TIP3    H225067   0.443   6.015  16.237 -0.1352  0.3710  1.2875
 1218TIP3   OH225068   4.309   5.177  12.930  0.6219  0.8926  0.5944
 1218TIP3    H125069   4.300   5.095  12.882  1.5151  1.4851 -0.6459
 1218TIP3    H225070   4.291   5.245  12.864  0.8796  1.7106  1.3489
 1219TIP3   OH225071   6.412   1.533  15.786  0.4060  0.1770  0.6548
 1219TIP3    H125072   6.391   1.615  15.831  0.8386  0.6823 -0.0316
 1219TIP3    H225073   6.458   1.481  15.851 -2.3563 -0.7272  2.0235
 1220TIP3   OH225074   3.970   4.516  14.378 -0.3282  0.4225  0.4840
 1220TIP3    H125075   3.893   4.470  14.345  0.1519 -0.2248  0.2395
 1220TIP3    H225076   4.041   4.489  14.319  0.1470  0.7645  0.8926
 1221TIP3   OH225077   2.529   4.983  14.484 -0.4576 -0.1970  0.0133
 1221TIP3    H125078   2.518   4.957  14.393 -0.3872 -1.3894  0.3249
 1221TIP3    H225079   2.593   5.055  14.482 -0.3576 -0.3088 -0.8564
 1222TIP3   OH225080   3.227   1.808   0.096  0.4017 -0.0230 -0.0000
 1222TIP3    H125081   3.274   1.766   0.168  2.0276  1.3819 -0.1947
 1222TIP3    H225082   3.159   1.861   0.139  0.0864 -0.7112  0.3734
 1223TIP3   OH225083   5.594   4.527   1.691 -0.6232  0.1607 -0.8499
 1223TIP3    H125084   5.529   4.493   1.753  0.5109  0.6165  0.6591
 1223TIP3    H225085   5.677   4.486   1.719  0.1058  1.2539 -1.3553
 1224TIP3   OH225086   2.546   1.729  15.487  0.2641 -0.0009  0.0213
 1224TIP3    H125087   2.543   1.726  15.583  0.5261  0.6073  0.0491
 1224TIP3    H225088   2.595   1.650  15.462  1.5990  0.6754  0.4568
 1225TIP3   OH225089   1.674   0.415  11.055  0.0850 -0.0816 -0.3820
 1225TIP3    H125090   1.766   0.433  11.037 -0.0047  0.0715 -0.6892
 1225TIP3    H225091   1.647   0.484  11.115  0.5066 -0.8505  0.7286
 1226TIP3   OH225092   1.629   0.908   0.553 -0.8780  0.2700 -0.0007
 1226TIP3    H125093   1.558   0.957   0.511 -0.7762  0.9383  0.5829
 1226TIP3    H225094   1.654   0.962   0.628  0.8222  0.4846 -0.6734
 1227TIP3   OH225095   4.048   6.357  12.470  0.5138  0.3254 -0.2679
 1227TIP3    H125096   4.063   6.265  12.493  0.6859  0.4672  0.1788
 1227TIP3    H225097   4.113   6.406  12.519  0.8296  0.6412 -0.9801
 1228TIP3   OH225098   2.450   6.374  13.967  0.3313 -0.0065 -0.0739
 1228TIP3    H125099   2.398   6.294  13.962 -1.8136  1.3459 -0.6727
 1228TIP3    H225100   2.486   6.385  13.879  0.4985 -0.2136 -0.0327
 1229TIP3   OH225101   1.622   1.301   4.775  0.5710  0.0525 -0.3605
 1229TIP3    H125102   1.631   1.357   4.853 -1.7101 -0.0479  0.0191
 1229TIP3    H225103   1.650   1.214   4.805 -0.1479  0.0454  0.3364
 1230TIP3   OH225104   4.503   6.357  17.171  0.2227 -0.1525 -0.3854
 1230TIP3    H125105   4.478   6.361  17.263  0.8839  1.6406 -0.2509
 1230TIP3    H225106   4.522   6.264  17.155  1.9007 -0.2686  1.7952
 1231TIP3   OH225107   1.042   1.340   0.141  0.1623 -0.0406  0.3757
 1231TIP3    H125108   0.979   1.313   0.207  1.4906  0.1689  1.7731
 1231TIP3    H225109   1.051   1.435   0.154  0.2535  0.0477 -0.2885
 1232TIP3   OH225110   2.526   1.314   4.809 -0.7123 -0.4798  0.2527
 1232TIP3    H125111   2.444   1.267   4.792 -0.9847 -0.0632  0.4049
 1232TIP3    H225112   2.591   1.267   4.757 -1.6202  1.0845 -2.5465
 1233TIP3   OH225113   3.891   6.203   5.442  0.1309  0.0806  1.0239
 1233TIP3    H125114   3.948   6.166   5.374  0.4089  0.3253  1.1234
 1233TIP3    H225115   3.938   6.279   5.474 -0.3017  0.3500  1.0324
 1234TIP3   OH225116   0.869   5.627  11.554  0.2345 -0.7413  0.6580
 1234TIP3    H125117   0.822   5.568  11.613 -0.7020  0.0314  0.6916
 1234TIP3    H225118   0.958   5.590  11.550 -0.0231 -1.5019  1.5705
 1235TIP3   OH225119   1.953   5.002  14.375  0.3440  0.3472 -0.1689
 1235TIP3    H125120   2.014   4.928  14.373 -0.0666  0.0190 -1.3426
 1235TIP3    H225121   1.981   5.057  14.301 -0.5043  0.4103 -0.4457
 1236TIP3   OH225122   5.251   6.153  12.189 -0.0854 -0.2944  0.4189
 1236TIP3    H125123   5.218   6.171  12.278  0.0527 -0.4077  0.4926
 1236TIP3    H225124   5.182   6.099  12.150 -0.8888  1.0287 -0.0760
 1237TIP3   OH225125   3.758   1.715  12.015  0.3989 -0.1271  0.2791
 1237TIP3    H125126   3.664   1.699  12.027  0.5996 -0.4453  1.6247
 1237TIP3    H225127   3.763   1.771  11.938 -0.8685 -0.4113 -0.0354
 1238TIP3   OH225128   3.946   4.006  11.602 -0.1180  0.0836  0.1913
 1238TIP3    H125129   3.904   4.004  11.516 -0.5414 -1.4793  0.4035
 1238TIP3    H225130   4.021   4.065  11.591  0.1741 -0.5495 -1.4074
 1239TIP3   OH225131   3.205   4.803   5.622 -0.6340 -0.0821  0.3009
 1239TIP3    H125132   3.161   4.735   5.572  1.5896 -2.6195  1.5240
 1239TIP3    H225133   3.182   4.785   5.714 -0.8652  1.5189  0.5848
 1240TIP3   OH225134   2.860   0.782  12.484  0.6626 -0.4456 -0.1039
 1240TIP3    H125135   2.794   0.788  12.415 -0.4785 -2.2421  0.7735
 1240TIP3    H225136   2.926   0.846  12.458 -1.3619  1.4264 -1.0436
 1241TIP3   OH225137   0.752   3.664   6.515  0.0178  0.2623  0.2001
 1241TIP3    H125138   0.834   3.680   6.469  0.4240  1.3709  1.2767
 1241TIP3    H225139   0.706   3.747   6.513 -0.0775  0.2696  1.5314
 1242TIP3   OH225140   1.422   5.060   5.237 -0.2958 -0.5983  0.3722
 1242TIP3    H125141   1.421   4.980   5.290 -1.2695 -2.4133 -2.2136
 1242TIP3    H225142   1.514   5.071   5.213 -0.2371 -1.2666  0.2756
 1243TIP3   OH225143   5.239   2.794   3.034 -0.0669 -0.5292 -0.4855
 1243TIP3    H125144   5.328   2.762   3.020  0.1704 -0.7547  1.2335
 1243TIP3    H225145   5.224   2.857   2.963  2.3253  1.2192  0.4141
 1244TIP3   OH225146   6.578   1.825  12.739  0.3507 -0.2477 -0.3688
 1244TIP3    H125147   6.483   1.823  12.725  0.0517 -0.1725  1.3197
 1244TIP3    H225148   6.615   1.793  12.658 -1.1755 -1.2143 -0.7338
 1245TIP3   OH225149   3.061   3.398   3.398 -0.1431  0.3207  0.2223
 1245TIP3    H125150   3.130   3.342   3.436  0.1356  1.1703  0.9838
 1245TIP3    H225151   3.039   3.354   3.315 -0.4448 -1.3190  1.1218
 1246TIP3   OH225152   4.330   2.315   0.842 -0.4204 -0.4949  0.2187
 1246TIP3    H125153   4.244   2.342   0.873 -1.2122 -1.8039 -0.7548
 1246TIP3    H225154   4.349   2.374   0.768 -1.0663 -1.0329 -0.3834
 1247TIP3   OH225155   0.528   4.699   1.969 -0.3688  0.0027  0.1375
 1247TIP3    H125156   0.567   4.751   2.039  2.0950 -1.6515  0.1007
 1247TIP3    H225157   0.483   4.628   2.014  0.4489 -0.5482  0.1175
 1248TIP3   OH225158   0.069   2.969   0.986  0.3418 -0.3068  0.1665
 1248TIP3    H125159   0.135   2.918   0.941 -0.8526 -0.0327 -2.0143
 1248TIP3    H225160   0.068   3.054   0.941 -0.6667  0.1096  0.9083
 1249TIP3   OH225161   1.564   0.379  14.456  0.3370  0.2801  0.1437
 1249TIP3    H125162   1.526   0.325  14.387  0.3541  0.8207 -0.2907
 1249TIP3    H225163   1.494   0.439  14.482  0.2077 -0.1584  0.8673
 1250TIP3   OH225164   2.913   4.846  10.640  0.2302  0.6145  0.2082
 1250TIP3    H125165   2.961   4.875  10.563 -1.5847 -0.8650 -1.5695
 1250TIP3    H225166   2.937   4.754  10.652 -2.2615 -0.2675 -0.9319
 1251TIP3   OH225167   3.862   3.399   0.018 -0.5390 -0.4398  0.0474
 1251TIP3    H125168   3.772   3.402   0.051 -0.4920  0.0774  0.1376
 1251TIP3    H225169   3.878   3.306   0.001 -1.2697 -0.4770 -0.4747
 1252TIP3   OH225170   3.189   0.423  14.930  0.2683 -0.6372 -0.2277
 1252TIP3    H125171   3.165   0.468  14.849 -0.5399  1.1991  0.9732
 1252TIP3    H225172   3.238   0.346  14.901  0.8385  0.4800 -2.4275
 1253TIP3   OH225173   1.175   0.441  14.093 -0.0568  0.0230 -0.1875
 1253TIP3    H125174   1.229   0.364  14.113 -0.2152  0.0256  0.2718
 1253TIP3    H225175   1.087   0.416  14.121 -0.1047  0.3766 -0.0147
 1254TIP3   OH225176   5.633   0.972  13.293  0.1021  0.4422 -0.0910
 1254TIP3    H125177   5.574   0.957  13.219 -0.1903 -0.3518  0.2878
 1254TIP3    H225178   5.675   1.056  13.274 -0.6788  0.7123 -0.6809
 1255TIP3   OH225179   5.919   1.750  10.928  0.4889  0.7637 -0.4464
 1255TIP3    H125180   5.990   1.712  10.980 -0.5654 -0.0010  0.4812
 1255TIP3    H225181   5.884   1.677  10.878  0.0235  1.0248 -0.5029
 1256TIP3   OH225182   6.634   2.135  16.764  0.0587  0.0538  0.2725
 1256TIP3    H125183   6.647   2.088  16.846 -0.3788 -0.2465  0.1771
 1256TIP3    H225184   6.720   2.134  16.722 -0.4454 -3.1379 -1.0132
 1257TIP3   OH225185   0.217   0.882  11.697  0.0978  0.2833  0.3814
 1257TIP3    H125186   0.242   0.920  11.612  0.3169  0.0245  0.3281
 1257TIP3    H225187   0.201   0.958  11.753  1.0459  0.4691  0.4258
 1258TIP3   OH225188   1.022   6.661  15.956  0.2002  0.9684 -0.2721
 1258TIP3    H125189   1.054   6.572  15.973 -2.3782  0.2332  1.2915
 1258TIP3    H225190   0.988   6.656  15.866 -1.7713 -0.3043  0.4788
 1259TIP3   OH225191   3.365   0.110  15.165  0.5181  0.4975  0.4586
 1259TIP3    H125192   3.330   0.023  15.149 -1.3896  1.3855 -0.5281
 1259TIP3    H225193   3.296   0.155  15.214  0.2459  2.2569 -1.3995
 1260TIP3   OH225194   0.465   6.766  17.083 -0.6433  0.0057 -0.0682
 1260TIP3    H125195   0.383   6.814  17.081 -0.6021  0.0792  0.0294
 1260TIP3    H225196   0.441   6.676  17.107 -0.7693 -0.1205 -0.6413
 1261TIP3   OH225197   4.436   4.097   0.004  0.2467  0.1538  0.3026
 1261TIP3    H125198   4.352   4.083  -0.041  0.2442 -0.7293  0.5590
 1261TIP3    H225199   4.493   4.135  -0.063  0.3413 -1.4471 -0.5823
 1262TIP3   OH225200   1.798   2.169  14.572 -0.1660  0.8794  0.5575
 1262TIP3    H125201   1.832   2.256  14.548 -0.5198  1.2640  1.4015
 1262TIP3    H225202   1.703   2.178  14.562 -0.3204  1.0354  1.9844
 1263TIP3   OH225203   0.258   4.958  14.603 -1.0411  0.1478 -0.3804
 1263TIP3    H125204   0.208   4.878  14.616 -1.3909  0.4859  0.4401
 1263TIP3    H225205   0.349   4.929  14.602 -0.9380 -0.0063  2.7745
 1264TIP3   OH225206   3.952   2.054   1.634 -0.2816  0.0237  0.1020
 1264TIP3    H125207   3.894   2.081   1.563  0.1412  1.4277  0.2551
 1264TIP3    H225208   3.910   1.977   1.673 -0.0211 -1.4173 -2.2845
 1265TIP3   OH225209   4.704   6.714   4.704  0.1565  0.6953 -0.3978
 1265TIP3    H125210   4.758   6.675   4.636 -1.0182 -0.4790 -0.6906
 1265TIP3    H225211   4.676   6.798   4.668 -1.2663 -0.3355 -1.8289
 1266TIP3   OH225212   6.334   1.166  15.817  0.0203  0.2510  0.2590
 1266TIP3    H125213   6.323   1.206  15.904  1.1443 -0.1057  0.5893
 1266TIP3    H225214   6.285   1.222  15.758  1.2058  1.9039  0.7684
 1267TIP3   OH225215   1.643   3.833  14.335  0.0532  0.8389  0.0849
 1267TIP3    H125216   1.731   3.805  14.361  0.2365  0.8667 -0.5032
 1267TIP3    H225217   1.585   3.785  14.394  0.3991 -0.2509 -0.4263
 1268TIP3   OH225218   2.423   0.943   2.501  0.4900 -0.6559  0.3532
 1268TIP3    H125219   2.379   0.874   2.451 -2.2918  0.2667  1.3481
 1268TIP3    H225220   2.414   1.021   2.447  0.9804 -0.4547  0.5599
 1269TIP3   OH225221   5.591   1.024   0.707 -0.0772  0.3650  0.2742
 1269TIP3    H125222   5.651   1.058   0.774  0.9560  0.0541 -0.4769
 1269TIP3    H225223   5.520   1.088   0.705 -0.5296  0.0023  2.1856
 1270TIP3   OH225224   1.484   2.687  13.440 -0.0504 -0.4087 -0.3652
 1270TIP3    H125225   1.522   2.770  13.469  0.1620 -0.2831 -0.9975
 1270TIP3    H225226   1.492   2.688  13.345 -0.4422 -0.9656 -0.4102
 1271TIP3   OH225227   5.383   1.991  13.499 -0.3018 -0.4605 -0.1756
 1271TIP3    H125228   5.406   1.898  13.508  0.2510 -0.1363  2.7884
 1271TIP3    H225229   5.328   2.009  13.575  0.1367  1.8038 -0.3439
 1272TIP3   OH225230   4.213   0.578   4.045 -0.0724  0.4151 -0.3932
 1272TIP3    H125231   4.240   0.614   4.130 -0.7553  1.7324 -0.7029
 1272TIP3    H225232   4.154   0.506   4.068  1.6475 -0.8482  0.2475
 1273TIP3   OH225233   2.978   5.316  15.910 -0.1923  0.0467  0.1092
 1273TIP3    H125234   2.887   5.305  15.882 -0.8791  0.5497  1.9817
 1273TIP3    H225235   2.980   5.401  15.953  0.8491 -0.4608  1.1384
 1274TIP3   OH225236   3.492   0.216   0.305  0.3113 -0.0837 -0.0138
 1274TIP3    H125237   3.447   0.264   0.375 -0.1989 -0.7094  0.0958
 1274TIP3    H225238   3.564   0.171   0.350  0.5037  0.2031 -0.0359
 1275TIP3   OH225239   2.682   4.742  12.778 -0.5360 -0.6464 -0.3479
 1275TIP3    H125240   2.674   4.727  12.684  0.3939  1.8827 -0.9208
 1275TIP3    H225241   2.705   4.834  12.786 -0.5472 -0.7826  2.3839
 1276TIP3   OH225242   0.066   5.658   2.236 -0.6148  0.4571 -0.0804
 1276TIP3    H125243   0.073   5.750   2.262 -0.4426  0.3564  0.2304
 1276TIP3    H225244  -0.005   5.623   2.289 -1.2099  0.6015 -0.7575
 1277TIP3   OH225245   0.622   1.258  13.165  0.2213 -0.2558 -0.0475
 1277TIP3    H125246   0.657   1.347  13.162 -0.2419 -0.1062 -1.2129
 1277TIP3    H225247   0.659   1.221  13.246  0.1683  1.0831  0.6169
 1278TIP3   OH225248   2.370   5.258   6.045 -0.2269 -0.3038  0.2958
 1278TIP3    H125249   2.279   5.230   6.038 -0.4065 -0.1289  1.6807
 1278TIP3    H225250   2.407   5.242   5.958 -1.6463 -0.1074 -0.3669
 1279TIP3   OH225251   0.616   1.183  16.664  0.4275  0.6142  0.2078
 1279TIP3    H125252   0.557   1.236  16.610  0.8187  0.9416  0.1006
 1279TIP3    H225253   0.622   1.230  16.747 -1.0645 -0.4610  0.9724
 1280TIP3   OH225254   0.697   0.508   0.909 -0.0316  0.2463  0.2390
 1280TIP3    H125255   0.609   0.545   0.896  0.6001  1.7789  0.1008
 1280TIP3    H225256   0.734   0.502   0.821  0.2458  0.2496  0.3543
 1281TIP3   OH225257   0.233   4.954  11.768  0.3560 -0.4541  0.2293
 1281TIP3    H125258   0.262   4.866  11.792  1.3237 -0.2874 -0.2878
 1281TIP3    H225259   0.143   4.960  11.802  0.7036 -1.1986  1.3406
 1282TIP3   OH225260   3.545   0.291   5.664 -0.3592  0.4054 -0.1199
 1282TIP3    H125261   3.608   0.295   5.592 -1.3807 -1.6597 -1.2411
 1282TIP3    H225262   3.558   0.372   5.713  0.6001  1.7624 -2.4674
 1283TIP3   OH225263   1.045   5.677   1.672  0.9225 -0.0308 -0.0334
 1283TIP3    H125264   1.001   5.649   1.753  0.1111  1.8323  0.2137
 1283TIP3    H225265   1.091   5.599   1.642 -0.9639 -1.5421  0.7623
 1284TIP3   OH225266   6.691   1.530   5.518  0.0324  0.3366  0.2047
 1284TIP3    H125267   6.722   1.607   5.564 -1.8075  1.3894 -0.2224
 1284TIP3    H225268   6.641   1.565   5.444 -2.7831 -1.1499  1.2476
 1285TIP3   OH225269   2.680   2.688   4.587  0.4844  0.0614  0.5142
 1285TIP3    H125270   2.638   2.773   4.597 -0.9726 -0.5461 -0.1978
 1285TIP3    H225271   2.614   2.625   4.616 -0.1336 -1.1132 -3.0162
 1286TIP3   OH225272   5.883   5.515   3.778 -0.4174 -0.0202  0.4903
 1286TIP3    H125273   5.881   5.504   3.683  0.8627  2.1149  0.1581
 1286TIP3    H225274   5.974   5.537   3.798 -0.6754 -0.3950  2.2361
 1287TIP3   OH225275   0.146   3.753   5.537 -0.4412  0.4239 -1.0858
 1287TIP3    H125276   0.199   3.746   5.458 -1.5806 -0.9530 -1.7827
 1287TIP3    H225277   0.065   3.794   5.508 -0.6515  0.4158 -0.5281
 1288TIP3   OH225278   0.684   2.192   3.276  0.3605  0.1398 -0.1185
 1288TIP3    H125279   0.652   2.131   3.210 -0.6017 -0.1286  0.5764
 1288TIP3    H225280   0.657   2.153   3.359 -1.1191  1.9720  0.3115
 1289TIP3   OH225281   1.017   6.257  13.158 -0.2910 -0.1567  0.4534
 1289TIP3    H125282   1.015   6.311  13.079  0.3774  0.3587  0.7889
 1289TIP3    H225283   1.102   6.213  13.155 -0.9797 -1.5506 -0.0382
 1290TIP3   OH225284   0.432   5.910   3.798  0.3883 -0.2401 -0.0916
 1290TIP3    H125285   0.468   5.991   3.764 -1.0853 -0.0000 -1.1873
 1290TIP3    H225286   0.447   5.846   3.728  1.0151 -0.7707  0.5193
 1291TIP3   OH225287   6.238   4.440  15.716  0.5948 -0.2213 -0.0460
 1291TIP3    H125288   6.329   4.465  15.733  0.5996 -0.4780  0.3058
 1291TIP3    H225289   6.238   4.415  15.623  0.7408  0.3834 -0.2157
 1292TIP3   OH225290   3.414   2.964  12.059  0.2674  0.3516 -0.1520
 1292TIP3    H125291   3.440   3.053  12.037  2.1852 -0.5002 -1.5956
 1292TIP3    H225292   3.318   2.966  12.056  0.2922  2.1094 -1.2172
 1293TIP3   OH225293   1.651   6.498  12.910  0.3496  0.3321 -0.1989
 1293TIP3    H125294   1.574   6.552  12.925 -0.4398 -1.3648  2.7759
 1293TIP3    H225295   1.644   6.470  12.819 -1.5236  1.7096 -0.5344
 1294TIP3   OH225296   5.059   0.459  14.957  0.3208  0.4320  0.3203
 1294TIP3    H125297   5.144   0.471  14.997  0.5223  0.1030 -0.0066
 1294TIP3    H225298   5.075   0.402  14.882 -0.0672  0.9177 -0.1482
 1295TIP3   OH225299   3.108   6.609  12.516  0.2584 -0.0643  0.1023
 1295TIP3    H125300   3.180   6.632  12.457  1.6848 -2.0253  0.9608
 1295TIP3    H225301   3.064   6.536  12.473  0.0190 -0.1550  0.4912
 1296TIP3   OH225302   0.673   1.114  16.159 -0.3954 -0.3894  0.3873
 1296TIP3    H125303   0.732   1.146  16.091 -2.0552 -1.8514 -1.9098
 1296TIP3    H225304   0.621   1.190  16.185  0.4495  0.2455  0.2304
 1297TIP3   OH225305   1.119   2.985  11.419  0.3580 -0.2623  0.6229
 1297TIP3    H125306   1.208   2.986  11.382  0.3917  2.3416  0.6156
 1297TIP3    H225307   1.071   3.049  11.366 -0.3658  1.4811  3.2313
 1298TIP3   OH225308   3.240   4.534   5.450 -0.4428  0.0961 -0.8438
 1298TIP3    H125309   3.335   4.537   5.465 -0.5036  1.6114 -0.6108
 1298TIP3    H225310   3.226   4.590   5.374 -1.3294  1.4043  0.2376
 1299TIP3   OH225311   0.386   2.248   0.091  0.1377 -0.2597 -0.2658
 1299TIP3    H125312   0.319   2.184   0.116 -0.4393  0.0215 -1.0698
 1299TIP3    H225313   0.415   2.219   0.004  0.2201  0.3043 -0.4256
 1300TIP3   OH225314   0.303   2.343  14.293  0.4965 -0.6435  0.0634
 1300TIP3    H125315   0.233   2.379  14.347  0.3188 -0.5306 -0.2359
 1300TIP3    H225316   0.355   2.419  14.267  0.7970 -0.7419  0.3788
 1301TIP3   OH225317   4.115   0.016  16.111 -0.0802  0.0708 -0.0819
 1301TIP3    H125318   4.147  -0.030  16.033 -0.9924 -1.4656  0.4218
 1301TIP3    H225319   4.134  -0.043  16.184 -1.1249  0.5653  0.6088
 1302TIP3   OH225320   3.321   3.615  16.304 -0.0583 -0.0632  0.3350
 1302TIP3    H125321   3.261   3.685  16.279 -0.7951 -1.0965 -0.9007
 1302TIP3    H225322   3.279   3.535  16.273  1.2382 -0.9687  0.8153
 1303TIP3   OH225323   5.054   1.175  12.032  0.1097 -0.3267 -0.0904
 1303TIP3    H125324   5.083   1.115  11.964  0.3152 -1.3924  0.9137
 1303TIP3    H225325   5.118   1.247  12.029  1.1984 -1.2595  0.1973
 1304TIP3   OH225326   3.112   0.085  14.508 -0.0223  0.3186 -0.1695
 1304TIP3    H125327   3.076   0.156  14.560  0.7387  0.3527  0.3330
 1304TIP3    H225328   3.162   0.129  14.439 -0.6878  0.2701 -0.6931
 1305TIP3   OH225329   2.929   4.337   1.300  0.1517 -0.3634 -0.7655
 1305TIP3    H125330   2.915   4.389   1.221 -2.5366 -1.5847 -1.1652
 1305TIP3    H225331   2.957   4.251   1.268  0.8533 -0.3324 -0.2705
 1306TIP3   OH225332   2.293   0.171   5.475 -0.4574  0.0056 -0.4115
 1306TIP3    H125333   2.298   0.264   5.498 -0.8494  0.0913 -0.6649
 1306TIP3    H225334   2.282   0.170   5.380 -3.1835 -0.2011 -0.1521
 1307TIP3   OH225335   1.000   1.641   6.467  0.5429 -0.4425  0.5700
 1307TIP3    H125336   1.036   1.604   6.548  0.3425  0.2908  1.0030
 1307TIP3    H225337   1.073   1.687   6.426  0.9348 -1.7532 -0.2497
 1308TIP3   OH225338   4.765   0.151  15.548 -0.6502  0.0533  0.0953
 1308TIP3    H125339   4.749   0.172  15.456  2.3432  0.9424 -0.3082
 1308TIP3    H225340   4.836   0.209  15.575 -0.0615 -1.5692  2.4011
 1309TIP3   OH225341   0.991   5.773  16.042  0.4565  0.0161 -0.4602
 1309TIP3    H125342   0.939   5.697  16.069  1.1476 -1.0920 -2.0410
 1309TIP3    H225343   1.047   5.792  16.117 -0.3897 -0.4448  0.2972
 1310TIP3   OH225344   0.610   3.437   0.309  0.5709 -0.3288  0.2328
 1310TIP3    H125345   0.660   3.484   0.375  0.2844 -0.8911  0.8604
 1310TIP3    H225346   0.675   3.403   0.248  0.8547 -0.0543  0.3826
 1311TIP3   OH225347   1.059   5.918  17.204  0.3613  0.2187 -0.0735
 1311TIP3    H125348   1.073   5.972  17.126 -2.6983  3.2510  1.2017
 1311TIP3    H225349   1.087   5.973  17.277  1.2825 -1.7483  1.1401
 1312TIP3   OH225350   2.460   0.470   1.336 -0.4164 -0.2702  0.4113
 1312TIP3    H125351   2.382   0.465   1.280  0.2903  0.6116 -0.6916
 1312TIP3    H225352   2.514   0.396   1.309 -1.5307 -1.8855  2.3098
 1313TIP3   OH225353   4.296   0.879  12.209  0.8195  0.7337 -0.0904
 1313TIP3    H125354   4.219   0.867  12.264  0.4743 -0.7706 -0.8739
 1313TIP3    H225355   4.340   0.794  12.210  1.4381  1.0283 -1.2046
 1314TIP3   OH225356   5.081   4.016  15.403  0.2734  0.2313  0.5051
 1314TIP3    H125357   5.148   3.997  15.338 -0.3300  2.1739 -0.7967
 1314TIP3    H225358   5.128   4.026  15.485  1.1508 -1.5286  0.2500
 1315TIP3   OH225359   4.991   3.226   6.406 -0.1782 -0.2159  0.4869
 1315TIP3    H125360   5.007   3.150   6.351 -0.0074 -0.6526  1.1274
 1315TIP3    H225361   5.042   3.297   6.366 -0.3099 -0.4421 -0.0903
 1316TIP3   OH225362   5.191   0.868  15.479  0.5580  0.4338 -0.0831
 1316TIP3    H125363   5.161   0.779  15.497 -1.0430  0.8617 -0.5296
 1316TIP3    H225364   5.242   0.892  15.557  2.5828 -1.5038 -0.7214
 1317TIP3   OH225365   4.379   5.732  14.259 -0.3362 -0.2033  0.1891
 1317TIP3    H125366   4.464   5.711  14.221  0.2307  1.5444  0.4116
 1317TIP3    H225367   4.344   5.800  14.202  0.8905  3.1103  3.0785
 1318TIP3   OH225368   0.901   2.762  15.142  0.0598 -0.0635  0.1313
 1318TIP3    H125369   0.974   2.802  15.188  1.5270 -3.3695  0.9374
 1318TIP3    H225370   0.899   2.807  15.057  1.3398  1.7947  1.0088
 1319TIP3   OH225371   2.707   4.648  17.137  0.5904 -0.2475 -0.4342
 1319TIP3    H125372   2.726   4.629  17.045 -0.5850 -0.4544 -0.6476
 1319TIP3    H225373   2.773   4.713  17.162  1.8206 -1.2344 -0.9996
 1320TIP3   OH225374   5.637   6.529   3.038  0.3349  0.2394  0.0070
 1320TIP3    H125375   5.626   6.577   3.120  1.7190 -0.1486  0.4313
 1320TIP3    H225376   5.563   6.558   2.984 -0.8029  0.2247  1.5057
 1321TIP3   OH225377   0.630   0.782  16.014  0.2935 -0.8324 -0.5348
 1321TIP3    H125378   0.575   0.704  16.022  0.0504 -0.5831  0.3816
 1321TIP3    H225379   0.587   0.848  16.069  1.7047 -0.7597  0.5469
 1322TIP3   OH225380   0.719   1.058  11.914 -0.6035  0.7419  0.0881
 1322TIP3    H125381   0.673   0.992  11.862 -1.5297 -1.2010  3.1293
 1322TIP3    H225382   0.685   1.142  11.883 -2.2393 -0.3896 -1.3547
 1323TIP3   OH225383   2.140   5.492   1.057  0.5715 -0.2374 -0.2597
 1323TIP3    H125384   2.116   5.517   1.146 -0.3778 -0.1579 -0.5268
 1323TIP3    H225385   2.195   5.415   1.068  3.8249  2.0008  0.6034
 1324TIP3   OH225386   1.248   2.266   5.200 -0.1548  0.5846  0.4472
 1324TIP3    H125387   1.323   2.322   5.221 -0.1153  0.3053  1.0546
 1324TIP3    H225388   1.211   2.242   5.285 -0.3812 -0.0283  0.1790
 1325TIP3   OH225389   4.833   5.151   4.914  0.7804  1.0271 -0.1498
 1325TIP3    H125390   4.764   5.086   4.922 -0.0424  1.7706 -0.9256
 1325TIP3    H225391   4.914   5.102   4.927  0.1091  0.1685  0.9111
 1326TIP3   OH225392   0.237   1.093  15.774  0.0751 -0.3939  0.1931
 1326TIP3    H125393   0.294   1.091  15.697 -0.7730  0.2839 -0.4589
 1326TIP3    H225394   0.169   1.028  15.756 -1.3266  1.2360 -0.5973
 1327TIP3   OH225395   5.630   3.391   3.539  0.2921 -0.0734 -0.2545
 1327TIP3    H125396   5.576   3.319   3.574  2.3169 -1.4883  0.1125
 1327TIP3    H225397   5.583   3.419   3.461 -0.9667 -1.2718  0.0191
 1328TIP3   OH225398   2.599   2.678   6.189  0.3987  0.4282  0.0995
 1328TIP3    H125399   2.584   2.708   6.279 -0.2443  2.5505 -0.6673
 1328TIP3    H225400   2.694   2.678   6.179  0.5343 -1.0210  1.1300
 1329TIP3   OH225401   2.694   1.689   4.458 -0.6550 -0.3118  0.5076
 1329TIP3    H125402   2.700   1.634   4.381  0.2910 -0.2331  0.5221
 1329TIP3    H225403   2.654   1.633   4.525  0.4614 -1.0465  0.5771
 1330TIP3   OH225404   1.152   4.499   3.568 -0.3821  0.4247  0.2685
 1330TIP3    H125405   1.241   4.466   3.575  0.0761  0.7601 -2.7509
 1330TIP3    H225406   1.104   4.430   3.523 -1.2201  0.9409  0.3474
 1331TIP3   OH225407   3.208   3.821  12.062  0.8350 -0.5827 -0.5070
 1331TIP3    H125408   3.272   3.749  12.065  0.0021 -1.2992  1.1581
 1331TIP3    H225409   3.126   3.778  12.037  0.0929 -0.4343  1.5299
 1332TIP3   OH225410   4.793   0.121   5.415 -0.1706 -0.6057 -0.0037
 1332TIP3    H125411   4.887   0.118   5.433 -0.3119 -1.4618  0.6383
 1332TIP3    H225412   4.780   0.206   5.372  1.0679 -0.9641 -1.1694
 1333TIP3   OH225413   4.619   3.113  13.822 -0.0767 -0.0296 -0.3133
 1333TIP3    H125414   4.702   3.151  13.792  0.5210 -0.3690  0.8400
 1333TIP3    H225415   4.565   3.189  13.845  0.5301  0.1743  0.4917
 1334TIP3   OH225416   3.489   4.097  14.484  0.5030  0.3407 -0.1755
 1334TIP3    H125417   3.448   4.137  14.561 -0.5580 -0.5285 -0.2820
 1334TIP3    H225418   3.430   4.117  14.412 -0.0805 -1.4099 -0.2286
 1335TIP3   OH225419   2.085   2.653   4.781  0.1803 -0.3361 -0.3300
 1335TIP3    H125420   2.080   2.559   4.801  0.2522 -0.6063 -1.4961
 1335TIP3    H225421   1.993   2.679   4.771  0.1834 -0.4059 -0.5423
 1336TIP3   OH225422   0.431   6.041  13.486  0.5711  0.1595 -0.1774
 1336TIP3    H125423   0.388   6.126  13.474  0.3406  0.3831  1.8061
 1336TIP3    H225424   0.358   5.978  13.488  0.7165 -0.0602 -1.3178
 1337TIP3   OH225425   5.884   6.261  13.710  0.2543  0.7951  0.1620
 1337TIP3    H125426   5.921   6.183  13.752  1.4805  0.8737 -0.7243
 1337TIP3    H225427   5.837   6.227  13.634  0.8098  0.9069 -0.2385
 1338TIP3   OH225428   3.109   0.012  16.881 -0.6024  0.2851  0.0818
 1338TIP3    H125429   3.087   0.092  16.928 -0.7305  0.3627 -0.1089
 1338TIP3    H225430   3.036  -0.048  16.899 -2.2526  1.3548 -2.4965
 1339TIP3   OH225431   3.743   6.583   5.251  0.2318  0.0298 -0.3216
 1339TIP3    H125432   3.735   6.678   5.259  1.3048  0.1758 -0.7810
 1339TIP3    H225433   3.762   6.552   5.339 -1.3491  0.0921  0.0586
 1340TIP3   OH225434   4.526   2.794  12.889  0.4161 -0.1220  0.0561
 1340TIP3    H125435   4.460   2.790  12.958  0.1019  0.5246 -0.1994
 1340TIP3    H225436   4.608   2.770  12.932  0.2792  0.5869  0.7248
 1341TIP3   OH225437   0.674   0.095   2.479  0.1742  0.1594  0.4482
 1341TIP3    H125438   0.669   0.069   2.571 -1.3318  1.1382  0.6689
 1341TIP3    H225439   0.727   0.175   2.479  1.9701 -0.9745  0.1701
 1342TIP3   OH225440   6.049   4.883  13.254  0.6189 -0.0838 -0.2156
 1342TIP3    H125441   6.102   4.876  13.334  0.9523  0.4484 -0.3847
 1342TIP3    H225442   6.035   4.977  13.244  0.3901 -0.1659 -0.6652
 1343TIP3   OH225443   3.136   2.485  15.112  0.3313 -0.5176 -0.3931
 1343TIP3    H125444   3.043   2.506  15.128  0.0626 -2.3306  0.8095
 1343TIP3    H225445   3.170   2.561  15.067 -1.1419  1.3074  1.3539
 1344TIP3   OH225446   1.405   6.358   2.618  0.3613 -0.2321 -0.0614
 1344TIP3    H125447   1.418   6.348   2.713 -0.7471  1.8373  0.3687
 1344TIP3    H225448   1.361   6.277   2.591  2.6005 -1.8128  0.7291
 1345TIP3   OH225449   2.802   4.169   4.321 -0.3797  0.4648 -0.3683
 1345TIP3    H125450   2.840   4.195   4.238  2.5116  1.3871  1.1001
 1345TIP3    H225451   2.858   4.098   4.352 -1.6766 -0.1855  0.6022
 1346TIP3   OH225452   4.410   1.940   2.542  0.1301  0.0021 -0.0705
 1346TIP3    H125453   4.427   1.857   2.585  0.5225  0.3002  0.3648
 1346TIP3    H225454   4.429   1.924   2.450 -2.1607 -1.0684 -0.4313
 1347TIP3   OH225455   3.027   0.009   1.949  0.2801 -0.1499 -0.2224
 1347TIP3    H125456   3.102   0.015   1.889 -0.6243 -1.5065 -1.5635
 1347TIP3    H225457   3.035  -0.077   1.989  0.3187  0.3579  0.9146
 1348TIP3   OH225458   2.763   2.514   1.220 -0.3875 -0.1381 -0.0406
 1348TIP3    H125459   2.786   2.607   1.220 -2.3674  0.3920 -1.0106
 1348TIP3    H225460   2.793   2.482   1.135  1.6583 -0.8230  0.8579
 1349TIP3   OH225461   2.039   5.053   6.778 -0.0296  0.2622  0.9853
 1349TIP3    H125462   2.049   4.976   6.722  1.6227  0.9686  0.2304
 1349TIP3    H225463   1.950   5.083   6.762 -0.4789 -1.1067  0.7960
 1350TIP3   OH225464   5.589   4.392   5.823  0.9547  0.0670  0.0354
 1350TIP3    H125465   5.581   4.304   5.859 -1.8707  0.0734 -0.3626
 1350TIP3    H225466   5.613   4.446   5.899 -0.6409 -0.5812  1.0724
 1351TIP3   OH225467   3.931   4.059   2.355  0.7921  0.5092  0.1017
 1351TIP3    H125468   3.869   4.131   2.370 -1.9897 -1.7628  0.2744
 1351TIP3    H225469   3.962   4.072   2.265 -0.5611  1.2781 -0.2764
 1352TIP3   OH225470   5.922   3.336  11.560 -0.2131 -0.1731  0.3418
 1352TIP3    H125471   5.896   3.358  11.650  0.1232 -2.1716  0.9751
 1352TIP3    H225472   5.893   3.246  11.548 -0.5105  0.1500 -1.6892
 1353TIP3   OH225473   4.799   2.784   3.628 -0.5261 -0.1274  0.1752
 1353TIP3    H125474   4.723   2.727   3.641 -0.6033 -0.0151  0.2142
 1353TIP3    H225475   4.766   2.872   3.645  0.0096 -0.2137  1.8521
 1354TIP3   OH225476   4.321   6.148   1.143  0.4440 -0.3862  0.0740
 1354TIP3    H125477   4.303   6.228   1.192 -1.3858  0.8148 -2.3496
 1354TIP3    H225478   4.255   6.085   1.174 -1.2647  0.6358 -1.3369
 1355TIP3   OH225479   1.866   2.664  17.021  0.3131  0.0362 -0.3284
 1355TIP3    H125480   1.946   2.668  17.073  0.4727 -1.3468 -0.4265
 1355TIP3    H225481   1.833   2.575  17.035 -2.1112  1.0664  1.0436
 1356TIP3   OH225482   6.275   6.198  11.028  0.0594  0.4941 -0.9921
 1356TIP3    H125483   6.276   6.240  11.114 -0.8338 -0.5640 -0.4459
 1356TIP3    H225484   6.292   6.106  11.046 -0.7031  0.1653 -1.8892
 1357TIP3   OH225485   5.238   2.381  13.753  0.8176  0.7176 -0.3650
 1357TIP3    H125486   5.145   2.365  13.770  0.9489 -0.6626 -0.8457
 1357TIP3    H225487   5.246   2.379  13.658  1.5435 -0.6151 -0.3126
 1358TIP3   OH225488   0.236   0.442   3.610 -0.8046  0.5890  0.0103
 1358TIP3    H125489   0.247   0.521   3.558 -1.2223  0.6718  0.0404
 1358TIP3    H225490   0.177   0.468   3.681  0.5950  0.7566  1.1479
 1359TIP3   OH225491   5.472   5.505   4.350  0.4277 -0.2516  0.1218
 1359TIP3    H125492   5.376   5.507   4.344  0.4565 -0.2495 -0.3753
 1359TIP3    H225493   5.491   5.418   4.385  0.2043  0.0840  1.1028
 1360TIP3   OH225494   0.649   2.022  11.456 -0.1413 -0.2745  0.6334
 1360TIP3    H125495   0.731   2.053  11.417  1.8481 -2.6158  2.6225
 1360TIP3    H225496   0.624   1.946  11.404 -0.6454 -0.0453  0.5302
 1361TIP3   OH225497   5.503   2.563   4.920 -0.1753 -0.3517  0.4451
 1361TIP3    H125498   5.503   2.652   4.884 -2.7544 -0.1207  0.8069
 1361TIP3    H225499   5.461   2.572   5.006 -0.1440 -1.8551  0.6431
 1362TIP3   OH225500   3.993   0.097  11.724 -0.1744 -0.1812 -0.3116
 1362TIP3    H125501   3.902   0.123  11.740 -0.0263 -0.1498  0.5058
 1362TIP3    H225502   4.007   0.115  11.631 -0.5249  1.3015 -0.1053
 1363TIP3   OH225503   6.546   5.380  14.895  0.0872  0.3950 -0.8036
 1363TIP3    H125504   6.613   5.389  14.963  1.2764 -0.4712 -1.7921
 1363TIP3    H225505   6.512   5.291  14.907 -1.6801  1.1887  0.3449
 1364TIP3   OH225506   0.395   4.356  11.817 -0.4535 -0.2968 -0.4760
 1364TIP3    H125507   0.392   4.284  11.754  0.1344  0.0977 -0.9652
 1364TIP3    H225508   0.474   4.405  11.794 -0.7793  0.4359 -0.0714
 1365TIP3   OH225509   4.091   1.200   5.092  0.2305  0.5228  0.0765
 1365TIP3    H125510   4.123   1.245   5.014  2.4815 -0.3621  0.4216
 1365TIP3    H225511   4.155   1.130   5.107 -1.0797 -0.3838  1.7523
 1366TIP3   OH225512   1.555   2.140  16.517  0.1653  0.4165  0.9612
 1366TIP3    H125513   1.482   2.109  16.463 -0.6262  0.6321  1.8811
 1366TIP3    H225514   1.522   2.135  16.607  0.1840  3.3039  1.2295
 1367TIP3   OH225515   2.020   3.071   1.462 -0.9368  0.2083 -0.0805
 1367TIP3    H125516   1.933   3.106   1.482 -1.2177  0.5885 -1.8430
 1367TIP3    H225517   2.005   3.010   1.390  0.1945 -0.1470 -0.0258
 1368TIP3   OH225518   2.095   6.475  14.335 -0.7038  0.1526 -0.4240
 1368TIP3    H125519   2.053   6.534  14.273 -2.3326 -0.1986  0.2768
 1368TIP3    H225520   2.177   6.450  14.293 -0.8716  1.3994 -1.5679
 1369TIP3   OH225521   5.333   4.197  14.473 -0.3506  0.2597 -0.0191
 1369TIP3    H125522   5.280   4.126  14.437 -0.9795  1.0277 -0.6425
 1369TIP3    H225523   5.382   4.231  14.398  2.1222 -1.3042  0.7693
 1370TIP3   OH225524   1.929   5.659  14.103 -0.6315  0.8149  0.2800
 1370TIP3    H125525   1.894   5.604  14.174 -1.0043 -1.3034 -1.4374
 1370TIP3    H225526   2.013   5.620  14.081 -1.4347  0.1025 -1.7871
 1371TIP3   OH225527   4.475   5.081   6.038 -0.3286  0.2930 -0.1765
 1371TIP3    H125528   4.408   5.111   5.977 -0.6090 -2.8260 -1.6194
 1371TIP3    H225529   4.557   5.111   5.999 -0.6164 -0.1831 -1.1755
 1372TIP3   OH225530   4.290   6.035  15.070 -0.0949  0.1457  0.3267
 1372TIP3    H125531   4.234   6.025  14.993  1.1855  1.4754 -0.8701
 1372TIP3    H225532   4.234   6.014  15.144 -1.3676 -1.2560 -0.9639
 1373TIP3   OH225533   1.612   6.298   1.064 -0.0393  0.8544  0.9707
 1373TIP3    H125534   1.639   6.246   0.989  0.6895  0.2756  1.6258
 1373TIP3    H225535   1.586   6.234   1.130  1.5671  1.2568  2.0541
 1374TIP3   OH225536   5.719   3.648  17.007  0.4304 -0.7116  0.2567
 1374TIP3    H125537   5.711   3.645  16.911 -0.8521  1.2517  0.2489
 1374TIP3    H225538   5.629   3.638  17.038  0.6375  0.2734  1.1907
 1375TIP3   OH225539   1.112   6.332   3.404  0.6420  0.6522  0.3033
 1375TIP3    H125540   1.086   6.404   3.346 -2.6814 -0.2358  0.5023
 1375TIP3    H225541   1.083   6.253   3.359  2.8633 -0.5362  0.8003
 1376TIP3   OH225542   4.129   5.622   2.156  0.0934  0.7343  0.0588
 1376TIP3    H125543   4.110   5.551   2.219 -0.7758  1.2243  0.3687
 1376TIP3    H225544   4.165   5.577   2.080  1.2704  0.1309  0.9407
 1377TIP3   OH225545   3.046   6.522  13.492  0.4009 -0.1257 -0.3900
 1377TIP3    H125546   3.066   6.509  13.400  0.1470  1.8374 -0.7628
 1377TIP3    H225547   2.971   6.583  13.492 -0.0985 -0.6893  1.0930
 1378TIP3   OH225548   2.755   1.082  15.302  0.2857  0.2324 -0.2338
 1378TIP3    H125549   2.825   1.141  15.328 -0.7001  0.7949  1.2580
 1378TIP3    H225550   2.697   1.078  15.378  0.8885 -3.5954  0.2273
 1379TIP3   OH225551   2.862   3.508   4.758 -0.2139  0.0285  0.1871
 1379TIP3    H125552   2.825   3.585   4.716  0.0205 -0.1642 -0.3870
 1379TIP3    H225553   2.928   3.477   4.696  0.4477 -0.0074  0.8961
 1380TIP3   OH225554   2.827   6.548   2.225  0.1318  0.0256  0.3967
 1380TIP3    H125555   2.915   6.576   2.196  0.6690 -0.0977  1.8427
 1380TIP3    H225556   2.796   6.620   2.279  0.1338 -0.7310  1.4264
 1381TIP3   OH225557   3.803   1.823  16.291  0.0534  0.0732 -0.0079
 1381TIP3    H125558   3.855   1.801  16.214 -0.0202 -0.1656  0.0099
 1381TIP3    H225559   3.727   1.870  16.256 -0.6095 -1.0990 -0.2064
 1382TIP3   OH225560   0.718   5.785   0.753  0.1514 -0.3247  0.1835
 1382TIP3    H125561   0.749   5.856   0.697  0.7172  0.3588  1.3317
 1382TIP3    H225562   0.783   5.778   0.822 -0.3679 -1.3647  0.5944
 1383TIP3   OH225563   4.183   5.960  16.309 -0.0124  0.5157  0.5588
 1383TIP3    H125564   4.102   5.948  16.261  0.0329  0.8495  0.4026
 1383TIP3    H225565   4.193   5.879  16.360  0.2464 -0.0973 -0.4507
 1384TIP3   OH225566   2.313   0.860   4.757  0.0286  0.2977 -0.0597
 1384TIP3    H125567   2.373   0.866   4.683 -0.3244 -0.6389 -0.4398
 1384TIP3    H225568   2.368   0.879   4.833  0.6665  0.1054 -0.4593
 1385TIP3   OH225569   5.758   2.133  16.116  0.4676 -0.5762  0.0890
 1385TIP3    H125570   5.704   2.076  16.170 -0.4336 -0.7679 -0.9671
 1385TIP3    H225571   5.721   2.125  16.028 -0.0198  1.9838 -0.0260
 1386TIP3   OH225572   6.028   3.414  14.566 -0.1799 -0.3562 -0.1361
 1386TIP3    H125573   6.033   3.444  14.657  0.3145  0.1187 -0.3187
 1386TIP3    H225574   6.053   3.322  14.570  2.9130  0.3968 -0.1695
 1387TIP3   OH225575   1.325   4.792  11.240  0.2382 -0.7430  0.1427
 1387TIP3    H125576   1.365   4.838  11.314 -1.1556  0.2346  0.3235
 1387TIP3    H225577   1.343   4.849  11.165 -0.8460 -0.2529  0.2405
 1388TIP3   OH225578   0.445   0.154  14.098  0.2528  0.2384 -0.7135
 1388TIP3    H125579   0.388   0.226  14.122  0.2261  0.3357 -1.0625
 1388TIP3    H225580   0.393   0.075  14.114  0.8938  0.1852  1.3857
 1389TIP3   OH225581   1.993   3.163  11.783  0.2658 -0.3930 -0.5838
 1389TIP3    H125582   2.006   3.110  11.704 -0.0344  0.7325 -1.4184
 1389TIP3    H225583   1.949   3.242  11.751 -0.9775 -0.4425  0.8922
 1390TIP3   OH225584   5.617   2.641  15.668  0.3086 -0.3251 -0.0842
 1390TIP3    H125585   5.562   2.717  15.648 -0.3670 -0.5903  0.7300
 1390TIP3    H225586   5.579   2.569  15.618  1.7062  0.0974 -1.8857
 1391TIP3   OH225587   6.758   4.983  11.877  0.0343  0.0794  0.7795
 1391TIP3    H125588   6.665   4.959  11.866  0.1785 -0.5873  0.9730
 1391TIP3    H225589   6.761   5.030  11.960 -0.1378  0.1211  0.7626
 1392TIP3   OH225590   4.022   6.423   4.648  0.1854 -0.3505 -0.4307
 1392TIP3    H125591   4.020   6.519   4.648 -0.6979 -0.3528  0.5857
 1392TIP3    H225592   3.964   6.398   4.720  1.3201 -1.6352  0.0730
 1393TIP3   OH225593   5.896   4.780  13.045 -0.5653 -0.4797  0.4040
 1393TIP3    H125594   5.925   4.813  13.130 -0.7157 -0.0468  0.2883
 1393TIP3    H225595   5.931   4.843  12.981  0.7381 -1.5429  0.0248
 1394TIP3   OH225596   1.202   1.320  17.231 -0.2324  0.0369  0.4350
 1394TIP3    H125597   1.186   1.412  17.208 -1.2798  0.0769  1.2618
 1394TIP3    H225598   1.150   1.306  17.310  0.8242 -0.9582  0.9816
 1395TIP3   OH225599   1.981   4.259   1.597 -0.2686  0.2519  0.5550
 1395TIP3    H125600   1.974   4.264   1.692 -2.3375  3.5871  0.3939
 1395TIP3    H225601   2.058   4.312   1.576 -0.1463 -0.0108  0.3385
 1396TIP3   OH225602   4.116   1.069  13.508 -0.0118 -0.3527 -0.2934
 1396TIP3    H125603   4.177   1.116  13.450 -0.0347 -1.8075 -1.5246
 1396TIP3    H225604   4.047   1.133  13.526 -0.0019  0.1405 -1.8582
 1397TIP3   OH225605   4.485   1.404   0.972  0.5329  0.4111  0.3663
 1397TIP3    H125606   4.498   1.417   1.065  0.9558  3.5063 -0.0497
 1397TIP3    H225607   4.491   1.491   0.933  2.0338 -0.9364 -2.7859
 1398TIP3   OH225608   6.024   1.350   3.042  0.3801 -0.2047  0.6763
 1398TIP3    H125609   5.995   1.438   3.065  2.6184  1.2086 -1.3408
 1398TIP3    H225610   5.981   1.332   2.958 -1.6988 -2.0266  2.0139
 1399TIP3   OH225611   2.526   0.401   5.156  0.0325  0.1982  0.0389
 1399TIP3    H125612   2.530   0.334   5.087 -2.7124 -0.0164 -0.0527
 1399TIP3    H225613   2.588   0.468   5.129  2.3737 -1.9186 -0.2472
 1400TIP3   OH225614   0.054   6.516   3.634 -0.1087  0.4691  0.1633
 1400TIP3    H125615   0.064   6.424   3.610  2.1069  0.6611  0.1497
 1400TIP3    H225616   0.064   6.518   3.729 -0.3960  0.6877  0.1934
 1401TIP3   OH225617   1.960   4.430  16.941 -0.2766 -0.3677 -0.0586
 1401TIP3    H125618   1.919   4.378  16.872  0.2033 -0.1278 -0.5324
 1401TIP3    H225619   2.028   4.480  16.896  0.9501 -1.1995  0.7941
 1402TIP3   OH225620   6.501   2.573  12.843  0.5560 -0.0277 -0.0008
 1402TIP3    H125621   6.530   2.656  12.880 -0.8811  0.0329  1.1011
 1402TIP3    H225622   6.567   2.510  12.871  0.0535  0.2150  1.8850
 1403TIP3   OH225623   5.895   4.549   0.668  0.3585  0.3397 -0.1790
 1403TIP3    H125624   5.856   4.528   0.583 -0.1895 -0.5455  0.2680
 1403TIP3    H225625   5.989   4.536   0.655  0.1238 -1.9516 -0.1218
 1404TIP3   OH225626   2.995   4.901  13.699  0.5545  0.2667  0.0196
 1404TIP3    H125627   2.927   4.873  13.760 -0.1298  0.5465 -0.5994
 1404TIP3    H225628   3.061   4.833  13.704  0.9869  0.7651  1.7972
 1405TIP3   OH225629   5.191   0.162   1.400 -0.8894  0.1181  0.3060
 1405TIP3    H125630   5.261   0.227   1.393 -1.0576  0.3316  0.5740
 1405TIP3    H225631   5.140   0.173   1.320 -1.2203  0.6727  0.5931
 1406TIP3   OH225632   3.952   3.285   2.172  0.2868  0.2627 -0.4843
 1406TIP3    H125633   4.047   3.294   2.162  0.5059 -0.1792  1.0264
 1406TIP3    H225634   3.923   3.251   2.087  1.1787  2.3171 -1.6886
 1407TIP3   OH225635   1.672   1.455   6.726  0.5130 -0.0007 -0.1757
 1407TIP3    H125636   1.749   1.401   6.744 -0.3603 -1.1445  0.1615
 1407TIP3    H225637   1.671   1.520   6.797 -0.1174 -1.4181  1.1665
 1408TIP3   OH225638   2.248   2.430  17.116  0.4393  0.0305 -0.0562
 1408TIP3    H125639   2.152   2.432  17.122  0.2265  1.3013 -2.5390
 1408TIP3    H225640   2.273   2.522  17.110  1.8650 -0.2754  0.7932
 1409TIP3   OH225641   5.572   2.439   6.004  0.4067 -0.6497 -0.0247
 1409TIP3    H125642   5.488   2.481   5.989  0.6911  0.0464  0.2937
 1409TIP3    H225643   5.570   2.410   6.095  0.7330 -0.0948  0.1660
 1410TIP3   OH225644   6.502   0.111  12.477 -0.2203 -0.4183  0.6301
 1410TIP3    H125645   6.517   0.089  12.569 -0.3879 -0.1143  0.7300
 1410TIP3    H225646   6.590   0.131  12.443 -0.0527 -1.3087  0.5187
 1411TIP3   OH225647   2.768   6.761   5.307  0.2341 -0.1648 -0.4034
 1411TIP3    H125648   2.815   6.678   5.313  1.3117  0.3594 -1.1520
 1411TIP3    H225649   2.688   6.748   5.357 -1.1254 -2.6920 -2.9600
 1412TIP3   OH225650   1.956   3.440  16.028 -0.5758  0.5675 -0.6116
 1412TIP3    H125651   1.994   3.387  15.957 -0.1142  0.4145 -0.2513
 1412TIP3    H225652   2.031   3.488  16.064 -0.3466 -1.1401  1.3477
 1413TIP3   OH225653   2.644   3.582  13.721 -0.0430 -0.4278 -0.4862
 1413TIP3    H125654   2.725   3.533  13.701  0.0311 -0.4446 -0.1535
 1413TIP3    H225655   2.661   3.622  13.806  0.5696  1.6257 -1.5188
 1414TIP3   OH225656   6.349   5.639   0.132  0.0230 -0.5638  0.3116
 1414TIP3    H125657   6.375   5.550   0.109 -0.0922 -0.4655 -0.2159
 1414TIP3    H225658   6.257   5.631   0.159  0.1640 -0.6825  0.7720
 1415TIP3   OH225659   2.667   3.980   4.586 -0.1777 -0.0931  0.3156
 1415TIP3    H125660   2.572   3.988   4.580 -0.0512  1.1834 -0.4142
 1415TIP3    H225661   2.697   3.971   4.496  0.3268 -1.6748  0.6178
 1416TIP3   OH225662   2.130   6.090   5.436 -0.1966  0.0858 -0.3475
 1416TIP3    H125663   2.186   6.122   5.507 -0.6898  2.1009 -0.8098
 1416TIP3    H225664   2.153   5.997   5.428  1.7465  0.4147  0.6953
 1417TIP3   OH225665   5.838   4.812   3.175 -0.0829  0.4032  0.1763
 1417TIP3    H125666   5.916   4.784   3.127 -0.1067 -0.0930  0.4173
 1417TIP3    H225667   5.864   4.807   3.267  0.1904  2.0219  0.2105
 1418TIP3   OH225668   5.070   1.619   5.772 -0.2177 -0.0000 -0.3836
 1418TIP3    H125669   5.053   1.560   5.845  2.3592  0.7177  0.9174
 1418TIP3    H225670   5.026   1.700   5.796  0.3397  0.1274  0.2408
 1419TIP3   OH225671   6.466   1.092   5.331  0.0754 -0.5788 -0.0604
 1419TIP3    H125672   6.475   1.166   5.270 -1.0980 -0.0960  0.3247
 1419TIP3    H225673   6.428   1.130   5.410  0.6135 -1.3872  0.6106
 1420TIP3   OH225674   4.084   5.232   5.933  0.1784 -0.3856 -0.5046
 1420TIP3    H125675   4.150   5.258   5.870 -1.2190  1.8910 -1.1307
 1420TIP3    H225676   4.019   5.184   5.882 -1.5564  2.4747 -1.1823
 1421TIP3   OH225677   4.480   2.907   3.552 -0.3781 -0.0986  0.0891
 1421TIP3    H125678   4.439   2.991   3.531  0.6909  0.0695 -1.5285
 1421TIP3    H225679   4.571   2.918   3.524  0.3534 -1.0502  1.9617
 1422TIP3   OH225680   0.030   2.168   1.323 -0.4087 -0.1005  0.3528
 1422TIP3    H125681   0.082   2.166   1.404  0.4484  2.3223 -0.0750
 1422TIP3    H225682  -0.056   2.137   1.350  0.2304 -0.6625  1.8946
 1423TIP3   OH225683   4.067   5.531  14.030  0.1171 -0.0096 -0.1474
 1423TIP3    H125684   4.046   5.511  14.121 -0.8703 -0.3198 -0.4279
 1423TIP3    H225685   3.983   5.554  13.990  0.4546 -0.3485 -1.1008
 1424TIP3   OH225686   1.381   2.913  12.458 -0.2961  0.7925 -0.2026
 1424TIP3    H125687   1.317   2.879  12.395 -0.3287 -0.3697  0.4417
 1424TIP3    H225688   1.329   2.939  12.534 -0.0317 -0.0614  0.2831
 1425TIP3   OH225689   0.263   0.605   1.006  0.6578 -0.1167  0.2157
 1425TIP3    H125690   0.330   0.572   0.946  0.9371 -0.2596  0.6004
 1425TIP3    H225691   0.287   0.696   1.023  0.8628 -0.2220  0.4987
 1426TIP3   OH225692   5.478   2.116  12.293  0.2119 -0.3960 -0.2678
 1426TIP3    H125693   5.516   2.138  12.378  1.0649 -1.1103 -0.4548
 1426TIP3    H225694   5.552   2.092  12.238 -0.2161  0.9546 -1.5255
 1427TIP3   OH225695   5.550   6.036  14.730 -0.4040  0.5444 -0.9717
 1427TIP3    H125696   5.577   6.088  14.806 -0.5894  1.0195 -1.2284
 1427TIP3    H225697   5.463   6.069  14.708 -0.8951 -0.4775 -0.6047
 1428TIP3   OH225698   4.192   0.709  14.073  0.3071 -0.0335  0.4297
 1428TIP3    H125699   4.196   0.678  13.983 -0.8732  2.3629 -0.5497
 1428TIP3    H225700   4.230   0.638  14.125  3.0672 -0.6639 -2.1461
 1429TIP3   OH225701   5.562   2.858  12.143  0.7274 -0.4771 -0.2554
 1429TIP3    H125702   5.619   2.800  12.194  0.3745 -1.3651 -0.8512
 1429TIP3    H225703   5.609   2.941  12.141  1.4147 -0.8392  0.3172
 1430TIP3   OH225704   2.854   1.330  16.967  0.4038  0.4645 -0.3222
 1430TIP3    H125705   2.943   1.294  16.969  0.3843  0.4150  1.3677
 1430TIP3    H225706   2.859   1.407  17.025 -0.8569 -0.0575  0.5080
 1431TIP3   OH225707   6.363   0.242  14.673  1.1272 -0.2874  0.8276
 1431TIP3    H125708   6.422   0.167  14.682 -0.5241 -2.0873 -1.7673
 1431TIP3    H225709   6.285   0.217  14.722 -0.3775 -1.5049 -1.9810
 1432TIP3   OH225710   6.745   6.358   4.879  0.1715 -0.8616  0.4790
 1432TIP3    H125711   6.758   6.357   4.974  0.1296  1.0585  0.5518
 1432TIP3    H225712   6.774   6.446   4.853 -1.6630 -0.6532 -1.0012
 1433TIP3   OH225713   3.094   5.047   1.236 -0.3541 -0.1323  0.0303
 1433TIP3    H125714   3.021   4.985   1.232 -0.1401 -0.4226  0.7164
 1433TIP3    H225715   3.134   5.034   1.321 -0.7712  1.4640  0.5139
 1434TIP3   OH225716   1.483   6.314   4.123 -0.3977 -0.3378  0.5217
 1434TIP3    H125717   1.566   6.283   4.088  0.0309  1.1161  0.1976
 1434TIP3    H225718   1.438   6.353   4.049 -1.2177 -0.7521  0.7834
 1435TIP3   OH225719   1.740   5.545  15.772  0.2466  0.6998 -0.0437
 1435TIP3    H125720   1.825   5.545  15.728 -0.2475  2.7519 -1.1319
 1435TIP3    H225721   1.678   5.517  15.704 -0.0372 -0.2216  0.5783
 1436TIP3   OH225722   2.909   3.665  13.204 -0.2933 -0.3362  0.2265
 1436TIP3    H125723   2.978   3.691  13.264  0.0738 -0.5182 -0.1126
 1436TIP3    H225724   2.885   3.746  13.158 -0.8240 -0.1272  0.8695
 1437TIP3   OH225725   1.903   0.464  17.032  0.3671  0.4652 -0.0016
 1437TIP3    H125726   1.993   0.490  17.049  1.0567 -1.0006 -1.2007
 1437TIP3    H225727   1.859   0.473  17.117  1.8810  0.2569  0.8321
 1438TIP3   OH225728   4.234   6.030   5.958  0.4893 -0.5395 -0.6744
 1438TIP3    H125729   4.275   6.008   5.875  0.4578  2.9343 -1.7420
 1438TIP3    H225730   4.159   5.970   5.965  1.3489 -1.8786 -2.3763
 1439TIP3   OH225731   1.903   4.684   1.056 -0.6201  0.4391 -0.2581
 1439TIP3    H125732   1.932   4.617   0.994  0.9821  0.4434  0.4374
 1439TIP3    H225733   1.865   4.753   1.001 -0.1302  0.0136 -1.1492
 1440TIP3   OH225734   3.729   1.113  11.534 -0.4978  0.4479  0.1308
 1440TIP3    H125735   3.769   1.068  11.608 -1.7122  0.8688  1.0731
 1440TIP3    H225736   3.676   1.182  11.573  0.2279  1.8332 -1.2179
 1441TIP3   OH225737   0.210   6.552  15.632  0.2240  0.0129  0.1106
 1441TIP3    H125738   0.284   6.556  15.692  2.0975  0.8533 -2.1424
 1441TIP3    H225739   0.157   6.628  15.654  0.6783  0.1076  0.9193
 1442TIP3   OH225740   0.976   1.099   5.335  0.0093  0.6539  0.1387
 1442TIP3    H125741   0.988   1.150   5.415 -1.3341 -0.1519  0.8812
 1442TIP3    H225742   0.991   1.009   5.362 -2.9190  0.0664  0.1380
 1443TIP3   OH225743   0.776   2.475   3.767 -0.2283  0.1133 -0.2306
 1443TIP3    H125744   0.743   2.516   3.687  1.5040 -2.4507 -2.4226
 1443TIP3    H225745   0.704   2.420   3.797 -1.0379  1.4036  0.2658
 1444TIP3   OH225746   3.598   4.198  15.536  0.1017 -0.2779  0.1220
 1444TIP3    H125747   3.569   4.224  15.449  0.3579  1.6606  0.5662
 1444TIP3    H225748   3.544   4.251  15.596  0.8876 -0.5419  1.0929
 1445TIP3   OH225749   0.004   1.051  13.513 -0.0415 -0.2103  0.0995
 1445TIP3    H125750   0.059   0.985  13.556 -0.6213 -0.2624  0.7742
 1445TIP3    H225751   0.065   1.104  13.462  0.7238  0.0720  1.2684
 1446TIP3   OH225752   0.886   5.134   1.909  0.1236  0.1759 -0.0347
 1446TIP3    H125753   0.871   5.075   1.835 -0.9709  1.2609 -0.7068
 1446TIP3    H225754   0.973   5.171   1.893  0.5697 -0.7743  0.0831
 1447TIP3   OH225755   5.219   6.736   0.690 -0.0907  0.1971 -0.5196
 1447TIP3    H125756   5.201   6.797   0.618 -0.6115 -2.2304 -2.6267
 1447TIP3    H225757   5.314   6.727   0.691 -0.0514  0.6003 -0.5940
 1448TIP3   OH225758   5.080   5.546  11.919  0.1022 -0.4194  0.5629
 1448TIP3    H125759   5.039   5.627  11.889 -1.6026 -1.3174  0.3228
 1448TIP3    H225760   5.007   5.494  11.954  1.5852 -0.5314  3.8551
 1449TIP3   OH225761   1.910   0.119   1.686 -0.7339  0.6507 -0.4453
 1449TIP3    H125762   1.929   0.132   1.593  1.3988 -0.3516 -0.2164
 1449TIP3    H225763   1.918   0.206   1.725 -0.6236  0.9154 -1.0508
 1450TIP3   OH225764   0.227   2.313  14.972 -0.2414  0.1735  0.0215
 1450TIP3    H125765   0.261   2.304  15.061  3.8609  0.9336 -1.2551
 1450TIP3    H225766   0.214   2.407  14.961  1.5214  0.3539 -0.8187
 1451TIP3   OH225767   1.702   5.961  14.491 -0.1151  0.5749  0.0255
 1451TIP3    H125768   1.782   5.985  14.538  0.1966  0.9802 -0.6931
 1451TIP3    H225769   1.649   6.041  14.492 -0.2733  0.4703  0.0198
 1452TIP3   OH225770   0.554   4.814   5.727 -0.7296  0.1992 -0.4719
 1452TIP3    H125771   0.509   4.859   5.798  1.0318 -1.2639  1.7112
 1452TIP3    H225772   0.642   4.849   5.728  0.2362 -2.0464  0.2639
 1453TIP3   OH225773   1.159   4.672  12.819 -0.1050  0.3915  0.1510
 1453TIP3    H125774   1.127   4.750  12.866  2.9331 -0.0938  3.4017
 1453TIP3    H225775   1.237   4.702  12.774  0.7670 -0.5872  0.9633
 1454TIP3   OH225776   3.516   3.204  17.216  0.0839 -0.0215  0.0953
 1454TIP3    H125777   3.584   3.174  17.156 -0.6956  3.7178 -3.0294
 1454TIP3    H225778   3.436   3.159  17.187  0.1186  0.1178 -0.2147
 1455TIP3   OH225779   6.086   3.056   2.308 -0.8679 -0.1941 -0.2642
 1455TIP3    H125780   6.069   3.141   2.349 -1.4811 -0.2594 -0.3632
 1455TIP3    H225781   6.072   2.993   2.379 -0.7920 -0.2367 -0.2870
 1456TIP3   OH225782   4.656   5.094  13.057 -0.7713 -0.0009 -0.1170
 1456TIP3    H125783   4.588   5.027  13.060 -0.5545 -0.2479 -0.5495
 1456TIP3    H225784   4.609   5.177  13.066 -1.0542 -0.2010  0.2834
 1457TIP3   OH225785   4.877   2.781  12.146 -0.0666  0.5641  0.0099
 1457TIP3    H125786   4.954   2.828  12.113  0.9265 -0.4656  0.8000
 1457TIP3    H225787   4.910   2.694  12.167 -1.7907 -0.3886 -1.0584
 1458TIP3   OH225788   3.899   3.422  13.242 -0.1230  0.0361  0.2066
 1458TIP3    H125789   3.923   3.460  13.326 -0.7568  0.3212  0.2681
 1458TIP3    H225790   3.982   3.399  13.201  0.3343  2.0137 -0.0674
 1459TIP3   OH225791   0.997   2.387  16.338  0.0815  0.2966  0.1122
 1459TIP3    H125792   1.031   2.371  16.426  1.7806  1.7646 -0.2182
 1459TIP3    H225793   0.915   2.337  16.334  0.7592 -1.0650  1.9610
 1460TIP3   OH225794   4.029   5.383   4.254 -0.1080  0.5841 -0.0196
 1460TIP3    H125795   4.002   5.379   4.346  0.2134 -0.9679  0.0502
 1460TIP3    H225796   4.104   5.442   4.254  0.8721 -0.5751  1.0349
 1461TIP3   OH225797   1.297   2.250  15.696  0.1275  0.5127  0.0462
 1461TIP3    H125798   1.253   2.314  15.751 -2.8350 -1.8054  0.6125
 1461TIP3    H225799   1.249   2.253  15.613  1.3081  0.4245 -0.6718
 1462TIP3   OH225800   5.565   2.547  11.857 -0.3441  0.2025 -0.1194
 1462TIP3    H125801   5.593   2.637  11.875  0.4509  0.0127 -0.4060
 1462TIP3    H225802   5.637   2.492  11.888 -1.0346 -0.3695  0.5091
 1463TIP3   OH225803   6.020   5.063  14.276 -0.7996  0.2632 -0.1143
 1463TIP3    H125804   6.050   5.083  14.187 -0.4223 -0.0715 -0.0635
 1463TIP3    H225805   6.038   5.143  14.326 -3.0693  1.2983 -0.8159
 1464TIP3   OH225806   1.503   0.871  17.257 -0.2823  0.4135 -0.0936
 1464TIP3    H125807   1.423   0.825  17.230 -0.0634  0.8828 -1.6052
 1464TIP3    H225808   1.492   0.960  17.227 -0.0344  1.0184  1.4890
 1465TIP3   OH225809   6.107   5.791   1.800 -0.6188  0.5979 -0.2003
 1465TIP3    H125810   6.114   5.784   1.895  0.0493 -1.1238 -0.3459
 1465TIP3    H225811   6.101   5.701   1.769  0.6632  1.0304 -1.8852
 1466TIP3   OH225812   5.857   2.207  14.703 -0.1111  0.1042 -0.6691
 1466TIP3    H125813   5.917   2.243  14.637 -0.3743  1.8222 -0.0393
 1466TIP3    H225814   5.770   2.217  14.664 -0.1744  0.0016 -0.5513
 1467TIP3   OH225815   4.538   3.918   1.327  0.2540 -0.1953 -0.3643
 1467TIP3    H125816   4.499   3.846   1.376 -0.2897  0.8662  0.7867
 1467TIP3    H225817   4.495   3.915   1.241 -0.0118 -1.0045 -0.2081
 1468TIP3   OH225818   5.163   6.749  16.880 -0.1280  0.1348 -0.0094
 1468TIP3    H125819   5.255   6.742  16.906 -0.2863  0.0991  0.5586
 1468TIP3    H225820   5.114   6.719  16.957 -0.6145  0.1167 -0.3202
 1469TIP3   OH225821   3.711   4.636   4.367 -0.6465  0.2337  0.2497
 1469TIP3    H125822   3.688   4.648   4.275 -0.2797 -0.8583  0.0019
 1469TIP3    H225823   3.628   4.618   4.411 -0.5030 -2.5482 -0.4429
 1470TIP3   OH225824   0.598   6.635   3.443  0.4557  0.5961  0.0443
 1470TIP3    H125825   0.595   6.594   3.529  1.7722 -0.5216 -0.4060
 1470TIP3    H225826   0.560   6.570   3.384 -0.0577  1.1861 -0.2910
 1471TIP3   OH225827   4.793   1.696  12.915 -0.0986 -0.4627 -0.2488
 1471TIP3    H125828   4.719   1.742  12.956  0.5217  0.2638  0.0770
 1471TIP3    H225829   4.790   1.608  12.953 -0.3136 -0.1924  0.3745
 1472TIP3   OH225830   3.550   4.456  16.812  0.7301 -0.0144  0.5842
 1472TIP3    H125831   3.573   4.507  16.890  0.8913  0.1866  0.4025
 1472TIP3    H225832   3.623   4.395  16.802  2.3890  2.1350 -1.3479
 1473TIP3   OH225833   3.002   6.641   4.403  0.1197  0.1494 -0.3893
 1473TIP3    H125834   3.056   6.637   4.324  2.1307  0.7108  0.8758
 1473TIP3    H225835   2.959   6.726   4.398  0.2609  0.1945 -0.8809
 1474TIP3   OH225836   2.845   3.230  12.670 -0.4466 -0.2915 -0.1818
 1474TIP3    H125837   2.935   3.226  12.702  0.3328  1.6659 -1.8996
 1474TIP3    H225838   2.846   3.301  12.606 -3.2275 -0.2412 -0.2700
 1475TIP3   OH225839   3.703   2.638   0.299  0.1282  0.3554 -0.1930
 1475TIP3    H125840   3.747   2.722   0.313  2.4327 -0.8281  0.1454
 1475TIP3    H225841   3.614   2.653   0.329  0.5021  2.6421 -0.0299
 1476TIP3   OH225842   4.075   3.857  13.362  0.4382  0.2579 -0.4686
 1476TIP3    H125843   4.081   3.952  13.350 -0.3353  0.0914 -2.5944
 1476TIP3    H225844   4.153   3.823  13.318  0.8498 -0.0993  0.5164
 1477TIP3   OH225845   5.859   0.668   3.502 -0.1843 -0.1149  0.5277
 1477TIP3    H125846   5.781   0.718   3.475  0.8089  0.8485 -0.6546
 1477TIP3    H225847   5.914   0.665   3.423  0.9640 -0.8205  1.3306
 1478TIP3   OH225848   6.555   5.473  17.038  0.2670  0.0381  0.1352
 1478TIP3    H125849   6.619   5.403  17.051 -0.1921 -0.4049  0.0412
 1478TIP3    H225850   6.493   5.463  17.111  0.0626  0.1953 -0.0156
 1479TIP3   OH225851   0.072   2.736   0.477  0.0464  0.1136  0.5249
 1479TIP3    H125852   0.151   2.736   0.533 -0.6155  0.6290  1.4939
 1479TIP3    H225853   0.073   2.651   0.434 -0.3782 -1.1134  2.7576
 1480TIP3   OH225854   4.803   0.415   1.355  0.4517  0.1749  0.0517
 1480TIP3    H125855   4.834   0.425   1.265  0.6721  1.6483  0.2707
 1480TIP3    H225856   4.760   0.498   1.375 -3.8149 -1.6809 -0.2523
 1481TIP3   OH225857   1.945   3.539  11.967 -0.1530  0.3939 -0.0890
 1481TIP3    H125858   1.866   3.488  11.951 -1.5204  2.3066  0.1564
 1481TIP3    H225859   1.934   3.618  11.915  0.9087  1.3679  1.0907
 1482TIP3   OH225860   1.651   1.420  10.476  0.1488 -0.0180  0.2723
 1482TIP3    H125861   1.745   1.422  10.496  0.8945 -0.2945 -2.7149
 1482TIP3    H225862   1.638   1.493  10.416 -1.7984  0.5958  1.3803
 1483TIP3   OH225863   6.618   6.203   3.546  0.1720 -0.3481 -0.1888
 1483TIP3    H125864   6.524   6.208   3.532 -0.0304  0.6096  1.2946
 1483TIP3    H225865   6.647   6.133   3.488 -1.6928 -1.8114  0.5370
 1484TIP3   OH225866   1.229   4.390  13.579 -0.0202 -0.5338 -0.5670
 1484TIP3    H125867   1.292   4.380  13.649 -1.2456  2.8593  1.2479
 1484TIP3    H225868   1.269   4.453  13.519 -1.0978  0.7355 -0.0105
 1485TIP3   OH225869   2.387   6.527  13.141 -0.4125  0.6213  0.3808
 1485TIP3    H125870   2.363   6.531  13.234 -1.5014 -0.6093  0.1777
 1485TIP3    H225871   2.306   6.551  13.095 -0.7208 -1.4963 -0.2866
 1486TIP3   OH225872   3.794   3.009  14.960  0.1133  0.3413  0.2303
 1486TIP3    H125873   3.799   3.062  15.040  0.9732 -0.5808  0.8217
 1486TIP3    H225874   3.829   2.923  14.986  0.1968 -0.0472 -1.0778
 1487TIP3   OH225875   5.747   0.219   1.738 -0.0298 -0.4479  0.5511
 1487TIP3    H125876   5.829   0.212   1.688  0.6454 -0.0830  1.5725
 1487TIP3    H225877   5.690   0.151   1.701 -0.6209  1.5771 -2.6233
 1488TIP3   OH225878   3.871   2.861   1.657 -0.1990 -0.1538 -0.5033
 1488TIP3    H125879   3.856   2.948   1.620 -0.0320  1.5155  2.9224
 1488TIP3    H225880   3.786   2.836   1.693 -0.5170 -1.9858 -2.3862
 1489TIP3   OH225881   2.294   4.652  15.182 -0.5991 -0.1151 -0.0063
 1489TIP3    H125882   2.323   4.736  15.145 -0.4004 -0.5610 -0.8923
 1489TIP3    H225883   2.359   4.631  15.248 -1.7154  1.3875  1.6668
 1490TIP3   OH225884   5.599   4.957  11.499 -0.2780 -0.2857 -0.0127
 1490TIP3    H125885   5.546   5.014  11.555 -1.5472 -1.0196 -0.4433
 1490TIP3    H225886   5.616   4.880  11.552  3.0811  1.1579  1.3049
 1491TIP3   OH225887   4.172   4.795   1.782  0.0237  0.4845 -0.7557
 1491TIP3    H125888   4.099   4.856   1.794  0.1009  0.5620 -0.6822
 1491TIP3    H225889   4.183   4.789   1.687  1.0612  1.8277 -0.7433
 1492TIP3   OH225890   4.981   2.008  16.240  0.0681  0.0390 -0.4747
 1492TIP3    H125891   4.915   1.939  16.232 -1.4777  1.1519  1.7519
 1492TIP3    H225892   4.955   2.074  16.177 -0.2625 -0.0381 -0.4191
 1493TIP3   OH225893   6.568   2.785   0.393  0.9926  0.3573 -0.0649
 1493TIP3    H125894   6.546   2.870   0.431  2.3793  0.7567 -0.1044
 1493TIP3    H225895   6.658   2.768   0.422  1.5942  0.0164 -1.9720
 1494TIP3   OH225896   5.324   0.782   6.622 -0.4251  0.6798  0.7279
 1494TIP3    H125897   5.249   0.824   6.665  0.2113  1.8423  0.7435
 1494TIP3    H225898   5.319   0.691   6.651 -2.2190  0.5610  0.1761
 1495TIP3   OH225899   1.286   0.446  11.762  0.0537  0.0206 -0.1905
 1495TIP3    H125900   1.236   0.512  11.809 -0.2602  0.3969 -1.0231
 1495TIP3    H225901   1.238   0.364  11.776  0.4036 -0.0314  0.7817
 1496TIP3   OH225902   5.094   2.947  17.192 -0.2530  0.7390  0.2738
 1496TIP3    H125903   5.039   3.026  17.186  0.6084  1.3952  0.7427
 1496TIP3    H225904   5.152   2.964  17.266  1.4158  0.6106 -0.9324
 1497TIP3   OH225905   5.390   1.548   2.172 -0.5450  0.3339  0.2505
 1497TIP3    H125906   5.341   1.517   2.096 -0.0517 -0.6276  0.3094
 1497TIP3    H225907   5.333   1.530   2.246 -1.0015  1.2166  0.1254
 1498TIP3   OH225908   2.359   6.396  12.754  0.3934 -0.0015  0.1767
 1498TIP3    H125909   2.309   6.470  12.719  1.2600  0.8845  0.7638
 1498TIP3    H225910   2.298   6.323  12.751 -0.8318  0.9703  0.5576
 1499TIP3   OH225911   3.167   5.197   4.150  0.1413  0.0560  0.9665
 1499TIP3    H125912   3.131   5.225   4.065 -2.7042 -2.3763  1.2400
 1499TIP3    H225913   3.166   5.276   4.203 -1.1553  0.9348 -0.2888
 1500TIP3   OH225914   4.718   4.931   0.584  0.1331  0.6190  0.0886
 1500TIP3    H125915   4.741   4.842   0.555 -0.1654  0.9317 -1.1863
 1500TIP3    H225916   4.797   4.982   0.568  0.3949  0.5372  1.0827
 1501TIP3   OH225917   0.288   4.940   6.211  0.4653 -0.1747  0.2706
 1501TIP3    H125918   0.297   4.881   6.286  0.4836 -0.4805  0.0261
 1501TIP3    H225919   0.269   5.025   6.251 -0.3713 -0.4980  0.5915
 1502TIP3   OH225920   0.845   2.870   4.401  0.1054 -0.6944  0.4701
 1502TIP3    H125921   0.906   2.864   4.474  0.5889 -1.1618  0.0305
 1502TIP3    H225922   0.876   2.945   4.350 -0.8182  0.2634  1.2638
 1503TIP3   OH225923   5.031   3.126  14.186  0.1642  0.6235  0.0399
 1503TIP3    H125924   5.084   3.047  14.182 -0.0868  0.3156  2.0208
 1503TIP3    H225925   5.073   3.180  14.253 -0.5559  1.5015 -0.1970
 1504TIP3   OH225926   5.303   3.356   6.358  0.4249 -0.0541 -0.3220
 1504TIP3    H125927   5.286   3.436   6.408  0.1362  0.4846 -1.2477
 1504TIP3    H225928   5.314   3.386   6.268 -1.0170 -1.1831 -0.9186
 1505TIP3   OH225929   3.742   2.339   4.770 -0.0484 -0.1862 -0.5712
 1505TIP3    H125930   3.751   2.244   4.760  0.7792 -0.0075 -1.6991
 1505TIP3    H225931   3.815   2.375   4.720 -0.0943  1.0401  0.2159
 1506TIP3   OH225932   4.622   5.593   5.141  0.4561  0.1731 -0.0410
 1506TIP3    H125933   4.627   5.650   5.064 -0.6366 -0.3620 -0.5219
 1506TIP3    H225934   4.687   5.629   5.201 -0.8894  2.5605  0.0919
 1507TIP3   OH225935   4.785   6.082  16.271 -0.5274  0.2223 -0.0066
 1507TIP3    H125936   4.765   6.092  16.178  3.2498 -0.2446 -1.0308
 1507TIP3    H225937   4.812   6.170  16.299 -0.8430  0.1782  0.4441
 1508TIP3   OH225938   5.967   3.242  15.965  0.4005  0.1485 -0.0045
 1508TIP3    H125939   5.987   3.149  15.953  1.6418  0.2914  0.8167
 1508TIP3    H225940   5.893   3.242  16.026  1.3414 -0.2969  1.1846
 1509TIP3   OH225941   5.275   4.923   0.542  0.2988 -0.4324 -0.2316
 1509TIP3    H125942   5.196   4.974   0.558  0.1857 -0.2009 -1.4373
 1509TIP3    H225943   5.258   4.877   0.460  1.4870 -0.2080 -0.6249
 1510TIP3   OH225944   6.239   2.259  14.303  0.1265  0.5078  0.2716
 1510TIP3    H125945   6.202   2.291  14.221 -0.8035  0.2765  0.5943
 1510TIP3    H225946   6.331   2.240  14.282 -0.5829 -1.5106 -1.2849
 1511TIP3   OH225947   1.210   5.993   0.788 -0.3270 -0.1442  0.5487
 1511TIP3    H125948   1.148   6.015   0.857 -1.8239 -0.5091 -0.6402
 1511TIP3    H225949   1.163   6.011   0.706  0.1937 -2.8143 -0.4377
 1512TIP3   OH225950   6.016   5.631  16.583  0.6501  0.0900  0.1353
 1512TIP3    H125951   6.041   5.538  16.591  0.9417  0.0809 -0.7512
 1512TIP3    H225952   5.931   5.629  16.540  0.1203  0.2042  1.1527
 1513TIP3   OH225953   3.662   2.921   6.416  0.0388 -0.3456 -0.0587
 1513TIP3    H125954   3.750   2.889   6.397  0.4720 -0.1772  1.5664
 1513TIP3    H225955   3.656   3.005   6.370  2.0434  1.3896  2.5558
 1514TIP3   OH225956   3.951   1.799  15.326 -0.2073  0.1128 -0.2695
 1514TIP3    H125957   3.926   1.721  15.276 -1.3487  0.0329  0.3891
 1514TIP3    H225958   3.870   1.849  15.336  0.4946  1.3747 -0.6309
 1515TIP3   OH225959   2.540   3.046  16.925 -0.2379 -0.0563 -0.2530
 1515TIP3    H125960   2.581   2.981  16.982  2.1751 -0.0352 -1.8100
 1515TIP3    H225961   2.470   2.997  16.881 -0.0675 -0.9133  0.3902
 1516TIP3   OH225962   0.981   0.889  13.622 -0.1147  0.0800  0.0309
 1516TIP3    H125963   0.955   0.813  13.570  0.6334 -0.6801  0.7316
 1516TIP3    H225964   1.056   0.926  13.576 -2.4217  2.4748 -2.1790
 1517TIP3   OH225965   6.102   1.372  12.125 -0.3051  0.0185 -0.7030
 1517TIP3    H125966   6.046   1.369  12.202 -2.1365  3.5518 -1.6670
 1517TIP3    H225967   6.090   1.287  12.083 -0.3000 -1.5044  2.1008
 1518TIP3   OH225968   6.642   2.446  16.428  1.1880  0.1041  0.0156
 1518TIP3    H125969   6.638   2.513  16.360  2.0986  1.4381  1.2087
 1518TIP3    H225970   6.582   2.378  16.398 -1.4571  2.3745 -0.2385
 1519TIP3   OH225971   3.318   2.555  12.782 -0.8798 -0.1907  0.5821
 1519TIP3    H125972   3.274   2.640  12.787  1.5236  1.1017  1.0634
 1519TIP3    H225973   3.388   2.567  12.719 -1.5801 -2.4192 -0.7504
 1520TIP3   OH225974   2.188   0.984  16.811 -0.4071 -0.3287  0.9090
 1520TIP3    H125975   2.148   0.935  16.883  0.9925 -0.2278  1.8088
 1520TIP3    H225976   2.227   0.916  16.755 -0.7315 -0.3620  0.7207
 1521TIP3   OH225977   1.673   5.034  16.875  0.0580  0.0221  0.1682
 1521TIP3    H125978   1.766   5.015  16.859 -0.1305 -1.7042  0.9694
 1521TIP3    H225979   1.630   5.009  16.794  0.3886  1.9996 -0.6765
 1522TIP3   OH225980   3.731   2.968  10.983 -0.3976 -0.1642  0.3709
 1522TIP3    H125981   3.755   2.991  11.072 -0.1879  0.5802  0.1315
 1522TIP3    H225982   3.725   2.873  10.983  1.8890 -0.3700  0.6327
 1523TIP3   OH225983   5.515   4.390  16.821  0.9797  0.2099  0.7375
 1523TIP3    H125984   5.557   4.309  16.851  2.4000  0.0632 -1.3980
 1523TIP3    H225985   5.581   4.458  16.839  1.2121  0.3407 -0.5254
 1524TIP3   OH225986   4.463   4.926  14.938  0.2405 -0.3660  0.8135
 1524TIP3    H125987   4.458   4.967  15.024  0.0313 -0.1889  0.7173
 1524TIP3    H225988   4.429   4.992  14.878 -2.2558 -1.4787  0.9061
 1525TIP3   OH225989   1.504   0.155   4.119 -0.5531 -0.0911  0.3852
 1525TIP3    H125990   1.472   0.109   4.041  2.7481 -0.1979 -1.0478
 1525TIP3    H225991   1.497   0.090   4.190 -0.6191 -1.1014 -0.5282
 1526TIP3   OH225992   0.428   3.403   0.596 -0.4924  0.1738 -0.2282
 1526TIP3    H125993   0.467   3.319   0.619  1.8385  0.5332 -2.3920
 1526TIP3    H225994   0.346   3.380   0.553 -0.5497 -0.9001  0.4174
 1527TIP3   OH225995   1.377   3.107  12.146  0.1296  0.6233  0.2925
 1527TIP3    H125996   1.389   3.014  12.165  0.1678  0.6726  0.5087
 1527TIP3    H225997   1.377   3.112  12.050 -0.9419  0.2558  0.2526
 1528TIP3   OH225998   1.038   5.049  15.300  0.7747  0.0322 -0.0586
 1528TIP3    H125999   0.972   5.118  15.296  0.3777 -0.3561 -0.3209
 1528TIP3    H226000   1.119   5.091  15.270  1.2927  1.2245  2.6905
 1529TIP3   OH226001   3.831   2.845   0.453  0.4348 -0.4416  0.0443
 1529TIP3    H126002   3.821   2.785   0.527  1.3812 -1.7152 -0.8136
 1529TIP3    H226003   3.862   2.927   0.492  0.6506 -1.0031  1.0847
 1530TIP3   OH226004   4.115   0.368   0.992 -0.1135  0.0804 -0.2434
 1530TIP3    H126005   4.075   0.344   0.909 -0.6789 -1.5309  0.4454
 1530TIP3    H226006   4.078   0.306   1.055  1.5398  0.1790  0.9007
 1531TIP3   OH226007   0.262   5.962   1.585 -0.1884  0.4071  0.3693
 1531TIP3    H126008   0.292   5.893   1.645 -0.8514 -0.1496  0.0897
 1531TIP3    H226009   0.201   5.916   1.526 -0.5035  1.2045  0.0673
 1532TIP3   OH226010   6.661   6.629   5.569  0.0865 -0.6644  0.4463
 1532TIP3    H126011   6.734   6.567   5.561 -0.3913 -1.4113  1.5978
 1532TIP3    H226012   6.583   6.574   5.569 -0.4765  0.0987 -0.3559
 1533TIP3   OH226013   2.402   4.246   4.759  0.4564 -0.4519  0.4846
 1533TIP3    H126014   2.495   4.264   4.764  0.2505  0.6215  0.7527
 1533TIP3    H226015   2.378   4.217   4.847  0.6793 -1.4786  0.2097
 1534TIP3   OH226016   1.618   1.794  13.992 -0.2357  0.2638  1.1524
 1534TIP3    H126017   1.540   1.740  14.004  0.5482 -0.8093  1.5349
 1534TIP3    H226018   1.645   1.817  14.081 -0.0544  0.5392  1.0272
 1535TIP3   OH226019   1.850   4.918   1.512 -0.4298 -0.0336  0.5517
 1535TIP3    H126020   1.835   4.933   1.419 -2.7566  0.4809  0.9499
 1535TIP3    H226021   1.894   4.998   1.543  0.5610 -0.3067 -0.1342
 1536TIP3   OH226022   2.285   4.899   6.718  0.3837  0.0573  0.0751
 1536TIP3    H126023   2.259   4.978   6.766  0.4897  0.7514 -0.9866
 1536TIP3    H226024   2.378   4.889   6.737  0.5065  0.5322 -0.2735
 1537TIP3   OH226025   2.946   0.640   3.201 -0.6505  0.3301 -1.0481
 1537TIP3    H126026   2.986   0.647   3.288 -0.4299  0.4933 -1.1623
 1537TIP3    H226027   2.997   0.699   3.146  2.5921 -3.4538 -2.5488
 1538TIP3   OH226028   2.341   1.329   5.898  0.1434  0.0847  0.4851
 1538TIP3    H126029   2.400   1.321   5.974  0.6330 -1.5714 -0.0195
 1538TIP3    H226030   2.389   1.286   5.827 -0.2244  1.7873 -0.8371
 1539TIP3   OH226031   1.015   5.532   3.411  0.1907 -0.0891 -0.2765
 1539TIP3    H126032   0.969   5.454   3.441  1.5142 -1.5717 -1.8822
 1539TIP3    H226033   1.104   5.501   3.394  1.5489  2.4078  1.6967
 1540TIP3   OH226034   6.470   0.388  15.970  0.5629  0.5403  0.1974
 1540TIP3    H126035   6.445   0.349  15.887  0.3399 -0.5826  0.7673
 1540TIP3    H226036   6.468   0.482  15.955 -1.1115  0.4008 -0.6026
 1541TIP3   OH226037   4.032   5.629  15.845  0.1312 -0.6766  0.2286
 1541TIP3    H126038   4.090   5.593  15.912  0.6121 -1.1716 -0.4364
 1541TIP3    H226039   3.979   5.694  15.891  2.1443  0.7971  0.5785
 1542TIP3   OH226040   5.564   1.393  15.794 -0.1159 -0.0123  0.5451
 1542TIP3    H126041   5.525   1.306  15.802 -0.8189  0.1316 -0.9696
 1542TIP3    H226042   5.616   1.388  15.714  1.5491  0.3604  1.5529
 1543TIP3   OH226043   4.687   5.452  11.852 -0.0516  0.3205  0.0226
 1543TIP3    H126044   4.718   5.453  11.762  0.8067 -0.4629  0.2904
 1543TIP3    H226045   4.592   5.460  11.845 -0.0702 -0.5646 -1.0075
 1544TIP3   OH226046   6.418   3.440   4.224 -0.1178  0.4239  0.8138
 1544TIP3    H126047   6.358   3.507   4.191 -0.5799 -0.0684  0.6385
 1544TIP3    H226048   6.484   3.431   4.155  0.1500  0.9534  0.9978
 1545TIP3   OH226049   6.137   3.576  16.527 -0.0920  0.1657  0.1408
 1545TIP3    H126050   6.067   3.510  16.524 -0.0847  0.1498  0.3209
 1545TIP3    H226051   6.107   3.640  16.591 -0.4153  0.7002 -0.5320
 1546TIP3   OH226052   0.880   1.119  12.543 -0.2729  0.1053 -1.2147
 1546TIP3    H126053   0.974   1.136  12.541 -0.3940  1.2040  0.3668
 1546TIP3    H226054   0.870   1.033  12.503  1.5348 -0.5535 -0.3421
 1547TIP3   OH226055   2.965   4.782   3.834  0.0060  0.2601  0.0334
 1547TIP3    H126056   2.980   4.876   3.846  1.2436  0.1297 -0.3299
 1547TIP3    H226057   2.871   4.771   3.845 -0.3283  1.7174 -1.0901
 1548TIP3   OH226058   4.805   4.520   6.544  0.0126  0.0279 -0.7367
 1548TIP3    H126059   4.719   4.527   6.504 -0.1464 -2.1498 -0.9237
 1548TIP3    H226060   4.837   4.434   6.516  0.8197 -0.6684  1.9945
 1549TIP3   OH226061   4.987   4.200  13.179  0.2303 -0.3969 -0.1501
 1549TIP3    H126062   4.980   4.105  13.188 -0.5845 -0.2370  1.1959
 1549TIP3    H226063   5.070   4.214  13.133 -0.2235 -1.7943 -1.4896
 1550TIP3   OH226064   1.738   6.577   3.044 -0.7115  0.0484 -0.0223
 1550TIP3    H126065   1.817   6.559   3.095 -1.0771  0.3340  0.6623
 1550TIP3    H226066   1.669   6.586   3.110 -1.2708  0.0305 -0.5989
 1551TIP3   OH226067   1.107   3.979  13.805  0.1023 -0.3093  0.1773
 1551TIP3    H126068   1.154   4.061  13.820  0.6539 -0.9863  2.5144
 1551TIP3    H226069   1.095   3.941  13.892 -3.0703 -1.1426 -0.4633
 1552TIP3   OH226070   3.506   4.544  15.533  0.3629  0.7406  0.7155
 1552TIP3    H126071   3.526   4.525  15.625  0.1967 -0.7226  0.4700
 1552TIP3    H226072   3.414   4.570  15.534  0.4864  1.1941  1.0060
 1553TIP3   OH226073   2.883   6.754  15.917  0.0275 -0.4008 -0.1195
 1553TIP3    H126074   2.902   6.660  15.910 -0.0569 -0.4401  0.1460
 1553TIP3    H226075   2.861   6.766  16.009  0.9067  0.0407  0.0413
 1554TIP3   OH226076   3.120   0.478   0.544  0.2768  0.7970 -0.3245
 1554TIP3    H126077   3.025   0.486   0.533 -0.0480 -1.2507  0.5099
 1554TIP3    H226078   3.142   0.547   0.607 -1.0858 -0.1815  1.3174
 1555TIP3   OH226079   5.824   4.667  16.703 -0.6619  0.1944  0.4779
 1555TIP3    H126080   5.731   4.686  16.693 -0.5162 -0.1123 -2.2254
 1555TIP3    H226081   5.864   4.752  16.720 -1.0282  1.1259 -2.6660
 1556TIP3   OH226082   6.004   2.553   4.110  1.4818  0.0863  0.7594
 1556TIP3    H126083   6.077   2.500   4.141  0.2413 -1.3064  1.4142
 1556TIP3    H226084   5.986   2.518   4.022  1.7488  0.5936  0.5002
 1557TIP3   OH226085   2.223   1.037   3.695  0.3679  0.0469  0.4661
 1557TIP3    H126086   2.239   1.128   3.719 -1.2776  1.1484 -2.1735
 1557TIP3    H226087   2.129   1.025   3.705  0.2112 -0.6131 -1.3234
 1558TIP3   OH226088   3.165   1.796  12.508  0.4881  0.6628  0.3224
 1558TIP3    H126089   3.177   1.864  12.574 -0.9263  0.1547  1.1508
 1558TIP3    H226090   3.236   1.810  12.445  3.1063 -0.0341  2.9470
 1559TIP3   OH226091   4.711   1.179  13.033  0.0787  0.5045 -0.0024
 1559TIP3    H126092   4.678   1.117  13.098 -3.7485  0.7348 -1.4526
 1559TIP3    H226093   4.700   1.135  12.949  2.1586  1.3003 -0.7490
 1560TIP3   OH226094   1.601   4.449   3.124 -0.3566 -0.0905  0.3686
 1560TIP3    H126095   1.540   4.501   3.177  0.0896  0.2395  0.5597
 1560TIP3    H226096   1.547   4.416   3.052 -0.7023  0.4239  0.3866
 1561TIP3   OH226097   3.817   3.830   5.719  0.0138 -0.2517 -0.0501
 1561TIP3    H126098   3.733   3.871   5.738  0.3216  0.5810 -0.4413
 1561TIP3    H226099   3.862   3.825   5.803  1.3155  3.2856 -0.3928
 1562TIP3   OH226100   5.480   4.951   2.478 -0.1063  0.2460 -0.1142
 1562TIP3    H126101   5.526   4.884   2.529 -1.7464  0.4783  1.7924
 1562TIP3    H226102   5.532   5.031   2.492  0.9622 -0.2436 -1.0923
 1563TIP3   OH226103   6.291   5.513   2.660  0.3934 -0.1064  0.7279
 1563TIP3    H126104   6.364   5.467   2.619 -0.9797  0.4626 -2.6389
 1563TIP3    H226105   6.227   5.445   2.679  0.3135 -0.1628  0.2582
 1564TIP3   OH226106   0.258   1.823   0.315 -0.6666  0.0117  0.1269
 1564TIP3    H126107   0.238   1.737   0.354 -1.7553 -0.0533 -0.5379
 1564TIP3    H226108   0.254   1.884   0.389 -1.7757 -0.2448  0.3026
 1565TIP3   OH226109   3.183   1.611   2.001 -0.0981  0.2951  0.1834
 1565TIP3    H126110   3.265   1.563   2.010 -0.2288  0.2863  1.4446
 1565TIP3    H226111   3.121   1.546   1.967  0.7947  0.7262 -2.4630
 1566TIP3   OH226112   4.056   6.769  15.572  0.7926  0.2276  0.0846
 1566TIP3    H126113   4.096   6.856  15.571  0.9677  0.1499  0.3938
 1566TIP3    H226114   3.998   6.769  15.495  1.0871  0.4755 -0.1406
 1567TIP3   OH226115   1.739   1.426  13.425  0.3353  0.0629 -0.2358
 1567TIP3    H126116   1.751   1.355  13.488 -0.0887  0.2414  0.0536
 1567TIP3    H226117   1.661   1.401  13.375  0.2167  0.2941 -0.1690
 1568TIP3   OH226118   5.725   4.259   4.363  0.1456 -0.1149  0.0191
 1568TIP3    H126119   5.658   4.317   4.400  0.0063 -1.5222  2.2231
 1568TIP3    H226120   5.675   4.194   4.313  0.1052  0.3623 -0.5625
 1569TIP3   OH226121   0.834   6.612  16.753 -0.6517  0.5625 -0.1161
 1569TIP3    H126122   0.839   6.707  16.743 -1.8554  0.8274  1.4923
 1569TIP3    H226123   0.917   6.587  16.794  0.7689  0.5136 -2.7573
 1570TIP3   OH226124   3.890   2.570  15.447 -0.1459 -0.1055  0.0645
 1570TIP3    H126125   3.812   2.621  15.469  0.0267  0.4741 -0.6523
 1570TIP3    H226126   3.952   2.589  15.518 -0.8398 -1.0400  0.9731
 1571TIP3   OH226127   2.799   6.746   0.763 -0.0270 -0.6004 -0.1606
 1571TIP3    H126128   2.842   6.788   0.688 -0.4943 -3.6169 -2.2966
 1571TIP3    H226129   2.779   6.819   0.822 -0.0316  2.0410 -3.1264
 1572TIP3   OH226130   3.065   5.186   4.547 -0.0586  0.6737 -0.3499
 1572TIP3    H126131   3.151   5.196   4.506  0.0658 -0.0226 -0.2652
 1572TIP3    H226132   3.015   5.262   4.517 -0.5868 -0.7004 -3.3290
 1573TIP3   OH226133   5.186   2.142   4.820  0.0341  0.2102 -0.2778
 1573TIP3    H126134   5.193   2.131   4.915  2.7405  0.1244 -0.4095
 1573TIP3    H226135   5.245   2.215   4.800 -0.6694  0.3862 -1.8903
 1574TIP3   OH226136   5.419   3.115   4.752  0.3905 -0.4562 -0.2742
 1574TIP3    H126137   5.439   3.201   4.789  1.9352 -0.7700 -0.3371
 1574TIP3    H226138   5.478   3.106   4.678 -0.1376 -1.3648 -0.6024
 1575TIP3   OH226139   6.020   5.341  11.489 -0.2666 -0.0369 -0.2699
 1575TIP3    H126140   5.944   5.284  11.502  0.5049 -0.7281  1.4168
 1575TIP3    H226141   5.992   5.402  11.420 -2.3615 -0.2514  0.3221
 1576TIP3   OH226142   4.291   0.755  14.833  0.0297  0.0088 -0.0522
 1576TIP3    H126143   4.239   0.811  14.891  0.0378 -1.2229  1.2055
 1576TIP3    H226144   4.227   0.712  14.777  0.0967  1.9895 -1.7418
 1577TIP3   OH226145   6.635   1.676   0.983 -0.1801 -0.0074 -0.1860
 1577TIP3    H126146   6.697   1.707   1.050 -1.9095  1.7317  0.6958
 1577TIP3    H226147   6.591   1.602   1.025  1.3773 -1.4186 -0.9100
 1578TIP3   OH226148   6.698   1.209   3.923 -0.1902 -0.4675 -0.4156
 1578TIP3    H126149   6.656   1.291   3.897 -0.3555 -0.8432 -1.3525
 1578TIP3    H226150   6.757   1.234   3.994 -0.5257  0.3970 -0.4323
 1579TIP3   OH226151   6.673   5.946   0.260 -0.2094 -0.0997 -0.0883
 1579TIP3    H126152   6.712   5.861   0.239 -1.2420 -1.2147  2.1188
 1579TIP3    H226153   6.743   6.009   0.245  1.1758 -1.5537 -0.0495
 1580TIP3   OH226154   3.267   1.207  12.254 -0.2887 -0.1082  0.6438
 1580TIP3    H126155   3.275   1.298  12.282  1.2917  0.1859 -0.5928
 1580TIP3    H226156   3.349   1.166  12.282 -1.8028 -1.7924  3.1054
 1581TIP3   OH226157   0.587   1.347   5.075 -0.1814  0.1249 -0.0526
 1581TIP3    H126158   0.505   1.350   5.123 -0.1270 -0.3644  0.0673
 1581TIP3    H226159   0.567   1.391   4.992 -0.4623  0.3379  0.1260
 1582TIP3   OH226160   1.370   3.627  10.718 -0.1427 -0.0393 -0.4111
 1582TIP3    H126161   1.453   3.582  10.737  0.9133  1.5472 -1.0206
 1582TIP3    H226162   1.371   3.639  10.623 -0.1186  1.6911 -0.2256
 1583TIP3   OH226163   4.264   2.696   3.323  0.1292  0.1206  0.5608
 1583TIP3    H126164   4.314   2.643   3.385  0.8971 -0.9357 -0.8959
 1583TIP3    H226165   4.266   2.646   3.241 -0.5917  1.6021 -0.4134
 1584TIP3   OH226166   5.059   6.452  13.032  0.0057 -0.4574  0.5175
 1584TIP3    H126167   5.125   6.459  13.101  0.3749 -2.9809  0.5456
 1584TIP3    H226168   5.110   6.453  12.951  0.2160 -2.6567  0.5466
 1585TIP3   OH226169   4.880   2.390  15.621  0.1473 -0.3739  0.0197
 1585TIP3    H126170   4.911   2.368  15.709  1.3104  1.0951  0.0177
 1585TIP3    H226171   4.823   2.317  15.597  1.8238 -2.0960  0.9473
 1586TIP3   OH226172   4.206   3.865  11.189  0.0004  0.5276 -0.4003
 1586TIP3    H126173   4.238   3.865  11.099  0.0338  0.5225 -0.3879
 1586TIP3    H226174   4.275   3.824  11.241  0.1372  0.8551 -0.3179
 1587TIP3   OH226175   1.516   1.624   5.090  0.3458  0.2340  0.5711
 1587TIP3    H126176   1.530   1.536   5.055  0.0719  1.0573 -1.8248
 1587TIP3    H226177   1.427   1.623   5.124  0.2571 -0.3430  0.3309
 1588TIP3   OH226178   2.075   2.705  12.226  0.5007 -0.4277  0.2180
 1588TIP3    H126179   1.994   2.689  12.276  0.9438  0.0599  1.1249
 1588TIP3    H226180   2.129   2.627  12.243  0.0438 -0.9688 -0.7714
 1589TIP3   OH226181   3.462   3.440   0.163 -0.1358  0.6053  0.3442
 1589TIP3    H126182   3.426   3.466   0.078 -0.7869  0.6426  0.6195
 1589TIP3    H226183   3.526   3.372   0.142  0.8145  1.6751 -0.2938
 1590TIP3   OH226184   3.438   3.134  10.755  0.0835  0.0920 -0.3711
 1590TIP3    H126185   3.374   3.064  10.769  1.3346 -1.4385 -1.8157
 1590TIP3    H226186   3.388   3.206  10.717 -0.8761 -0.9151 -1.0668
 1591TIP3   OH226187   2.961   5.316  14.434  0.1864  0.2874  0.3964
 1591TIP3    H126188   3.056   5.305  14.434  0.2037  0.2617 -0.9625
 1591TIP3    H226189   2.940   5.340  14.524  1.2459 -1.5503  1.1834
 1592TIP3   OH226190   2.829   3.334   4.076 -0.1307  0.0900 -0.2743
 1592TIP3    H126191   2.824   3.238   4.071 -1.5827  0.2211 -2.3652
 1592TIP3    H226192   2.739   3.363   4.086  0.0746  1.2749 -1.4832
 1593TIP3   OH226193   6.334   3.778  15.470  0.2015 -0.0381 -0.3249
 1593TIP3    H126194   6.363   3.720  15.541  1.3577  0.6151 -0.2517
 1593TIP3    H226195   6.257   3.823  15.506  0.4803 -0.0738  0.3320
 1594TIP3   OH226196   3.902   0.293   6.664 -0.3403  0.7915  0.4506
 1594TIP3    H126197   3.877   0.202   6.649  0.4692  0.6371 -0.0302
 1594TIP3    H226198   3.837   0.344   6.615 -0.6359  0.4657  0.4981
 1595TIP3   OH226199   4.006   2.953  11.090 -0.9275 -0.5894  0.5727
 1595TIP3    H126200   3.959   2.914  11.015 -2.5917  1.1417  0.6438
 1595TIP3    H226201   3.960   2.920  11.167 -0.3573 -0.9346  0.7723
 1596TIP3   OH226202   1.637   6.036  14.122 -0.3131  0.3213  0.0542
 1596TIP3    H126203   1.720   5.991  14.106 -0.8629 -0.0313 -2.1536
 1596TIP3    H226204   1.651   6.083  14.204  1.6398 -0.7014  0.3725
 1597TIP3   OH226205   5.426   6.730  16.743  0.3829 -0.5514 -0.1381
 1597TIP3    H126206   5.517   6.745  16.768 -0.0934  0.4983  1.0535
 1597TIP3    H226207   5.404   6.805  16.688 -0.2724  0.1340  1.0304
 1598TIP3   OH226208   3.357   4.064  11.373 -0.6176 -0.7043 -0.7854
 1598TIP3    H126209   3.389   3.990  11.321  0.3591 -1.4953  0.8709
 1598TIP3    H226210   3.430   4.125  11.375 -0.7681 -0.5280 -0.6211
 1599TIP3   OH226211   0.886   1.208  15.980 -0.1274 -0.1601 -0.1291
 1599TIP3    H126212   0.934   1.287  15.956 -1.1177  0.9647  1.3545
 1599TIP3    H226213   0.822   1.197  15.911  0.5807 -0.1771 -0.7939
 1600TIP3   OH226214   5.472   1.842   3.440  1.0298  0.0067  0.4166
 1600TIP3    H126215   5.509   1.853   3.353 -1.3638 -1.0936 -0.8243
 1600TIP3    H226216   5.455   1.931   3.470  1.3888  0.3798 -0.4601
 1601TIP3   OH226217   4.868   1.423   1.647  0.2222 -0.0887  0.2915
 1601TIP3    H126218   4.947   1.373   1.671  0.1228 -0.6278 -0.4616
 1601TIP3    H226219   4.886   1.454   1.558  0.5696  1.8423  0.9769
 1602TIP3   OH226220   3.641   4.855   3.755  0.3748 -0.6513 -0.7615
 1602TIP3    H126221   3.600   4.792   3.815  0.5496 -0.0884 -0.0303
 1602TIP3    H226222   3.576   4.924   3.746  0.7338 -0.2689 -0.4441
 1603TIP3   OH226223   6.409   6.093  15.866 -0.1817  0.0743  0.0720
 1603TIP3    H126224   6.358   6.128  15.938  0.1462  0.1332  0.2763
 1603TIP3    H226225   6.345   6.052  15.808 -0.3785 -0.5163  0.7026
 1604TIP3   OH226226   1.306   3.435  13.148 -0.0307  0.1982  0.3031
 1604TIP3    H126227   1.311   3.340  13.161 -0.2682 -0.2268 -2.2250
 1604TIP3    H226228   1.229   3.448  13.093 -0.0071  1.8851  0.6196
 1605TIP3   OH226229   4.754   3.146  12.679 -0.0706  0.0357  0.7368
 1605TIP3    H126230   4.826   3.206  12.659  0.1466 -0.4761 -0.0922
 1605TIP3    H226231   4.709   3.134  12.595 -0.1856 -0.8422  0.9142
 1606TIP3   OH226232   5.419   0.926  14.269 -0.3700 -0.8198 -0.0617
 1606TIP3    H126233   5.494   0.970  14.230  0.2143 -0.9693  0.8788
 1606TIP3    H226234   5.436   0.833  14.258 -1.1279 -0.8534 -1.1468
 1607TIP3   OH226235   0.694   5.579   5.158  0.0926 -0.0019  0.1800
 1607TIP3    H126236   0.644   5.636   5.098 -0.1798  1.7097  1.9247
 1607TIP3    H226237   0.784   5.583   5.125  0.1901  1.9693  0.5532
 1608TIP3   OH226238   4.164   1.493  16.261  0.2414 -0.6039  0.1354
 1608TIP3    H126239   4.189   1.514  16.171  1.0409  1.6077  0.8057
 1608TIP3    H226240   4.246   1.468  16.303  0.4988  1.4605  0.9915
 1609TIP3   OH226241   5.413   3.253   5.768 -0.1282 -0.0637  0.4857
 1609TIP3    H126242   5.426   3.294   5.683  0.7924 -2.8110 -0.8179
 1609TIP3    H226243   5.498   3.262   5.812 -0.7222  1.7177  1.3506
 1610TIP3   OH226244   3.745   1.774   3.571 -0.1631  0.0060 -0.0811
 1610TIP3    H126245   3.684   1.711   3.609 -1.4260  0.5572 -1.0939
 1610TIP3    H226246   3.829   1.728   3.569 -1.0323 -1.6523 -0.7604
 1611TIP3   OH226247   6.390   4.096   4.808  0.0386 -0.0021  0.4916
 1611TIP3    H126248   6.369   4.173   4.755 -0.2364 -0.7339 -0.4878
 1611TIP3    H226249   6.477   4.070   4.780 -1.0214 -1.7891 -1.3748
 1612TIP3   OH226250   4.280   2.810  12.277  0.6344 -0.4914  0.3231
 1612TIP3    H126251   4.240   2.766  12.202 -0.0451 -0.5748  0.7250
 1612TIP3    H226252   4.367   2.835  12.247  0.2840 -0.3060 -0.5773
 1613TIP3   OH226253   5.309   1.479  10.678  0.3836  0.2073  0.7973
 1613TIP3    H126254   5.350   1.563  10.699  1.1561  0.2998 -0.9215
 1613TIP3    H226255   5.349   1.453  10.595 -2.1930 -0.2727 -0.3870
 1614TIP3   OH226256   3.946   6.771  12.773 -0.0590 -0.4701  0.3030
 1614TIP3    H126257   4.012   6.763  12.842 -0.7701 -0.7114  0.9623
 1614TIP3    H226258   3.892   6.846  12.799  0.3170  0.1166 -0.5556
 1615TIP3   OH226259   3.471   2.677  12.574  0.1716 -0.7857 -0.3602
 1615TIP3    H126260   3.552   2.632  12.547  0.5995 -0.7330  0.7913
 1615TIP3    H226261   3.414   2.672  12.497  0.5792 -2.4558 -0.5910
 1616TIP3   OH226262   6.431   1.255  17.132  0.4955 -0.1024 -0.6603
 1616TIP3    H126263   6.399   1.200  17.061  2.0608 -1.8570 -0.0763
 1616TIP3    H226264   6.526   1.258  17.119  1.1252 -2.2432  2.4732
 1617TIP3   OH226265   2.581   6.202   1.847 -0.1285  0.3467  0.1251
 1617TIP3    H126266   2.586   6.297   1.852 -1.3851  0.5006 -0.9516
 1617TIP3    H226267   2.646   6.177   1.781 -0.9769  0.6427 -0.8513
 1618TIP3   OH226268   5.816   3.584  14.506 -0.2880 -0.3857 -0.0361
 1618TIP3    H126269   5.802   3.640  14.582  1.8024  2.2974 -1.4458
 1618TIP3    H226270   5.898   3.538  14.525 -1.0745 -1.6748  0.3490
 1619TIP3   OH226271   3.785   3.659   6.245 -0.1345  0.0923 -0.5330
 1619TIP3    H126272   3.842   3.735   6.252 -0.6900  0.5176 -0.5980
 1619TIP3    H226273   3.842   3.589   6.213  0.0504  0.8587 -1.9517
 1620TIP3   OH226274   5.424   2.139   0.725  0.1190  0.2623  0.1406
 1620TIP3    H126275   5.478   2.137   0.646  1.1878 -1.7230  0.8620
 1620TIP3    H226276   5.474   2.191   0.787  0.5946 -0.4615  0.3746
 1621TIP3   OH226277   0.732   0.399   1.834  0.6704  0.5401 -0.3039
 1621TIP3    H126278   0.707   0.486   1.803  2.3633  0.6692 -1.4370
 1621TIP3    H226279   0.690   0.339   1.772 -1.1677  0.4511  0.9450
 1622TIP3   OH226280   4.410   0.383   1.367  0.2310  0.1381 -0.7122
 1622TIP3    H126281   4.424   0.313   1.431 -0.0638 -0.4781 -1.3097
 1622TIP3    H226282   4.341   0.437   1.405 -0.6490 -0.7850 -0.9536
 1623TIP3   OH226283   3.384   5.791   4.380  0.3449  0.1004  0.5678
 1623TIP3    H126284   3.400   5.777   4.287 -1.5187  0.5972  0.1307
 1623TIP3    H226285   3.468   5.773   4.422  1.3041  0.1673 -1.2307
 1624TIP3   OH226286   2.047   1.123  17.220  0.3944 -0.2783 -0.6372
 1624TIP3    H126287   2.142   1.136  17.220  0.2142  1.2741 -1.6165
 1624TIP3    H226288   2.012   1.200  17.176 -1.4129 -0.3310  0.5858
 1625TIP3   OH226289   1.137   2.563  12.059 -0.0614 -0.0301  0.2432
 1625TIP3    H126290   1.114   2.615  12.137  1.7967  1.4413 -0.1256
 1625TIP3    H226291   1.128   2.472  12.088 -4.8143  0.2390  0.5321
 1626TIP3   OH226292   3.590   6.617   0.035 -0.4889  0.1244 -0.0521
 1626TIP3    H126293   3.536   6.574  -0.032 -0.8507  1.2534 -0.5264
 1626TIP3    H226294   3.570   6.710   0.024 -0.4071  0.3450  1.5130
 1627TIP3   OH226295   1.830   3.551   1.053 -0.4371  0.2804  0.8970
 1627TIP3    H126296   1.837   3.527   1.145 -1.6014  0.6828  1.1111
 1627TIP3    H226297   1.749   3.602   1.048 -1.2681 -1.0944 -0.6182
 1628TIP3   OH226298   5.700   2.861   0.986 -0.5033 -0.1041 -0.0121
 1628TIP3    H126299   5.633   2.902   0.931 -1.7422 -1.7539  0.1826
 1628TIP3    H226300   5.668   2.873   1.075  1.4066  2.3971  0.4387
 1629TIP3   OH226301   2.686   3.644   2.932  0.0105 -0.9651  0.4165
 1629TIP3    H126302   2.590   3.642   2.941  0.0505 -2.1346  0.7643
 1629TIP3    H226303   2.702   3.595   2.851  0.2608  0.2144 -0.2607
 1630TIP3   OH226304   2.857   2.444  13.254 -0.4215  0.2128 -0.2250
 1630TIP3    H126305   2.841   2.461  13.161  0.3937 -0.8591 -0.5721
 1630TIP3    H226306   2.778   2.401  13.285 -0.1646 -0.6586 -0.7590
 1631TIP3   OH226307   5.508   1.938   2.590  0.1619  0.1913  0.2363
 1631TIP3    H126308   5.555   1.854   2.595  0.0138  0.1362  0.8919
 1631TIP3    H226309   5.417   1.913   2.572  0.4615  0.3278 -1.6224
 1632TIP3   OH226310   5.819   6.698   1.944 -0.0716 -0.1097  0.3608
 1632TIP3    H126311   5.832   6.647   1.863  0.2863 -3.2648  2.2309
 1632TIP3    H226312   5.724   6.708   1.950 -0.0710  0.7653 -0.7454
 1633TIP3   OH226313   4.464   3.526  12.973  0.4666  0.5381 -0.2156
 1633TIP3    H126314   4.553   3.547  13.001  1.0229  0.8694 -2.0393
 1633TIP3    H226315   4.421   3.611  12.965  0.5919  0.5342 -1.0953
 1634TIP3   OH226316   4.742   2.824   3.248 -0.4750 -0.3146  0.2148
 1634TIP3    H126317   4.796   2.857   3.176 -0.7049 -2.0990 -0.8252
 1634TIP3    H226318   4.804   2.782   3.306 -0.4806 -0.3109  0.2235
 1635TIP3   OH226319   6.480   2.137  11.506 -0.0328 -0.0604  0.1110
 1635TIP3    H126320   6.416   2.123  11.436  0.0159  0.6097 -0.0695
 1635TIP3    H226321   6.496   2.049  11.540 -1.4933 -0.1940  0.5571
 1636TIP3   OH226322   1.409   3.871   4.031 -0.4349  0.7966  0.2471
 1636TIP3    H126323   1.459   3.913   3.961  0.9585  0.0330  0.7330
 1636TIP3    H226324   1.318   3.872   4.001  0.1126  0.5911 -1.5185
 1637TIP3   OH226325   0.951   6.111  12.857  0.1405  0.4165 -0.1188
 1637TIP3    H126326   1.012   6.060  12.910  1.1391  0.4236 -1.1995
 1637TIP3    H226327   0.888   6.147  12.919 -0.5884 -2.0675  0.6955
 1638TIP3   OH226328   3.795   0.893  15.514 -0.6349  0.2238  0.1688
 1638TIP3    H126329   3.709   0.873  15.476 -0.9516  1.8334 -0.0301
 1638TIP3    H226330   3.832   0.958  15.455  0.9777 -0.8397 -0.0375
 1639TIP3   OH226331   0.232   0.173   3.155  0.3800 -0.5164  0.0121
 1639TIP3    H126332   0.284   0.093   3.157  2.0412  0.4969 -0.7603
 1639TIP3    H226333   0.185   0.174   3.238 -2.7963 -4.2201 -1.4250
 1640TIP3   OH226334   6.207   0.190  12.059 -0.1631  0.1503 -0.5388
 1640TIP3    H126335   6.157   0.111  12.077  0.2811 -0.1663 -0.6878
 1640TIP3    H226336   6.248   0.213  12.142  0.8810 -0.6062 -0.8236
 1641TIP3   OH226337   0.795   5.017  14.459 -0.4179 -0.2741  0.3451
 1641TIP3    H126338   0.824   5.041  14.547 -0.1036  0.8329 -0.0440
 1641TIP3    H226339   0.847   4.940  14.437 -1.0077 -0.9900  1.4006
 1642TIP3   OH226340   4.839   6.445   7.062  0.6681  0.3515  0.2779
 1642TIP3    H126341   4.897   6.370   7.054 -0.0362 -0.0084 -2.1721
 1642TIP3    H226342   4.882   6.514   7.011 -0.8151  0.1743 -1.3223
 1643TIP3   OH226343   4.438   3.351   3.488  0.4722  0.1713 -0.1900
 1643TIP3    H126344   4.465   3.406   3.561 -1.2842  0.9741 -0.1008
 1643TIP3    H226345   4.520   3.318   3.451  1.4009 -0.5326  2.3067
 1644TIP3   OH226346   3.026   0.625   5.038 -0.4342 -0.5843 -0.5915
 1644TIP3    H126347   3.057   0.534   5.032 -0.6592 -0.6107 -1.4629
 1644TIP3    H226348   3.106   0.677   5.037 -0.3611 -0.6977 -1.8472
 1645TIP3   OH226349   2.855   6.034  14.183  0.5816 -0.5225 -0.7445
 1645TIP3    H126350   2.879   6.083  14.104  0.2805 -1.7500 -1.6389
 1645TIP3    H226351   2.938   6.017  14.227  0.9383 -1.1789 -1.6412
 1646TIP3   OH226352   5.761   4.109  16.482  0.0196  0.2061  0.1524
 1646TIP3    H126353   5.844   4.111  16.433  1.8170  0.8109  2.9763
 1646TIP3    H226354   5.767   4.029  16.535 -1.7290 -0.2803 -0.3308
 1647TIP3   OH226355   1.149   0.647  11.936  0.0757  0.4238  0.3560
 1647TIP3    H126356   1.071   0.700  11.919 -1.1609 -0.2349  3.4247
 1647TIP3    H226357   1.211   0.708  11.976  0.6680  0.6414 -0.8494
 1648TIP3   OH226358   5.322   3.065  15.032  0.6219  0.1062  0.2694
 1648TIP3    H126359   5.327   3.133  14.965 -0.8460 -2.0454 -2.2551
 1648TIP3    H226360   5.336   2.983  14.983  0.8864 -1.5116  2.8746
 1649TIP3   OH226361   0.482   4.575   3.942 -0.1277  0.4075 -0.0753
 1649TIP3    H126362   0.425   4.500   3.961 -1.0356  0.5919 -1.8784
 1649TIP3    H226363   0.422   4.650   3.936  0.3957  0.7686 -1.0800
 1650TIP3   OH226364   0.403   1.071   0.613 -0.4430 -0.1945 -0.3782
 1650TIP3    H126365   0.431   1.112   0.695  2.2641 -0.6740 -0.9745
 1650TIP3    H226366   0.433   1.132   0.545 -1.5109 -0.4281 -1.0656
 1651TIP3   OH226367   3.050   3.398  11.933  0.2104  0.3860  0.1035
 1651TIP3    H126368   2.971   3.411  11.881  0.7054  0.8668 -0.5476
 1651TIP3    H226369   3.019   3.363  12.016 -0.5997 -0.3347 -0.4941
 1652TIP3   OH226370   2.506   1.958  14.459 -0.2697 -0.8441 -0.0112
 1652TIP3    H126371   2.538   2.008  14.384 -0.6646 -0.4771  0.0616
 1652TIP3    H226372   2.479   2.025  14.523 -2.8022 -1.0881 -0.7445
 1653TIP3   OH226373   4.047   5.874   6.307 -0.1407  0.6426  0.1561
 1653TIP3    H126374   4.019   5.871   6.216 -2.8002  3.1312  0.7168
 1653TIP3    H226375   4.005   5.798   6.347 -0.3327  0.4476 -0.4033
 1654TIP3   OH226376   5.317   0.878   1.968  0.4828  0.4909 -0.0734
 1654TIP3    H126377   5.402   0.891   2.009  0.7274 -0.0842 -0.3864
 1654TIP3    H226378   5.307   0.953   1.909  1.3262 -0.0638 -0.9472
 1655TIP3   OH226379   0.813   5.827  17.138  0.4894  0.0169  0.2267
 1655TIP3    H126380   0.775   5.909  17.106  1.6494  0.1547 -0.9070
 1655TIP3    H226381   0.888   5.854  17.191  1.3973 -0.2797 -0.8496
 1656TIP3   OH226382   3.991   1.575  16.955 -0.3865  0.3635  0.1077
 1656TIP3    H126383   3.953   1.663  16.949  0.2901  0.6154 -0.7729
 1656TIP3    H226384   4.013   1.565  17.047  0.6005  1.5981  0.0344
 1657TIP3   OH226385   3.923   0.133  15.757 -0.1221 -0.3655 -0.1327
 1657TIP3    H126386   3.980   0.071  15.713 -1.0962 -1.0661 -0.4560
 1657TIP3    H226387   3.878   0.178  15.685  2.1157  2.3178 -0.0084
 1658TIP3   OH226388   4.374   5.710   4.340  0.0635 -0.0463 -0.3328
 1658TIP3    H126389   4.341   5.763   4.413 -2.6973 -1.5612 -0.3500
 1658TIP3    H226390   4.453   5.669   4.375  0.6334  1.7525  0.6527
 1659TIP3   OH226391   3.447   0.845   3.098 -0.0618  0.2826  0.5049
 1659TIP3    H126392   3.447   0.933   3.136  1.4142  0.9065 -0.8382
 1659TIP3    H226393   3.472   0.858   3.007 -2.4810 -1.2746 -0.4692
 1660TIP3   OH226394   2.860   3.023   1.840 -0.4278  0.1447 -0.1646
 1660TIP3    H126395   2.900   2.939   1.817 -0.1953 -0.7267  2.9472
 1660TIP3    H226396   2.928   3.069   1.889 -1.0955  1.4559 -0.4366
 1661TIP3   OH226397   4.951   1.861   3.930  0.4093  0.5174 -0.2454
 1661TIP3    H126398   5.032   1.818   3.903  1.2547  0.0554  2.6978
 1661TIP3    H226399   4.923   1.909   3.852  3.2385  0.3063 -1.5424
 1662TIP3   OH226400   4.642   3.556   6.256 -0.0730 -0.2414 -0.1016
 1662TIP3    H126401   4.706   3.557   6.327 -1.1748  0.4612  0.9129
 1662TIP3    H226402   4.559   3.535   6.298 -0.4935 -1.4337 -1.4467
 1663TIP3   OH226403   3.501   0.474   2.726 -0.0339 -0.1768 -0.5377
 1663TIP3    H126404   3.406   0.473   2.737  0.0343 -0.2809  0.0588
 1663TIP3    H226405   3.518   0.408   2.659 -0.0591 -3.1042  2.1162
 1664TIP3   OH226406   3.421   2.769  15.835 -0.1347  0.1140 -0.2788
 1664TIP3    H126407   3.434   2.676  15.856 -2.0755 -0.2173 -0.3270
 1664TIP3    H226408   3.455   2.816  15.911  2.0728 -0.5363 -0.7999
 1665TIP3   OH226409   4.726   5.819  14.368 -0.2274  0.4432  0.2428
 1665TIP3    H126410   4.799   5.815  14.306 -0.2052  0.0471  0.2908
 1665TIP3    H226411   4.716   5.912  14.388 -1.6096  0.8496 -1.9906
 1666TIP3   OH226412   5.747   5.855  12.943  0.0433  0.0792 -0.5487
 1666TIP3    H126413   5.778   5.795  13.011  2.3899  1.9930  0.1890
 1666TIP3    H226414   5.718   5.933  12.990 -0.4823  0.5599 -1.6287
 1667TIP3   OH226415   3.020   1.684  17.034 -0.6389 -0.1179 -0.2690
 1667TIP3    H126416   2.964   1.624  17.083 -0.7335  0.4282  0.2970
 1667TIP3    H226417   2.960   1.749  16.999 -0.1996  1.6248  1.9843
 1668TIP3   OH226418   4.635   3.508  12.733 -0.0054  0.5686 -0.1532
 1668TIP3    H126419   4.595   3.424  12.712  1.1016  0.6762 -3.1799
 1668TIP3    H226420   4.561   3.566  12.750 -0.9102 -0.4411 -0.5116
 1669TIP3   OH226421   0.323   4.350  13.404 -0.3666  0.8853 -0.2633
 1669TIP3    H126422   0.228   4.358  13.404 -0.8660 -1.8878  3.9479
 1669TIP3    H226423   0.340   4.259  13.427  3.1516  1.9839  2.6064
 1670TIP3   OH226424   3.575   4.852  12.472  0.3052  0.5174 -0.7046
 1670TIP3    H126425   3.634   4.839  12.547 -3.3373 -1.8956  2.0791
 1670TIP3    H226426   3.598   4.783  12.411 -0.4751 -1.4401  1.0816
 1671TIP3   OH226427   5.231   1.067   2.908 -0.2883 -0.0449 -0.1159
 1671TIP3    H126428   5.144   1.081   2.870  0.0686  0.1195 -0.8792
 1671TIP3    H226429   5.292   1.096   2.841  0.4077 -1.7407 -0.2752
 1672TIP3   OH226430   6.093   3.788   0.019  0.6106  0.4304  0.5366
 1672TIP3    H126431   6.136   3.702   0.013  0.9035  0.5816  0.4587
 1672TIP3    H226432   6.061   3.805  -0.070 -2.2450 -1.0213  1.1641
 1673TIP3   OH226433   4.222   1.546  11.783 -0.0983 -0.2514 -0.0123
 1673TIP3    H126434   4.285   1.481  11.753  0.8013  0.8210 -0.5678
 1673TIP3    H226435   4.262   1.630  11.758 -0.7416  0.5576  1.5624
 1674TIP3   OH226436   2.484   2.999  17.210  0.0778  0.5089 -0.0490
 1674TIP3    H126437   2.541   3.018  17.285  1.9276  2.2509 -1.7607
 1674TIP3    H226438   2.466   3.085  17.171  2.9287 -0.4638 -4.1585
 1675TIP3   OH226439   3.984   1.729  14.002  0.0681 -0.0314  0.7062
 1675TIP3    H126440   4.033   1.655  13.966 -0.2403  1.0217 -2.1832
 1675TIP3    H226441   4.045   1.802  13.996 -1.1553  0.9211 -1.2562
 1676TIP3   OH226442   6.422   2.947  14.364 -0.6723 -0.1597  0.4269
 1676TIP3    H126443   6.356   2.890  14.324 -0.8607 -0.6126  1.3374
 1676TIP3    H226444   6.383   3.034  14.363  0.1149  0.2190 -2.0918
 1677TIP3   OH226445   4.476   0.794  12.810 -0.2240  0.1242  0.0017
 1677TIP3    H126446   4.473   0.730  12.880 -0.4096  0.3757  0.2271
 1677TIP3    H226447   4.519   0.749  12.737  0.4077  0.0182  0.4364
 1678TIP3   OH226448   1.592   6.160   5.934  0.1171  0.1640  0.4579
 1678TIP3    H126449   1.649   6.131   6.006 -0.3154 -0.7639  0.4412
 1678TIP3    H226450   1.547   6.080   5.906 -0.3898  0.6895 -0.2468
 1679TIP3   OH226451   3.970   4.672   5.473 -0.5478 -0.1898  0.3329
 1679TIP3    H126452   4.045   4.669   5.413 -2.3609  1.2435 -2.1920
 1679TIP3    H226453   3.989   4.745   5.531 -0.4189  0.8831 -0.9976
 1680TIP3   OH226454   2.903   3.867   0.675 -0.2242  0.2474  0.0217
 1680TIP3    H126455   2.844   3.939   0.654  0.5933  0.8181 -0.3633
 1680TIP3    H226456   2.937   3.887   0.762  0.3087  0.5403 -0.2499
 1681TIP3   OH226457   3.590   4.985   1.724  0.2142  0.2219 -0.6277
 1681TIP3    H126458   3.649   5.057   1.702 -0.7054  0.8793 -1.0504
 1681TIP3    H226459   3.585   4.933   1.643 -3.0448  2.5522 -2.1669
 1682TIP3   OH226460   5.663   2.157   2.162 -0.6662 -0.3931  0.0833
 1682TIP3    H126461   5.670   2.247   2.193 -0.0108  0.2675 -1.8453
 1682TIP3    H226462   5.636   2.107   2.240 -0.0102  1.2715  1.4450
 1683TIP3   OH226463   4.923   6.151   6.105  0.0042 -0.4990 -0.3735
 1683TIP3    H126464   5.002   6.199   6.131 -0.3491 -1.0508  1.9419
 1683TIP3    H226465   4.898   6.103   6.183 -2.7303 -0.2395 -1.0146
 1684TIP3   OH226466   6.626   0.619   2.125 -0.3233  0.4080 -0.7831
 1684TIP3    H126467   6.660   0.531   2.142  1.3539  1.3154  1.1031
 1684TIP3    H226468   6.534   0.606   2.103  0.1891 -1.8899 -1.9735
 1685TIP3   OH226469   6.178   3.459   5.196 -0.2720  0.5484  0.3196
 1685TIP3    H126470   6.135   3.380   5.164  0.4766 -0.9400  2.7554
 1685TIP3    H226471   6.216   3.499   5.118 -1.8238 -0.7438 -1.1748
 1686TIP3   OH226472   1.624   2.473   1.177  0.3478 -0.0749 -0.6754
 1686TIP3    H126473   1.712   2.468   1.215  0.3078  0.8004 -0.4400
 1686TIP3    H226474   1.588   2.386   1.191  0.4408  0.1192  1.1015
 1687TIP3   OH226475   1.832   1.394  15.641 -0.8262 -0.4617 -0.3864
 1687TIP3    H126476   1.764   1.330  15.660 -0.3278 -1.1735 -0.9523
 1687TIP3    H226477   1.879   1.358  15.565 -0.5178  0.5541 -0.6968
 1688TIP3   OH226478   0.101   4.737   0.972 -0.3305 -0.6136 -0.2496
 1688TIP3    H126479   0.087   4.816   0.921  1.1683  0.3202  0.6986
 1688TIP3    H226480   0.053   4.753   1.054  1.6309  0.2844  0.8002
 1689TIP3   OH226481   0.544   4.695   4.968 -0.1334  0.4627 -0.1800
 1689TIP3    H126482   0.629   4.698   4.925 -0.5522 -0.1899 -1.0780
 1689TIP3    H226483   0.536   4.780   5.011  0.5703  0.8844 -0.8513
 1690TIP3   OH226484   3.457   2.286   4.256 -0.0487  0.1302 -0.0089
 1690TIP3    H126485   3.362   2.286   4.247 -0.1193 -0.2158  0.6833
 1690TIP3    H226486   3.478   2.377   4.277 -0.5068 -0.2462  2.3640
 1691TIP3   OH226487   6.233   1.166  16.942  0.1758 -0.2172 -0.4459
 1691TIP3    H126488   6.168   1.109  16.901  0.0361 -0.2362 -0.1998
 1691TIP3    H226489   6.270   1.216  16.869 -1.2939  0.9843 -0.4239
 1692TIP3   OH226490   3.772   3.416   2.336  0.3624  0.4995  0.3897
 1692TIP3    H126491   3.795   3.398   2.427  1.9409  1.7580  0.2725
 1692TIP3    H226492   3.850   3.390   2.286  0.4755  2.1042 -0.3365
 1693TIP3   OH226493   5.230   3.605   0.122 -0.2524 -0.2387 -0.5824
 1693TIP3    H126494   5.264   3.570   0.039 -0.6036  0.7848 -1.1673
 1693TIP3    H226495   5.261   3.696   0.125  0.1528 -0.3890  0.6420
 1694TIP3   OH226496   4.591   4.080   2.419  0.2746  0.5110 -0.6647
 1694TIP3    H126497   4.629   4.023   2.352  0.9702 -0.1857  0.2867
 1694TIP3    H226498   4.498   4.058   2.419  0.6321 -1.1959  0.1742
 1695TIP3   OH226499   2.402   0.380   2.994  0.0648  0.0411 -0.0791
 1695TIP3    H126500   2.405   0.321   3.070  0.5193 -0.4097 -0.4330
 1695TIP3    H226501   2.309   0.389   2.974 -0.2370  2.0950  1.9832
 1696TIP3   OH226502   4.172   2.890  13.621  0.1272  0.1972  0.1851
 1696TIP3    H126503   4.247   2.929  13.575  1.6201 -3.5985 -1.0158
 1696TIP3    H226504   4.200   2.884  13.712  1.1508 -0.7880 -0.1770
 1697TIP3   OH226505   0.593   4.077  12.515  0.4469 -0.0176 -0.0127
 1697TIP3    H126506   0.597   3.990  12.553 -0.1541  0.2026  0.5669
 1697TIP3    H226507   0.561   4.062  12.425  0.7410 -0.4253 -0.0525
 1698TIP3   OH226508   5.617   0.691  17.220 -0.3275 -0.1915  0.1371
 1698TIP3    H126509   5.656   0.646  17.145 -0.7716 -3.3125  1.6491
 1698TIP3    H226510   5.547   0.633  17.250 -1.4856  1.9027  1.8086
 1699TIP3   OH226511   5.027   5.255   6.251  0.0497  0.0588 -0.0129
 1699TIP3    H126512   5.064   5.222   6.333  0.0511  0.2496  0.0630
 1699TIP3    H226513   4.937   5.280   6.272 -0.4390 -1.2911 -0.4163
 1700TIP3   OH226514   1.776   1.520   1.906 -0.3743 -0.1075  0.2730
 1700TIP3    H126515   1.803   1.506   1.815  0.1760 -1.5391  0.6186
 1700TIP3    H226516   1.851   1.490   1.958 -0.4907  1.1277  1.2093
 1701TIP3   OH226517   0.439   5.506  14.272  0.0178  0.0714 -0.2063
 1701TIP3    H126518   0.357   5.461  14.290  0.2359 -0.1604  0.2351
 1701TIP3    H226519   0.504   5.459  14.325  0.4286  0.2606 -0.5392
 1702TIP3   OH226520   3.873   5.972  11.425 -0.1855 -0.4950 -0.9426
 1702TIP3    H126521   3.939   5.915  11.385  0.7918  0.0593 -0.1904
 1702TIP3    H226522   3.847   5.927  11.505  1.4745  0.5989  0.2824
 1703TIP3   OH226523   2.429   6.058  14.885  0.6673  0.4156 -0.1607
 1703TIP3    H126524   2.429   6.094  14.796  1.5666  0.6923 -0.0593
 1703TIP3    H226525   2.419   5.964  14.873  0.5521  0.4761 -0.5445
 1704TIP3   OH226526   5.679   5.338  10.419 -0.2115  0.3566  0.6281
 1704TIP3    H126527   5.743   5.389  10.469 -0.8874  2.2739 -0.3627
 1704TIP3    H226528   5.613   5.313  10.483  0.5292 -0.0010  1.2818
 1705TIP3   OH226529   6.597   3.002   4.402 -0.0472  0.0286 -0.0515
 1705TIP3    H126530   6.509   3.003   4.363  0.4958  1.3416 -1.3449
 1705TIP3    H226531   6.635   2.919   4.373 -1.1812 -1.0641  1.4002
 1706TIP3   OH226532   4.671   3.277   6.098  0.1372  0.0987 -0.0280
 1706TIP3    H126533   4.670   3.224   6.177  1.8335  0.1819  0.0729
 1706TIP3    H226534   4.722   3.354   6.121  0.7357  0.0796 -1.2245
 1707TIP3   OH226535   1.771   1.448  13.854  0.6948 -0.2270  0.1818
 1707TIP3    H126536   1.793   1.530  13.810  0.8780 -0.9525 -1.1712
 1707TIP3    H226537   1.821   1.382  13.805 -1.5240 -1.4787 -0.5512
 1708TIP3   OH226538   4.237   6.540  12.318 -0.0345 -0.1878  0.1179
 1708TIP3    H126539   4.215   6.503  12.403  0.8172  1.7230  1.2117
 1708TIP3    H226540   4.274   6.467  12.269 -1.2849 -1.5103  1.0596
 1709TIP3   OH226541   5.958   0.023   3.409 -0.1945 -0.1046  0.1542
 1709TIP3    H126542   6.009  -0.055   3.429 -0.3924 -0.1614  0.4372
 1709TIP3    H226543   6.021   0.095   3.411 -0.0606 -0.2220  0.1506
 1710TIP3   OH226544   1.990   2.344   1.640  0.1765  0.1260  0.2921
 1710TIP3    H126545   2.065   2.311   1.590  0.0477  0.2079  0.0388
 1710TIP3    H226546   2.029   2.407   1.701  0.2607  0.5811 -0.2111
 1711TIP3   OH226547   1.911   1.584   5.941  0.4108  0.3251  0.1542
 1711TIP3    H126548   1.872   1.536   6.014 -1.3297  0.3376 -0.7282
 1711TIP3    H226549   1.898   1.676   5.965  0.5828  0.3371  0.2031
 1712TIP3   OH226550   5.728   4.999  10.966 -0.0917  0.2707 -0.3556
 1712TIP3    H126551   5.665   5.017  10.896 -0.3437 -1.2835 -0.5655
 1712TIP3    H226552   5.704   4.912  10.998  2.5546 -0.8458 -1.1474
 1713TIP3   OH226553   2.043   0.321  11.959 -0.8090 -0.2482  0.1361
 1713TIP3    H126554   1.971   0.332  12.022 -0.5002  1.9981  0.1635
 1713TIP3    H226555   2.016   0.246  11.906 -3.4105  0.7521 -0.1169
 1714TIP3   OH226556   5.798   6.102   5.666 -0.3957 -0.4268  0.0785
 1714TIP3    H126557   5.796   6.108   5.761  0.0289  0.4259  0.0435
 1714TIP3    H226558   5.779   6.010   5.647 -0.5386 -0.5891  0.9799
 1715TIP3   OH226559   5.044   6.493  12.566  0.3225  0.3017  0.5327
 1715TIP3    H126560   5.018   6.584  12.561 -1.0025 -0.1254 -1.0790
 1715TIP3    H226561   5.000   6.460  12.645 -0.3537  0.7005  0.3267
 1716TIP3   OH226562   6.060   3.471  17.054 -0.0595  0.4526 -0.4637
 1716TIP3    H126563   6.123   3.422  17.107 -0.1759 -0.1429 -0.8684
 1716TIP3    H226564   6.070   3.436  16.966 -2.1640 -0.9057 -0.2305
 1717TIP3   OH226565   3.128   4.768  11.958  0.6895 -0.0233 -0.2087
 1717TIP3    H126566   3.222   4.756  11.971  0.3402 -1.5005  1.3587
 1717TIP3    H226567   3.093   4.785  12.046 -0.5180  0.4549 -0.7515
 1718TIP3   OH226568   0.744   2.789   5.095 -0.5562 -0.5447 -0.1540
 1718TIP3    H126569   0.675   2.811   5.033 -0.3976  0.6550  0.0793
 1718TIP3    H226570   0.713   2.710   5.138 -1.6693 -0.1663 -0.2366
 1719TIP3   OH226571   0.731   4.898   0.151  0.6426  0.0738 -0.3467
 1719TIP3    H126572   0.808   4.912   0.096  0.4436  0.5704 -0.5079
 1719TIP3    H226573   0.731   4.971   0.212 -0.5379  0.9694 -1.3412
 1720TIP3   OH226574   0.602   1.608   5.293  0.1822 -0.0777 -0.2090
 1720TIP3    H126575   0.556   1.647   5.368  1.5939  2.0635 -0.3806
 1720TIP3    H226576   0.532   1.567   5.241 -0.9251 -0.9258  1.8335
 1721TIP3   OH226577   2.771   5.806  16.759  0.0308 -0.2059 -0.5113
 1721TIP3    H126578   2.771   5.719  16.719 -0.4693 -0.2562 -0.4055
 1721TIP3    H226579   2.828   5.797  16.836 -0.0251 -0.4423 -0.4958
 1722TIP3   OH226580   1.064   3.049  13.053  0.4818  0.5150  0.1435
 1722TIP3    H126581   1.057   2.971  12.998  1.2174  0.3606  0.2581
 1722TIP3    H226582   0.981   3.052  13.100 -0.5601  1.1707 -1.6302
 1723TIP3   OH226583   5.881   0.733   4.846  0.5186  0.1111 -0.6786
 1723TIP3    H126584   5.838   0.726   4.761  0.4291 -0.5657 -0.5851
 1723TIP3    H226585   5.831   0.799   4.894  0.1006 -0.0593 -0.8783
 1724TIP3   OH226586   6.770   1.843   2.513  0.1319  0.9412 -0.0509
 1724TIP3    H126587   6.801   1.754   2.496 -3.5273 -0.8457  1.5388
 1724TIP3    H226588   6.782   1.854   2.608 -0.2388  1.8024 -0.0993
 1725TIP3   OH226589   0.037   6.733   5.037 -0.6131  0.3264 -0.5126
 1725TIP3    H126590   0.050   6.687   5.120  1.6100  0.7624 -0.5607
 1725TIP3    H226591   0.107   6.700   4.980 -0.8616  1.5240 -1.5564
 1726TIP3   OH226592   6.317   3.219   0.899  0.1265  0.6079  0.1763
 1726TIP3    H126593   6.381   3.231   0.829 -0.5905  1.0594 -0.4146
 1726TIP3    H226594   6.365   3.174   0.968  0.6205 -0.6762 -0.9649
 1727TIP3   OH226595   3.422   2.004  15.517  0.0537  0.0885  0.8119
 1727TIP3    H126596   3.347   2.010  15.577 -0.5427  0.7581  0.0392
 1727TIP3    H226597   3.412   2.081  15.460  0.9016 -0.2403  0.2053
 1728TIP3   OH226598   2.114   4.732   1.209  0.0422 -0.0126 -0.4409
 1728TIP3    H126599   2.046   4.708   1.146 -0.2098 -2.2038  0.5400
 1728TIP3    H226600   2.158   4.649   1.229  1.1605  0.8799  1.0315
 1729TIP3   OH226601   0.314   0.615  12.948  0.0643 -0.2312 -0.1513
 1729TIP3    H126602   0.272   0.598  12.863 -0.7600  2.6885 -0.4324
 1729TIP3    H226603   0.334   0.709  12.946  3.1415 -0.7416  1.5604
 1730TIP3   OH226604   5.655   1.753   2.928  0.2213 -0.5860 -0.4318
 1730TIP3    H126605   5.578   1.806   2.945  1.4792  1.2609 -0.2355
 1730TIP3    H226606   5.629   1.664   2.954 -1.9509 -0.1109 -0.8036
 1731TIP3   OH226607   0.776   4.214   2.659  0.0327 -0.1536  0.0140
 1731TIP3    H126608   0.853   4.183   2.706 -0.3871  0.1942  0.9546
 1731TIP3    H226609   0.804   4.295   2.617 -0.0073  0.3542  0.9435
 1732TIP3   OH226610   2.839   6.255   3.560 -0.3970 -0.3749 -0.0553
 1732TIP3    H126611   2.864   6.333   3.510  0.7716 -0.8694 -0.2743
 1732TIP3    H226612   2.893   6.259   3.639 -1.0847 -0.4294  0.4191
 1733TIP3   OH226613   1.084   1.029  11.190 -0.7929  0.0116 -0.6215
 1733TIP3    H126614   1.072   1.123  11.207  1.2719  0.4786 -1.4249
 1733TIP3    H226615   1.072   1.020  11.096  1.4762 -0.0414 -0.9479
 1734TIP3   OH226616   4.236   5.075  16.436 -0.1088 -0.4538 -0.5147
 1734TIP3    H126617   4.325   5.047  16.455  0.0421 -0.8278 -1.6782
 1734TIP3    H226618   4.239   5.171  16.441 -0.3331 -0.5318  2.2442
 1735TIP3   OH226619   4.658   0.383   0.374  0.5653  0.6190 -0.6004
 1735TIP3    H126620   4.752   0.403   0.380  0.2746  1.6486  1.9616
 1735TIP3    H226621   4.628   0.384   0.465 -2.1817  1.4953 -1.4243
 1736TIP3   OH226622   0.243   1.390   1.182  0.5594  0.3195 -0.2726
 1736TIP3    H126623   0.324   1.438   1.197  0.1740  0.3617  2.1236
 1736TIP3    H226624   0.176   1.442   1.227 -0.8962  0.4151 -2.3847
 1737TIP3   OH226625   1.127   4.499  15.825  0.1053  0.0528  0.3423
 1737TIP3    H126626   1.161   4.534  15.743  0.5574  0.3586  0.6566
 1737TIP3    H226627   1.032   4.502  15.815  0.1565  0.2106 -0.1185
 1738TIP3   OH226628   0.047   2.849  16.830 -0.4474  0.1806  0.3315
 1738TIP3    H126629   0.027   2.839  16.737  1.9293 -0.2435 -0.2050
 1738TIP3    H226630   0.111   2.920  16.833  0.2276 -0.4396  1.5055
 1739TIP3   OH226631   1.342   4.885  15.226 -0.0479 -0.3535  0.3085
 1739TIP3    H126632   1.334   4.967  15.275 -1.5490 -1.6526  2.4159
 1739TIP3    H226633   1.366   4.819  15.291  1.8217 -1.5424 -1.4455
 1740TIP3   OH226634   2.137   1.795   5.680 -0.2394 -0.2537 -0.4259
 1740TIP3    H126635   2.211   1.847   5.712 -1.1006  0.5073  0.4316
 1740TIP3    H226636   2.160   1.705   5.702  0.6271 -0.0799 -0.5779
 1741TIP3   OH226637   3.258   4.208   4.744  0.4052 -0.1770  0.5375
 1741TIP3    H126638   3.218   4.162   4.818  0.0784  2.0237  1.8145
 1741TIP3    H226639   3.352   4.193   4.756  0.5013  1.4526  2.4333
 1742TIP3   OH226640   1.248   6.603   2.181  0.4479 -0.7707 -0.0082
 1742TIP3    H126641   1.213   6.637   2.099 -2.0295  2.7252  2.2135
 1742TIP3    H226642   1.176   6.550   2.217  0.0398  0.6715  1.4157
 1743TIP3   OH226643   2.481   2.181  15.188 -0.0641 -0.0560 -0.1718
 1743TIP3    H126644   2.498   2.086  15.186  0.9698  0.1199 -0.4224
 1743TIP3    H226645   2.395   2.189  15.230  0.6468 -1.0093  1.5606
 1744TIP3   OH226646   1.739   2.901  12.722  0.4855  0.6130  0.0518
 1744TIP3    H126647   1.826   2.862  12.737 -0.0726 -0.3119  1.0137
 1744TIP3    H226648   1.751   2.994  12.741  0.5649  0.0252  3.4342
 1745TIP3   OH226649   6.498   5.065  14.235 -0.3162  0.3970  0.4287
 1745TIP3    H126650   6.498   5.161  14.243  0.9387  0.3632  1.2014
 1745TIP3    H226651   6.543   5.048  14.152 -0.4486  0.4843  0.3399
 1746TIP3   OH226652   5.966   6.604  11.327  0.4753 -0.1578 -0.8692
 1746TIP3    H126653   6.033   6.657  11.283  0.6880 -0.0106 -0.3805
 1746TIP3    H226654   5.935   6.659  11.399 -0.5148 -0.0426 -1.3689
 1747TIP3   OH226655   2.283   3.489  14.306 -0.1847  0.2147 -0.5649
 1747TIP3    H126656   2.314   3.402  14.284  2.5895  0.3853  2.0758
 1747TIP3    H226657   2.200   3.474  14.352  0.2596 -1.0362 -0.1355
 1748TIP3   OH226658   6.218   2.648  17.159 -0.2260 -0.1169 -0.6697
 1748TIP3    H126659   6.211   2.715  17.091  1.7974  2.0258  1.1000
 1748TIP3    H226660   6.294   2.596  17.133 -1.3840 -1.3932 -1.6720
 1749TIP3   OH226661   2.376   2.697  13.966  0.4656  0.1397  0.5377
 1749TIP3    H126662   2.358   2.610  14.002  0.4471 -0.2737 -0.4340
 1749TIP3    H226663   2.432   2.680  13.890  1.0375  1.0384  0.7483
 1750TIP3   OH226664   5.842   4.348   5.239  0.5136 -0.3162 -0.1913
 1750TIP3    H126665   5.839   4.437   5.273  0.9914 -0.8165  1.2172
 1750TIP3    H226666   5.757   4.337   5.195  0.7112  1.0347 -0.9710
 1751TIP3   OH226667   2.650   6.205   2.173  0.4015 -0.3628 -0.2389
 1751TIP3    H126668   2.688   6.264   2.108 -1.1684  0.9350 -0.0403
 1751TIP3    H226669   2.590   6.261   2.223 -0.3616 -1.9206  0.6413
 1752TIP3   OH226670   0.255   5.477  13.336 -0.3628 -0.4496 -0.2685
 1752TIP3    H126671   0.248   5.384  13.361  2.4603 -0.5806  0.2829
 1752TIP3    H226672   0.196   5.522  13.396  1.1636 -1.5179  2.1854
 1753TIP3   OH226673   4.755   0.542   2.269  1.0545  0.3084  0.1836
 1753TIP3    H126674   4.690   0.497   2.216  0.5469 -1.0756  1.8754
 1753TIP3    H226675   4.793   0.474   2.324  2.2010  1.5099  0.9463
 1754TIP3   OH226676   5.049   6.484  14.383  0.0902  0.0289  0.3177
 1754TIP3    H126677   5.012   6.561  14.340 -0.8571 -0.2107  0.6913
 1754TIP3    H226678   5.129   6.516  14.424 -0.7038  1.0136  1.1455
 1755TIP3   OH226679   1.702   5.953   3.367  0.2943  0.1015  0.0569
 1755TIP3    H126680   1.757   5.932   3.443  0.8484  1.0998 -0.0567
 1755TIP3    H226681   1.753   5.924   3.292  0.2309  0.1401 -0.0004
 1756TIP3   OH226682   6.420   5.886  10.924 -0.9140 -0.1784 -0.1783
 1756TIP3    H126683   6.472   5.916  10.998 -1.0243  0.3204 -0.2978
 1756TIP3    H226684   6.330   5.905  10.949 -0.9760 -0.3262 -0.2925
 1757TIP3   OH226685   2.115   4.917   4.986  0.1668 -0.0789 -0.0175
 1757TIP3    H126686   2.056   4.854   4.944 -1.1614  0.9363  0.2567
 1757TIP3    H226687   2.095   5.000   4.944  1.0331  0.3829  0.4599
 1758TIP3   OH226688   2.556   1.681  15.760 -0.4039 -0.1148  0.1498
 1758TIP3    H126689   2.583   1.620  15.829  0.1933  0.1603  0.1684
 1758TIP3    H226690   2.463   1.698  15.777 -0.2925 -0.1471  0.8098
 1759TIP3   OH226691   3.878   1.370   2.070  0.0267 -0.6502  0.5682
 1759TIP3    H126692   3.877   1.463   2.046  1.5425 -1.1225 -1.5677
 1759TIP3    H226693   3.869   1.371   2.166 -0.5968  1.6483  0.5613
 1760TIP3   OH226694   6.222   5.204  12.059 -0.7234 -0.8775 -0.8532
 1760TIP3    H126695   6.158   5.266  12.023  1.1507  0.8880 -1.3224
 1760TIP3    H226696   6.172   5.151  12.121 -2.8717 -0.3492 -2.0434
 1761TIP3   OH226697   6.344   3.937   5.093 -0.1531 -0.4714  0.0144
 1761TIP3    H126698   6.331   3.960   5.001  1.8125  1.1549  0.0864
 1761TIP3    H226699   6.278   3.870   5.111  0.9498 -2.6655 -3.2497
 1762TIP3   OH226700   2.210   0.889   2.657 -0.0019 -0.1487 -0.1500
 1762TIP3    H126701   2.230   0.826   2.727 -1.2594  0.8665  1.1835
 1762TIP3    H226702   2.291   0.895   2.607  0.5266 -1.9161  0.4029
 1763TIP3   OH226703   6.682   3.781  11.533  0.0124 -0.4025 -0.0773
 1763TIP3    H126704   6.669   3.760  11.441  0.8391 -0.4677 -0.1847
 1763TIP3    H226705   6.735   3.861  11.532 -0.9130  0.2392  0.3422
 1764TIP3   OH226706   1.766   1.996   0.488 -0.2500  0.7021  0.2972
 1764TIP3    H126707   1.762   1.942   0.409 -0.5385  2.5237 -1.0171
 1764TIP3    H226708   1.782   1.935   0.559 -2.1101 -1.2666 -0.8737
 1765TIP3   OH226709   0.148   5.249  14.901  0.2700  0.4467 -0.0043
 1765TIP3    H126710   0.225   5.222  14.952  1.1712  0.6244 -1.2124
 1765TIP3    H226711   0.129   5.338  14.932  0.6556  0.4625  0.1945
 1766TIP3   OH226712   5.238   0.587  12.642  0.2611 -0.2928  0.1840
 1766TIP3    H126713   5.311   0.646  12.622 -1.2342  1.7366  0.4108
 1766TIP3    H226714   5.212   0.611  12.731 -1.1172 -0.5170 -0.1458
 1767TIP3   OH226715   2.187   3.297   0.988 -0.4824 -0.3518 -0.4490
 1767TIP3    H126716   2.199   3.290   1.083  0.1145  0.2487 -0.4673
 1767TIP3    H226717   2.102   3.256   0.971 -0.5775 -0.4983  0.3385
 1768TIP3   OH226718   5.904   1.163  15.907  0.0909  0.1569 -0.2152
 1768TIP3    H126719   5.829   1.114  15.876 -0.9210  1.4963  0.0064
 1768TIP3    H226720   5.966   1.162  15.834  0.1051 -1.4081 -0.2000
 1769TIP3   OH226721   6.541   2.406   0.688  0.2054  0.8288 -0.0851
 1769TIP3    H126722   6.490   2.325   0.684 -1.3453  1.7764 -0.3391
 1769TIP3    H226723   6.575   2.408   0.777 -0.1798  0.1359  0.0858
 1770TIP3   OH226724   1.659   4.122  13.703  0.0081  0.5342 -0.2868
 1770TIP3    H126725   1.664   4.056  13.634  0.3314  1.0006 -0.7104
 1770TIP3    H226726   1.565   4.136  13.715 -0.0454  1.7688 -1.9108
 1771TIP3   OH226727   1.989   5.442   2.048  0.2134 -0.2850 -0.0847
 1771TIP3    H126728   1.974   5.485   1.964  2.0993  1.3859  0.3225
 1771TIP3    H226729   2.003   5.350   2.027  0.2757  0.0428 -1.5520
 1772TIP3   OH226730   5.187   3.446  11.265  0.1012  0.0451 -0.1736
 1772TIP3    H126731   5.161   3.475  11.177  0.3091 -0.7335 -0.5020
 1772TIP3    H226732   5.262   3.501  11.287 -0.3786  0.7275 -0.1792
 1773TIP3   OH226733   1.124   1.153  15.556 -0.4643 -0.0561  0.3689
 1773TIP3    H126734   1.166   1.108  15.629 -2.1460 -0.0629  1.3938
 1773TIP3    H226735   1.142   1.246  15.572 -3.0443  0.2170  2.4181
 1774TIP3   OH226736   3.491   5.878   3.372  0.0606 -0.1029  0.0392
 1774TIP3    H126737   3.522   5.927   3.296  0.2421 -0.7214 -0.2882
 1774TIP3    H226738   3.512   5.934   3.447 -0.0235  0.4644 -0.3531
 1775TIP3   OH226739   2.870   1.666  14.026  0.0187  0.2418  0.1454
 1775TIP3    H126740   2.813   1.702  13.958  1.7310  2.6675 -0.1656
 1775TIP3    H226741   2.943   1.627  13.978  2.0133  3.2948  0.3791
 1776TIP3   OH226742   4.867   5.206   2.014  1.0552 -0.0023 -0.4274
 1776TIP3    H126743   4.780   5.229   1.983  2.1665  1.3059 -2.9095
 1776TIP3    H226744   4.887   5.124   1.969  0.2601 -1.6090  1.9997
 1777TIP3   OH226745   1.830   4.482  16.510 -0.1796 -0.1641  0.1905
 1777TIP3    H126746   1.861   4.436  16.432  1.1439  1.2973 -0.1941
 1777TIP3    H226747   1.808   4.570  16.478  1.1655  0.7244  1.5633
 1778TIP3   OH226748   0.791   1.564   3.627  0.0398 -0.6116  0.5510
 1778TIP3    H126749   0.772   1.531   3.539 -0.0685  0.3183  0.2160
 1778TIP3    H226750   0.879   1.602   3.620  0.1722 -0.8418  0.9343
 1779TIP3   OH226751   4.731   4.423  16.762  0.2476 -0.9371  0.3038
 1779TIP3    H126752   4.766   4.512  16.771 -1.4617 -0.3304  1.6044
 1779TIP3    H226753   4.801   4.374  16.719  0.7001  1.3682 -1.8183
 1780TIP3   OH226754   5.574   0.578  16.921 -0.0595  0.6622  0.2872
 1780TIP3    H126755   5.507   0.543  16.980  1.4698 -0.3088  1.5384
 1780TIP3    H226756   5.579   0.515  16.850 -0.9920  1.1459 -0.2226
 1781TIP3   OH226757   2.302   3.130  15.587 -0.1352 -0.7521  0.2121
 1781TIP3    H126758   2.207   3.130  15.581 -0.0969  0.4576 -0.7054
 1781TIP3    H226759   2.332   3.147  15.497  0.8971  0.4710  0.7499
 1782TIP3   OH226760   0.783   3.921   3.069  0.2938 -0.1772 -0.4689
 1782TIP3    H126761   0.839   3.994   3.041 -0.2442  0.6372  0.4924
 1782TIP3    H226762   0.811   3.902   3.158  0.4351 -1.1667 -0.7226
 1783TIP3   OH226763   1.507   4.907   5.454 -0.1883  1.0855 -0.3840
 1783TIP3    H126764   1.442   4.969   5.484 -0.4598  0.5001  0.2533
 1783TIP3    H226765   1.589   4.937   5.492 -0.5208  0.3753  0.9458
 1784TIP3   OH226766   3.583   3.052  11.405  0.0327  0.1813  0.2612
 1784TIP3    H126767   3.627   3.113  11.346  1.1009 -0.5781  0.2504
 1784TIP3    H226768   3.578   2.970  11.356 -0.2541 -0.0953  0.7447
 1785TIP3   OH226769   4.829   3.548   3.770  0.4217  0.0357  0.1557
 1785TIP3    H126770   4.778   3.557   3.689  0.5191  0.9362  0.1834
 1785TIP3    H226771   4.822   3.456   3.792  0.0205 -0.1389 -0.6416
 1786TIP3   OH226772   0.234   3.991  16.479 -0.5823  0.1272  0.0357
 1786TIP3    H126773   0.310   3.933  16.468 -1.1574 -0.7007  0.3517
 1786TIP3    H226774   0.170   3.957  16.416 -1.1244  0.0715  0.6130
 1787TIP3   OH226775   4.169   5.045   3.724  0.1848 -0.1649  0.7460
 1787TIP3    H126776   4.202   5.134   3.711 -1.5576  0.8162  2.5786
 1787TIP3    H226777   4.205   5.019   3.809 -0.4801 -0.6385  0.8869
 1788TIP3   OH226778   4.362   1.796   0.744 -0.3084 -0.4415 -0.5293
 1788TIP3    H126779   4.335   1.720   0.692  0.9664 -1.3053  0.0148
 1788TIP3    H226780   4.354   1.766   0.835 -0.8002  0.4382 -0.2789
 1789TIP3   OH226781   6.581   0.451  14.672 -0.2176 -0.0804  0.3270
 1789TIP3    H126782   6.640   0.480  14.603 -0.1363 -0.3025  0.3017
 1789TIP3    H226783   6.534   0.377  14.634 -1.5681  0.9930 -0.1631
 1790TIP3   OH226784   2.359   3.574  11.890  0.4648  0.0885 -0.6284
 1790TIP3    H126785   2.333   3.496  11.939  0.9033  0.1186 -0.3517
 1790TIP3    H226786   2.284   3.591  11.833  0.0546 -0.0964 -0.1589
 1791TIP3   OH226787   3.145   5.167   5.987 -0.2296  0.0533  0.4012
 1791TIP3    H126788   3.073   5.229   5.977 -0.3539  0.0098  0.9901
 1791TIP3    H226789   3.104   5.089   6.025  0.1850  0.1451  1.0493
 1792TIP3   OH226790   3.468   4.241  15.290 -0.4565 -0.0673  0.1068
 1792TIP3    H126791   3.405   4.304  15.325 -1.5137  0.0689 -1.8960
 1792TIP3    H226792   3.456   4.246  15.195  0.6400 -2.0664 -0.1806
 1793TIP3   OH226793   5.291   5.401  13.738 -0.0308  0.1817  0.5420
 1793TIP3    H126794   5.237   5.462  13.687 -1.7425 -2.1906 -0.6734
 1793TIP3    H226795   5.244   5.393  13.822 -2.0475 -2.1955 -0.6593
 1794TIP3   OH226796   6.483   6.671  11.283 -0.0384 -0.4408  0.0515
 1794TIP3    H126797   6.388   6.676  11.273  0.0944  0.0594 -1.0910
 1794TIP3    H226798   6.517   6.742  11.229  1.0142 -0.9544  0.0099
 1795TIP3   OH226799   1.107   1.567  13.718  0.1089  0.0215 -0.2899
 1795TIP3    H126800   1.128   1.659  13.704  1.9064  0.2212  2.7406
 1795TIP3    H226801   1.024   1.567  13.765  1.2374  0.3529  1.8255
 1796TIP3   OH226802   1.878   1.053   1.565 -0.0342  0.2570  0.3353
 1796TIP3    H126803   1.786   1.046   1.540  0.3352  1.0946 -1.4172
 1796TIP3    H226804   1.925   1.055   1.482  1.4716  1.0634  1.1706
 1797TIP3   OH226805   2.890   2.516  15.188  0.7136  0.0716 -0.0559
 1797TIP3    H126806   2.902   2.578  15.260 -0.7644  2.2665 -1.5590
 1797TIP3    H226807   2.834   2.447  15.224 -2.2192  2.4529  0.3330
 1798TIP3   OH226808   0.409   4.202  16.415 -0.0649 -0.1977  0.0181
 1798TIP3    H126809   0.478   4.147  16.378 -0.8998 -0.7363 -0.7809
 1798TIP3    H226810   0.351   4.140  16.460 -0.8097  0.0690 -0.5631
 1799TIP3   OH226811   0.253   6.470  13.143  0.1242  0.3571  0.1395
 1799TIP3    H126812   0.296   6.388  13.119 -0.2571  0.1180  0.2836
 1799TIP3    H226813   0.169   6.468  13.096 -1.3265 -0.8012  2.6091
 1800TIP3   OH226814   3.659   4.979  13.479  0.6542 -0.4101 -0.3729
 1800TIP3    H126815   3.597   4.999  13.409 -0.0963  0.6251  0.5716
 1800TIP3    H226816   3.743   5.014  13.448 -0.1717  2.3773  0.2751
 1801TIP3   OH226817   0.192   3.516   0.958 -1.4087  0.0567 -0.3201
 1801TIP3    H126818   0.256   3.445   0.969 -1.1165  0.2198 -0.9745
 1801TIP3    H226819   0.208   3.573   1.034 -3.2172 -1.7558  1.5694
 1802TIP3   OH226820   5.462   0.859  10.806  0.2646 -0.6265 -0.4284
 1802TIP3    H126821   5.453   0.833  10.898  1.3332 -0.6554 -0.3091
 1802TIP3    H226822   5.467   0.955  10.809  1.0682 -0.6568 -0.3534
 1803TIP3   OH226823   2.052   6.022   0.975 -0.5532 -0.0225  0.0576
 1803TIP3    H126824   2.055   6.114   0.949  0.9775  0.2507  1.0804
 1803TIP3    H226825   2.094   5.974   0.904 -2.4061 -0.1146 -1.0360
 1804TIP3   OH226826   5.044   2.723   1.403 -0.4793  0.4882 -0.3146
 1804TIP3    H126827   5.076   2.669   1.330 -1.3069  0.1386 -0.4276
 1804TIP3    H226828   5.074   2.676   1.481  1.2069  1.3396 -0.3941
 1805TIP3   OH226829   5.779   3.266  14.269  0.1945  0.2415  0.2539
 1805TIP3    H126830   5.834   3.334  14.309  2.2083 -0.9228 -0.4096
 1805TIP3    H226831   5.814   3.184  14.302  0.3549 -0.6446 -1.9586
 1806TIP3   OH226832   4.944   3.917   6.091 -0.1769  0.6210  0.3381
 1806TIP3    H126833   4.983   4.004   6.090  1.3373 -0.0301 -0.2427
 1806TIP3    H226834   5.014   3.859   6.118 -0.3844 -0.7301 -1.7572
 1807TIP3   OH226835   1.619   3.118   0.300 -0.4182 -0.4412 -0.6125
 1807TIP3    H126836   1.659   3.054   0.359 -2.2521 -0.3114  0.8584
 1807TIP3    H226837   1.549   3.070   0.256  0.4885 -0.3496 -2.2439
 1808TIP3   OH226838   6.228   4.217   3.498 -0.1627  0.4266  0.8244
 1808TIP3    H126839   6.228   4.252   3.409  0.6991  1.1989  1.1135
 1808TIP3    H226840   6.300   4.154   3.499 -1.6726 -1.3977  0.3202
 1809TIP3   OH226841   2.138   6.032   4.561 -0.4894 -0.7288  0.2324
 1809TIP3    H126842   2.211   5.973   4.581 -0.2111 -0.0472  1.2649
 1809TIP3    H226843   2.176   6.119   4.567 -1.4728 -0.3497  1.1486
 1810TIP3   OH226844   1.902   3.792  12.219 -0.4010  0.0808  0.5333
 1810TIP3    H126845   1.984   3.840  12.229 -0.9292  0.7923  1.7215
 1810TIP3    H226846   1.916   3.736  12.142  0.9074  0.7488  0.2488
 1811TIP3   OH226847   2.466   6.441   5.911  0.2328 -0.4533 -0.5618
 1811TIP3    H126848   2.444   6.350   5.933  2.0411 -1.6280 -3.1387
 1811TIP3    H226849   2.560   6.439   5.894  1.0694  2.6658  2.4500
 1812TIP3   OH226850   3.623   4.234  13.090  0.6134  0.2731 -0.3926
 1812TIP3    H126851   3.592   4.320  13.064  0.8622  0.2614 -0.7378
 1812TIP3    H226852   3.621   4.182  13.010 -2.7251 -1.0520  0.4023
 1813TIP3   OH226853   5.787   0.196  11.672 -0.6992 -0.1600 -0.2124
 1813TIP3    H126854   5.762   0.280  11.634  0.2654 -0.5455 -1.7813
 1813TIP3    H226855   5.794   0.137  11.597  0.9020 -1.0502  0.5872
 1814TIP3   OH226856   1.806   1.402   0.064 -0.2680  0.6602  0.4813
 1814TIP3    H126857   1.764   1.466   0.006 -0.6134 -0.2290 -0.2819
 1814TIP3    H226858   1.744   1.392   0.136 -1.1528 -0.2191 -0.3557
 1815TIP3   OH226859   4.538   1.991  15.508  0.6765  0.7641 -0.0475
 1815TIP3    H126860   4.450   2.026  15.500  0.4029 -0.3869 -3.2085
 1815TIP3    H226861   4.526   1.903  15.546  0.6540  1.1542  0.8816
 1816TIP3   OH226862   2.740   0.378   2.783  0.2998 -0.0690 -0.1798
 1816TIP3    H126863   2.709   0.329   2.859 -0.7674  0.1957 -0.4231
 1816TIP3    H226864   2.691   0.342   2.710  0.1393  0.7582 -0.4950
 1817TIP3   OH226865   5.859   3.314  15.254  0.2485  0.2364  0.3572
 1817TIP3    H126866   5.932   3.375  15.264  0.3352 -0.0794  1.9851
 1817TIP3    H226867   5.788   3.367  15.218  0.9136  0.8167 -0.1287
 1818TIP3   OH226868   5.115   6.093   5.506 -0.0817 -0.3768  0.1735
 1818TIP3    H126869   5.148   6.003   5.510 -1.9871 -1.1840 -0.6411
 1818TIP3    H226870   5.025   6.084   5.473 -0.8449  1.7208  1.4574
 1819TIP3   OH226871   4.854   0.101  16.846 -0.1590  0.8945  0.3943
 1819TIP3    H126872   4.877   0.131  16.758 -0.0483 -0.8113 -0.1927
 1819TIP3    H226873   4.849   0.181  16.898  1.1221  1.8355 -0.8488
 1820TIP3   OH226874   1.383   1.260   2.457  0.1866 -0.4203 -1.1987
 1820TIP3    H126875   1.415   1.223   2.539 -0.3633 -0.9671 -1.2263
 1820TIP3    H226876   1.296   1.294   2.478  0.4283  0.2914 -1.3283
 1821TIP3   OH226877   5.358   0.746  13.268 -0.1476  0.1458  0.4798
 1821TIP3    H126878   5.336   0.839  13.264 -0.6123  0.0929 -4.1627
 1821TIP3    H226879   5.453   0.744  13.254 -0.2176 -0.0504  0.0061
 1822TIP3   OH226880   5.268   1.277   4.805 -0.6150  0.0913 -0.6198
 1822TIP3    H126881   5.232   1.365   4.793 -1.4366 -0.2703 -0.9013
 1822TIP3    H226882   5.276   1.242   4.716 -0.5172 -0.2105 -0.4953
 1823TIP3   OH226883   1.947   2.804  14.617  0.2551  1.1757 -0.2792
 1823TIP3    H126884   1.866   2.827  14.571 -0.3317  0.7351  0.4933
 1823TIP3    H226885   1.966   2.714  14.589 -0.7340  0.4786  1.1415
 1824TIP3   OH226886   1.686   2.960  14.582 -0.6466 -0.1343  0.2772
 1824TIP3    H126887   1.706   3.008  14.501 -1.1464 -2.6095 -1.4309
 1824TIP3    H226888   1.623   3.015  14.628 -0.1352  1.4735 -0.8691
 1825TIP3   OH226889   6.091   4.706   0.252 -0.6486  0.1918 -0.1564
 1825TIP3    H126890   6.149   4.771   0.293 -2.8312  2.4792 -0.4532
 1825TIP3    H226891   6.068   4.745   0.168 -1.8333 -1.1041 -0.4649
 1826TIP3   OH226892   5.829   5.836   3.566 -0.6016 -0.0681  0.0216
 1826TIP3    H126893   5.778   5.760   3.596 -0.8736  0.7544  1.7498
 1826TIP3    H226894   5.764   5.906   3.557 -0.0460  0.5332  0.5682
 1827TIP3   OH226895   5.869   2.039   1.168  0.2601 -0.8104  0.0748
 1827TIP3    H126896   5.893   2.039   1.260  1.0437 -0.1900 -0.1177
 1827TIP3    H226897   5.827   2.123   1.153  0.6653 -0.6606 -0.2581
 1828TIP3   OH226898   3.561   1.731  13.814 -0.2002  0.0657 -0.2148
 1828TIP3    H126899   3.589   1.728  13.723  0.1563  0.2373 -0.1113
 1828TIP3    H226900   3.573   1.823  13.840  0.5267 -0.1622  0.2657
 1829TIP3   OH226901   0.094   1.788  11.652 -0.1068 -0.2845 -0.1051
 1829TIP3    H126902   0.033   1.838  11.707  1.5434  2.6292 -0.7073
 1829TIP3    H226903   0.158   1.752  11.714 -1.3209 -1.7923  0.3379
 1830TIP3   OH226904   4.147   0.935  15.405 -0.2892  0.1890 -0.2754
 1830TIP3    H126905   4.088   0.876  15.357 -0.6729  0.6342 -0.3537
 1830TIP3    H226906   4.208   0.966  15.339  0.6909 -1.0643 -0.0046
 1831TIP3   OH226907   6.656   0.337  12.251 -0.5730 -0.9139 -0.6113
 1831TIP3    H126908   6.732   0.378  12.209  0.4500 -1.3010  0.7726
 1831TIP3    H226909   6.582   0.392  12.224  0.8545  2.9690  2.3364
 1832TIP3   OH226910   3.421   0.436   4.636  0.8472 -0.3147  0.3633
 1832TIP3    H126911   3.423   0.400   4.724 -1.5851 -1.8931 -0.1338
 1832TIP3    H226912   3.366   0.376   4.586  1.2775  1.0952 -1.9871
 1833TIP3   OH226913   0.651   2.991   2.846  0.0561  0.3339 -0.0761
 1833TIP3    H126914   0.616   3.066   2.894 -0.0619  0.4228 -0.3007
 1833TIP3    H226915   0.742   2.985   2.875 -0.6546 -1.2098  2.1696
 1834TIP3   OH226916   1.696   0.091   1.440 -0.5258 -0.2091 -0.1555
 1834TIP3    H126917   1.626   0.079   1.503  0.0321  0.7292  0.6816
 1834TIP3    H226918   1.735   0.004   1.429 -0.0977 -0.2434  1.4430
 1835TIP3   OH226919   2.632   0.277  13.364  0.5050  0.5937 -0.1118
 1835TIP3    H126920   2.609   0.184  13.361  0.1857  0.6411  0.7125
 1835TIP3    H226921   2.628   0.300  13.456  3.0341  0.8316 -0.0044
 1836TIP3   OH226922   0.142   2.851  15.398 -0.2414  0.4463  0.4236
 1836TIP3    H126923   0.167   2.854  15.306 -1.8458 -0.5169 -0.0747
 1836TIP3    H226924   0.196   2.780  15.435  0.1005  0.5585  0.1447
 1837TIP3   OH226925   4.844   3.676   3.144  0.1966 -0.5462  0.4080
 1837TIP3    H126926   4.782   3.617   3.187 -0.8232  0.7656  0.7988
 1837TIP3    H226927   4.789   3.734   3.091  1.1575  0.1707  0.1764
 1838TIP3   OH226928   2.022   6.251  13.257  0.0096  0.0496  0.6814
 1838TIP3    H126929   1.932   6.256  13.225  0.1234  0.9949  0.4884
 1838TIP3    H226930   2.014   6.216  13.346 -0.4853 -0.5540  0.4036
 1839TIP3   OH226931   1.822   3.299   4.213 -0.2167 -0.4495 -0.0272
 1839TIP3    H126932   1.806   3.310   4.307 -1.3102  1.1640 -0.3576
 1839TIP3    H226933   1.917   3.304   4.203 -0.1310 -0.0700  0.9232
 1840TIP3   OH226934   0.232   3.056  14.727  0.1333 -0.2749 -0.2141
 1840TIP3    H126935   0.229   3.121  14.656  1.3619  1.2172  1.0402
 1840TIP3    H226936   0.252   3.106  14.805  0.6153 -2.1278  0.9150
 1841TIP3   OH226937   6.714   5.092  12.452  0.4142 -0.6825  0.0782
 1841TIP3    H126938   6.643   5.091  12.516  0.2928  0.7615  0.0016
 1841TIP3    H226939   6.739   5.000  12.442 -0.2743 -1.0378  1.3987
 1842TIP3   OH226940   5.911   0.584   0.051  0.1121 -0.4491  0.0129
 1842TIP3    H126941   5.883   0.648  -0.015  1.5239  1.5443  1.2456
 1842TIP3    H226942   5.992   0.621   0.087 -1.1242 -0.8631  3.6161
 1843TIP3   OH226943   5.055   0.854  14.705  0.1222 -0.7860 -0.1659
 1843TIP3    H126944   5.026   0.801  14.779  1.2493 -0.4817  0.5309
 1843TIP3    H226945   5.149   0.865  14.720 -0.0445  1.2132 -0.4155
 1844TIP3   OH226946   3.534   0.654   3.268  0.4761 -0.1011 -0.0182
 1844TIP3    H126947   3.515   0.688   3.356 -0.5736 -0.0877 -0.2322
 1844TIP3    H226948   3.535   0.732   3.212  1.2271 -0.1008 -0.0180
 1845TIP3   OH226949   1.874   2.799   4.457 -0.0118 -0.1650  0.2959
 1845TIP3    H126950   1.828   2.739   4.516  0.1380 -2.0355 -1.3796
 1845TIP3    H226951   1.958   2.755   4.439  0.8995  1.4516  0.4486
 1846TIP3   OH226952   0.190   5.639   3.442  0.5139  0.3451 -0.1027
 1846TIP3    H126953   0.095   5.647   3.452  0.5441  0.7940 -0.1552
 1846TIP3    H226954   0.206   5.544   3.440 -0.1587  0.2192 -2.1363
 1847TIP3   OH226955   1.950   2.008  16.045 -0.3481 -0.2365  0.1047
 1847TIP3    H126956   1.893   2.085  16.041  0.8046  0.6243 -0.3748
 1847TIP3    H226957   1.925   1.956  15.968  1.1913  1.3998 -1.6044
 1848TIP3   OH226958   2.885   3.741  11.573 -0.1700 -0.3217 -0.1336
 1848TIP3    H126959   2.926   3.734  11.659 -0.1605  0.7258 -0.0297
 1848TIP3    H226960   2.808   3.796  11.588  0.6288  1.1058 -1.0304
 1849TIP3   OH226961   6.005   4.291   1.814 -0.4817 -0.1516 -0.1486
 1849TIP3    H126962   5.966   4.219   1.864 -1.7464 -1.4441 -2.8095
 1849TIP3    H226963   5.951   4.367   1.835 -1.0671 -0.6869  0.3189
 1850TIP3   OH226964   3.248   4.707   0.070  0.1647 -0.0329  0.5143
 1850TIP3    H126965   3.256   4.662   0.154  0.3998 -2.0325 -0.5027
 1850TIP3    H226966   3.314   4.666   0.015 -1.0403  0.0911 -1.1067
 1851TIP3   OH226967   3.450   3.047   3.451 -0.3541 -0.5713  0.2022
 1851TIP3    H126968   3.358   3.022   3.444 -0.6867  0.7139 -0.3254
 1851TIP3    H226969   3.471   3.085   3.366  0.1933  0.6629  0.8638
 1852TIP3   OH226970   3.272   6.286   0.757 -0.5043  0.3420  0.1923
 1852TIP3    H126971   3.305   6.204   0.719 -1.2416  0.6788 -1.2681
 1852TIP3    H226972   3.230   6.331   0.683 -0.5166  1.8345  1.0620
 1853TIP3   OH226973   6.499   1.918  15.713  0.1529  0.2475  0.1707
 1853TIP3    H126974   6.581   1.887  15.751 -0.0841  0.0983  0.5667
 1853TIP3    H226975   6.431   1.865  15.755  0.0052 -1.4584 -2.0297
 1854TIP3   OH226976   5.352   0.019  15.673  0.7089 -0.2011  0.0935
 1854TIP3    H126977   5.394   0.068  15.602 -0.0544 -0.4545 -0.5403
 1854TIP3    H226978   5.288   0.079  15.710 -0.6819 -0.8925 -1.1018
 1855TIP3   OH226979   6.503   1.461  13.045 -0.8760  0.1776  0.3674
 1855TIP3    H126980   6.429   1.472  13.106  1.2449 -1.6319  3.5801
 1855TIP3    H226981   6.567   1.525  13.074  0.4433 -1.1699  0.5754
 1856TIP3   OH226982   0.786   2.951  13.441 -0.0526  0.0104 -0.4676
 1856TIP3    H126983   0.795   2.857  13.425  0.1291 -0.1989  0.7285
 1856TIP3    H226984   0.861   2.973  13.497  0.2562  1.0011 -1.2506
 1857TIP3   OH226985   3.584   6.022  13.019  0.5205 -0.3163  0.3495
 1857TIP3    H126986   3.569   6.112  13.048 -1.1199 -0.6615  0.7011
 1857TIP3    H226987   3.598   6.029  12.925  2.0272  0.4407  0.5958
 1858TIP3   OH226988   4.574   6.256   6.365  0.0513 -0.0484  0.2758
 1858TIP3    H126989   4.659   6.279   6.403 -0.1997  1.0639  0.1868
 1858TIP3    H226990   4.510   6.300   6.421 -0.3618  0.8657 -0.8831
 1859TIP3   OH226991   2.377   6.446  14.225  0.0649 -0.2204 -0.3923
 1859TIP3    H126992   2.389   6.541  14.232 -0.4520 -0.1833  0.0245
 1859TIP3    H226993   2.386   6.428  14.131  2.2789 -0.0607 -0.2679
 1860TIP3   OH226994   5.402   2.623   0.468 -0.1319 -0.3462 -0.0677
 1860TIP3    H126995   5.411   2.703   0.519 -0.3276 -1.2258  1.4114
 1860TIP3    H226996   5.309   2.618   0.447  0.3121  1.4092 -2.9706
 1861TIP3   OH226997   2.311   4.726   1.613 -0.0179  0.0593 -0.0737
 1861TIP3    H126998   2.255   4.756   1.685  0.9993  0.9115  0.3834
 1861TIP3    H226999   2.395   4.770   1.627  0.7355 -1.0728 -0.8341
 1862TIP3   OH227000   4.667   2.005  15.854 -0.1390 -0.0918  0.3352
 1862TIP3    H127001   4.687   1.930  15.910  0.1835 -0.8083 -0.7142
 1862TIP3    H227002   4.573   2.018  15.865 -0.1601 -0.5088  0.6953
 1863TIP3   OH227003   3.031   3.855   2.772 -0.0857 -0.2668 -0.2225
 1863TIP3    H127004   3.055   3.762   2.777 -1.3977 -0.5693  0.9334
 1863TIP3    H227005   3.036   3.876   2.679 -1.5569 -2.0094 -0.7473
 1864TIP3   OH227006   5.103   2.620  14.256  0.3360  0.7922 -0.2516
 1864TIP3    H127007   5.017   2.609  14.297  0.0785  3.4981  0.1464
 1864TIP3    H227008   5.149   2.538  14.272 -1.7501 -0.2803  0.5527
 1865TIP3   OH227009   6.450   1.527  14.545 -0.6126 -0.3529 -0.0722
 1865TIP3    H127010   6.381   1.490  14.599  0.1299 -2.3540 -0.4132
 1865TIP3    H227011   6.531   1.507  14.593 -0.1829  1.1837 -0.1035
 1866TIP3   OH227012   6.268   3.007  15.527  0.3820  0.0223  0.6760
 1866TIP3    H127013   6.173   2.995  15.531  0.6054 -1.7248  1.9529
 1866TIP3    H227014   6.295   3.015  15.619  1.3943  1.4406  0.2856
 1867TIP3   OH227015   6.595   4.683   3.625  0.2756 -0.3017 -0.0191
 1867TIP3    H127016   6.532   4.726   3.567  0.7010  0.3798  0.0142
 1867TIP3    H227017   6.548   4.670   3.707 -0.5425 -1.8599 -0.7000
 1868TIP3   OH227018   3.589   4.903  14.087  0.0206  0.2147 -0.4176
 1868TIP3    H127019   3.502   4.916  14.124 -0.9491 -1.9129 -1.7180
 1868TIP3    H227020   3.631   4.840  14.147 -0.6790 -1.4157 -1.5637
 1869TIP3   OH227021   2.709   1.409  13.924 -0.5335 -0.3111  0.2203
 1869TIP3    H127022   2.618   1.439  13.926 -0.4533  0.0836 -1.0566
 1869TIP3    H227023   2.746   1.451  13.846  1.0421  0.3696  1.2806
 1870TIP3   OH227024   3.853   3.358  16.355  0.8141 -0.1647  0.1148
 1870TIP3    H127025   3.846   3.320  16.267  1.0773  0.5140 -0.2024
 1870TIP3    H227026   3.940   3.398  16.357  0.3592  0.8241  0.2851
 1871TIP3   OH227027   4.130   2.250  11.960 -0.4102 -0.2830  0.1780
 1871TIP3    H127028   4.173   2.199  11.892  0.1325 -1.0044  1.0311
 1871TIP3    H227029   4.188   2.241  12.036 -0.6519  1.0601  0.5422
 1872TIP3   OH227030   1.204   2.873  14.984  0.8072 -0.3355 -0.4174
 1872TIP3    H127031   1.284   2.823  14.967  2.2801  1.9625 -0.6983
 1872TIP3    H227032   1.199   2.877  15.080 -0.0223 -1.9860 -0.3575
 1873TIP3   OH227033   4.169   4.457  12.195  0.4272  0.1098  0.3297
 1873TIP3    H127034   4.144   4.388  12.133  0.0926 -0.3133  0.9231
 1873TIP3    H227035   4.239   4.418  12.246  0.0820  0.1253  0.8181
 1874TIP3   OH227036   1.569   4.020  12.884  0.4775  0.2754 -0.3138
 1874TIP3    H127037   1.517   4.077  12.940 -0.9446  0.6713 -1.9591
 1874TIP3    H227038   1.562   3.933  12.924  0.1849  0.6883  0.5521
 1875TIP3   OH227039   5.245   4.331   2.589 -0.1590  0.9628  0.4005
 1875TIP3    H127040   5.178   4.288   2.535  0.2622  0.3998  0.3216
 1875TIP3    H227041   5.287   4.393   2.529  1.0925 -0.4773 -0.2831
 1876TIP3   OH227042   6.689   4.181  16.767  0.0313  0.5022  0.1887
 1876TIP3    H127043   6.731   4.263  16.792 -0.1707 -0.0772  2.5961
 1876TIP3    H227044   6.761   4.120  16.754  0.1598  0.9147 -1.2056
 1877TIP3   OH227045   4.700   3.853  13.991 -0.8115  0.2101  0.2458
 1877TIP3    H127046   4.716   3.909  14.067 -2.1503  0.0060  0.7056
 1877TIP3    H227047   4.671   3.770  14.029 -0.1095 -0.3666 -0.4622
 1878TIP3   OH227048   3.216   4.744  15.380  0.7953  0.2309  0.2463
 1878TIP3    H127049   3.203   4.838  15.368 -1.4999 -0.1082 -0.4913
 1878TIP3    H227050   3.209   4.707  15.292  0.3705 -0.7462  0.6664
 1879TIP3   OH227051   0.742   4.641  15.982  0.4121 -0.0865  0.8639
 1879TIP3    H127052   0.667   4.595  15.945  0.8466 -0.5340  0.5296
 1879TIP3    H227053   0.761   4.711  15.919  0.4410 -0.1353  0.8186
 1880TIP3   OH227054   4.048   2.628   5.187  0.1224  0.5041  0.5150
 1880TIP3    H127055   4.022   2.676   5.109 -0.6987  1.3200  1.2702
 1880TIP3    H227056   3.998   2.546   5.182  1.5425 -0.3344 -0.7858
 1881TIP3   OH227057   3.769   1.879   2.862 -0.2492  0.4210 -0.3910
 1881TIP3    H127058   3.675   1.864   2.874  0.0463 -1.4732 -0.1958
 1881TIP3    H227059   3.798   1.806   2.808  1.7002 -0.8702  2.2087
 1882TIP3   OH227060   5.927   2.065   1.451  0.0476  0.3985 -0.3872
 1882TIP3    H127061   5.863   2.137   1.449  0.3091  0.6718  0.4638
 1882TIP3    H227062   5.995   2.096   1.511  0.4851 -0.2954 -0.5215
 1883TIP3   OH227063   2.370   5.075  11.504  0.7690 -0.2150 -0.5755
 1883TIP3    H127064   2.427   5.039  11.572 -0.3691 -1.2079 -0.1211
 1883TIP3    H227065   2.397   5.167  11.497  1.7066 -0.3971  0.3615
 1884TIP3   OH227066   6.332   5.043  14.461  0.3120  0.2266  0.2380
 1884TIP3    H127067   6.248   5.074  14.427  1.0360  1.2001 -0.7229
 1884TIP3    H227068   6.385   5.027  14.383  0.8602 -0.8549  0.8191
 1885TIP3   OH227069   1.415   4.175  15.945 -0.1351 -0.0367  0.3777
 1885TIP3    H127070   1.347   4.118  15.983 -0.6003  0.4480  0.2877
 1885TIP3    H227071   1.498   4.135  15.973 -0.3490 -2.3049 -1.8988
 1886TIP3   OH227072   1.513   4.023   5.181  0.6709 -0.2537 -0.3025
 1886TIP3    H127073   1.538   3.952   5.241 -0.3710 -0.4272 -0.0600
 1886TIP3    H227074   1.472   4.089   5.238  0.7042  0.0880 -0.6706
 1887TIP3   OH227075   2.704   3.276   3.514 -0.5551 -0.5231  0.2994
 1887TIP3    H127076   2.722   3.231   3.596 -0.5751 -0.5191  0.3059
 1887TIP3    H227077   2.732   3.367   3.530  1.6694 -1.0140 -0.4540
 1888TIP3   OH227078   5.535   3.593   2.493  0.3667  0.5596 -0.1283
 1888TIP3    H127079   5.566   3.666   2.546 -0.0454  0.3054  0.4781
 1888TIP3    H227080   5.550   3.516   2.548  0.9828  0.1581 -0.8412
 1889TIP3   OH227081   1.352   4.838   2.972  0.0555 -0.2942 -0.2688
 1889TIP3    H127082   1.324   4.877   2.889  0.1657 -1.6198 -0.9468
 1889TIP3    H227083   1.291   4.765   2.985  0.0635 -0.1203  0.8093
 1890TIP3   OH227084   0.732   2.863   2.485  0.0683 -0.1304 -0.2237
 1890TIP3    H127085   0.797   2.793   2.489 -0.7043 -0.8678 -0.3493
 1890TIP3    H227086   0.729   2.889   2.393 -0.4901 -0.7682 -0.4001
 1891TIP3   OH227087   5.664   0.212   0.562  0.5703 -0.2027  0.0072
 1891TIP3    H127088   5.754   0.226   0.534  0.6648  0.2163  0.4963
 1891TIP3    H227089   5.615   0.284   0.524  0.4869 -0.2896 -0.0510
 1892TIP3   OH227090   2.983   3.260  15.133  0.1974  0.0036  0.0213
 1892TIP3    H127091   2.902   3.298  15.098 -0.1246 -0.9771 -0.3196
 1892TIP3    H227092   2.953   3.195  15.196  0.7438  0.2523  0.5437
 1893TIP3   OH227093   6.046   6.336   4.543  0.3785  0.2188  0.3204
 1893TIP3    H127094   6.006   6.338   4.630 -1.4911 -0.8237 -0.4491
 1893TIP3    H227095   6.140   6.327   4.560 -0.0505 -1.5041  2.2564
 1894TIP3   OH227096   5.567   5.206   4.004 -0.7069  0.3998 -0.0629
 1894TIP3    H127097   5.608   5.234   3.923 -0.5722  3.0505  0.8430
 1894TIP3    H227098   5.567   5.283   4.060 -1.4201 -1.1383  2.2370
 1895TIP3   OH227099   3.909   4.894   1.714 -0.2902 -0.3386  0.4286
 1895TIP3    H127100   3.877   4.983   1.701 -0.7533 -0.5847 -0.1815
 1895TIP3    H227101   3.973   4.881   1.644  0.7783 -0.0357  1.3202
 1896TIP3   OH227102   2.580   2.611   5.145  0.0388  0.0475 -0.0254
 1896TIP3    H127103   2.518   2.665   5.095  1.2656 -0.0188 -1.6640
 1896TIP3    H227104   2.559   2.521   5.120 -1.1206 -0.2190  1.7003
 1897TIP3   OH227105   4.195   4.584   0.663  0.1116 -0.0484  0.7462
 1897TIP3    H127106   4.195   4.643   0.738  0.1005 -0.4627  1.0787
 1897TIP3    H227107   4.287   4.567   0.645  0.2252  1.8744 -0.8147
 1898TIP3   OH227108   6.289   3.286  16.357 -0.3900  0.2961  0.3701
 1898TIP3    H127109   6.216   3.235  16.391 -1.6882  1.7350 -0.1404
 1898TIP3    H227110   6.341   3.224  16.307 -0.2196 -1.1628  2.2289
 1899TIP3   OH227111   4.596   0.957  16.460  0.0193  0.0337 -0.0452
 1899TIP3    H127112   4.574   1.024  16.525 -1.2527 -0.4676  0.0591
 1899TIP3    H227113   4.687   0.976  16.437  0.5475  0.1526  1.9701
 1900TIP3   OH227114   1.898   5.069  12.332 -0.6415 -0.0902  0.3535
 1900TIP3    H127115   1.833   5.134  12.358  0.4343  0.8374  0.7589
 1900TIP3    H227116   1.970   5.120  12.295  1.6362 -0.7451  3.5425
 1901TIP3   OH227117   1.380   2.610   5.542  0.6673 -0.1835 -0.1669
 1901TIP3    H127118   1.330   2.683   5.506 -1.9653 -1.5605  0.4303
 1901TIP3    H227119   1.427   2.648   5.617 -0.9326  0.8291  0.3603
 1902TIP3   OH227120   0.013   5.758   5.985 -0.3283 -0.2956  0.3386
 1902TIP3    H127121   0.013   5.854   5.976 -0.2380 -0.2791  0.5401
 1902TIP3    H227122   0.045   5.727   5.900 -1.9666 -0.1951 -0.3753
 1903TIP3   OH227123   6.589   3.432  14.218 -0.4137 -0.1933  0.1918
 1903TIP3    H127124   6.508   3.396  14.181  0.1019 -0.5069 -0.6676
 1903TIP3    H227125   6.568   3.522  14.241 -0.4572  0.4102 -1.9873
 1904TIP3   OH227126   1.812   2.423  13.733  0.1277  0.3771 -0.2238
 1904TIP3    H127127   1.864   2.362  13.682 -0.6312 -0.7154  0.2865
 1904TIP3    H227128   1.767   2.477  13.668  0.2745 -0.0513 -0.6854
 1905TIP3   OH227129   4.305   0.594   2.806 -0.6837 -0.3778 -0.4652
 1905TIP3    H127130   4.271   0.628   2.889 -1.6108  0.3698 -1.1330
 1905TIP3    H227131   4.397   0.572   2.825 -1.0781 -0.9279  0.9486
 1906TIP3   OH227132   4.612   4.103  16.451 -0.5503  0.0115  0.0846
 1906TIP3    H127133   4.620   4.052  16.532  1.0717 -0.4498 -0.3356
 1906TIP3    H227134   4.672   4.177  16.463 -1.9714  1.2058  0.1862
 1907TIP3   OH227135   3.156   0.351  16.092  0.0869 -0.0666 -0.1969
 1907TIP3    H127136   3.212   0.413  16.137 -0.6064  1.2333 -1.0586
 1907TIP3    H227137   3.097   0.319  16.160  0.1635  0.5612  0.1770
 1908TIP3   OH227138   2.385   3.874   6.537 -0.2812  0.3865  0.2113
 1908TIP3    H127139   2.423   3.894   6.622  0.2426 -0.7349  0.2600
 1908TIP3    H227140   2.458   3.880   6.476 -0.3045 -0.3696  0.0924
 1909TIP3   OH227141   3.061   3.772   2.122  0.0359  0.7232 -0.2653
 1909TIP3    H127142   3.118   3.704   2.157 -0.6624  0.0673 -0.3804
 1909TIP3    H227143   2.989   3.725   2.081  0.0170  1.5123 -1.1779
 1910TIP3   OH227144   2.768   5.239   2.349 -0.0895  0.1610  0.2979
 1910TIP3    H127145   2.841   5.239   2.411  0.6158  0.6973 -0.5075
 1910TIP3    H227146   2.801   5.192   2.272 -0.8382 -0.2110  0.1916
 1911TIP3   OH227147   4.280   5.535  14.447  0.1020  0.1093  0.8351
 1911TIP3    H127148   4.298   5.594  14.374 -0.2615  0.0109  0.6622
 1911TIP3    H227149   4.309   5.582  14.525 -0.8977  0.8471  0.7828
 1912TIP3   OH227150   6.249   0.145   2.900 -0.0477 -0.2608 -0.3242
 1912TIP3    H127151   6.295   0.089   2.963  0.7037 -1.2542 -1.6881
 1912TIP3    H227152   6.290   0.124   2.816 -1.0761  0.9576 -1.1645
 1913TIP3   OH227153   6.193   3.480  14.824  0.1470  0.1943 -0.5752
 1913TIP3    H127154   6.145   3.426  14.887  0.0923  0.5633 -0.2956
 1913TIP3    H227155   6.257   3.528  14.878 -1.1830  1.9787 -0.5053
 1914TIP3   OH227156   4.772   1.744  14.509 -0.1349  0.1309 -0.0231
 1914TIP3    H127157   4.811   1.676  14.564 -1.2619  0.8326  1.7658
 1914TIP3    H227158   4.841   1.810  14.500 -0.0183  0.1378  0.8416
 1915TIP3   OH227159   6.367   4.299   5.168  0.0147 -0.1352  0.1860
 1915TIP3    H127160   6.319   4.234   5.220 -0.3592  1.1581  1.5309
 1915TIP3    H227161   6.459   4.276   5.182 -0.0996 -0.1443  1.0024
 1916TIP3   OH227162   3.592   3.903   1.714 -0.3865  0.4874  0.4720
 1916TIP3    H127163   3.593   3.932   1.805 -0.7155  0.6646  0.4199
 1916TIP3    H227164   3.530   3.961   1.670  0.2472  0.8147 -0.0083
 1917TIP3   OH227165   4.786   5.437   6.927  0.3407  0.2171  0.1856
 1917TIP3    H127166   4.715   5.376   6.907  1.9698 -1.3930 -1.0772
 1917TIP3    H227167   4.827   5.402   7.006  1.4131 -0.5126 -0.6641
 1918TIP3   OH227168   3.727   0.441  14.011  0.3596 -0.1944 -0.0287
 1918TIP3    H127169   3.689   0.529  14.003 -1.4936 -1.0387 -1.5081
 1918TIP3    H227170   3.788   0.435  13.937 -1.4478 -0.9603 -1.5516
 1919TIP3   OH227171   5.716   2.547   1.881 -0.0627 -0.1224 -0.4161
 1919TIP3    H127172   5.672   2.569   1.963 -0.5584  0.3060 -0.7921
 1919TIP3    H227173   5.745   2.631   1.845 -1.9964  0.0047 -1.8754
 1920TIP3   OH227174   2.542   6.668   0.182  0.1495 -0.3377 -0.2915
 1920TIP3    H127175   2.547   6.593   0.123  1.0254 -0.0528 -0.5888
 1920TIP3    H227176   2.454   6.662   0.220 -0.4094 -0.5510 -1.5772
 1921TIP3   OH227177   6.111   3.447   6.489 -0.0725 -0.2592  0.2310
 1921TIP3    H127178   6.199   3.448   6.451 -0.0493  0.2323  0.2950
 1921TIP3    H227179   6.077   3.360   6.467  0.2999 -0.3287 -0.0862
 1922TIP3   OH227180   2.134   0.407   0.590  0.0875  0.6934  0.3185
 1922TIP3    H127181   2.149   0.443   0.502 -0.8473 -2.3430 -1.2028
 1922TIP3    H227182   2.221   0.384   0.621  0.5814  2.9832  0.8480
 1923TIP3   OH227183   3.368   3.546   2.484 -0.2051 -0.4194  0.8267
 1923TIP3    H127184   3.450   3.593   2.495  0.2541 -1.0388  0.1047
 1923TIP3    H227185   3.334   3.536   2.573  0.3893  0.0210  1.1103
 1924TIP3   OH227186   3.428   0.894  15.868  0.5635 -0.1465 -0.0563
 1924TIP3    H127187   3.423   0.919  15.776  0.7273  0.3788  0.0729
 1924TIP3    H227188   3.340   0.862  15.889  0.2373  0.6594 -0.1427
 1925TIP3   OH227189   2.194   4.734  12.916  0.1811  0.3371 -0.8503
 1925TIP3    H127190   2.240   4.700  12.840  2.4064  1.5160 -0.1391
 1925TIP3    H227191   2.192   4.829  12.902 -3.0828  0.2986 -1.3301
 1926TIP3   OH227192   4.320   1.446  14.747  0.0776  0.1135 -0.6567
 1926TIP3    H127193   4.246   1.454  14.687  0.1726 -0.4685 -0.8496
 1926TIP3    H227194   4.397   1.443  14.691  0.2722  0.9588 -0.4448
 1927TIP3   OH227195   0.905   5.945   1.737  0.5625 -0.3367 -0.0461
 1927TIP3    H127196   0.998   5.922   1.737  0.8516  0.7279  1.1315
 1927TIP3    H227197   0.861   5.863   1.760  1.3506 -0.4803  1.0436
 1928TIP3   OH227198   5.131   4.061  17.228  0.3787  0.0994 -0.0606
 1928TIP3    H127199   5.101   4.111  17.304 -0.7644 -0.0733 -0.3887
 1928TIP3    H227200   5.220   4.034  17.251 -1.0167 -2.8627  2.7876
 1929TIP3   OH227201   4.934   4.248  13.454 -0.3572  0.2754 -0.5393
 1929TIP3    H127202   4.878   4.235  13.530 -1.5676  0.8848 -1.2940
 1929TIP3    H227203   4.942   4.161  13.414  2.0684 -0.5248  1.3974
 1930TIP3   OH227204   4.546   0.385   2.141  0.3854 -0.1957  0.0291
 1930TIP3    H127205   4.521   0.332   2.217 -0.4657 -0.4720 -0.4322
 1930TIP3    H227206   4.550   0.323   2.068 -0.3573  0.3251 -0.4638
 1931TIP3   OH227207   6.539   2.324  16.966  0.3021  0.0137 -0.2659
 1931TIP3    H127208   6.527   2.287  16.879  0.5550 -0.5885 -0.0490
 1931TIP3    H227209   6.453   2.317  17.007  0.9868 -3.2601  0.8904
 1932TIP3   OH227210   3.544   1.545  11.793  0.5420  0.4015 -0.0780
 1932TIP3    H127211   3.508   1.458  11.777  2.5903 -0.3441 -0.9263
 1932TIP3    H227212   3.494   1.603  11.735 -0.7981 -0.1751  0.4581
 1933TIP3   OH227213   5.133   6.355  15.488  0.4517 -0.4830  0.1564
 1933TIP3    H127214   5.119   6.321  15.399  2.2043 -1.3489  0.1544
 1933TIP3    H227215   5.153   6.448  15.475 -1.6644 -0.0135 -0.0961
 1934TIP3   OH227216   3.902   4.180   3.056  0.3140  0.7771  0.1244
 1934TIP3    H127217   3.972   4.129   3.095 -1.1174 -2.1522 -0.8162
 1934TIP3    H227218   3.941   4.220   2.978  1.4473  0.9893  0.7888
 1935TIP3   OH227219   1.357   6.229  16.309 -0.2946 -0.0752  0.4013
 1935TIP3    H127220   1.277   6.192  16.271 -0.2578  0.3733 -0.1324
 1935TIP3    H227221   1.393   6.284  16.239  1.6651 -1.9583 -0.1792
 1936TIP3   OH227222   1.030   6.492  14.491  0.2914  0.3380  0.0599
 1936TIP3    H127223   1.042   6.442  14.571 -0.8378 -2.1221 -1.2032
 1936TIP3    H227224   1.102   6.555  14.490  1.5876 -1.0371  1.9070
 1937TIP3   OH227225   2.367   5.347   6.537  0.0642 -0.7992 -0.4573
 1937TIP3    H127226   2.285   5.300   6.550  0.0501 -0.7256 -0.2636
 1937TIP3    H227227   2.346   5.416   6.474 -0.0379 -0.7459 -0.3656
 1938TIP3   OH227228   1.868   1.141   2.708  0.1469 -0.4248  0.0688
 1938TIP3    H127229   1.809   1.216   2.708 -0.9288 -1.2471  0.3063
 1938TIP3    H227230   1.819   1.072   2.752  0.6297 -1.6363 -1.2059
 1939TIP3   OH227231   3.328   0.628   1.876  0.1214  0.6069  0.3115
 1939TIP3    H127232   3.380   0.615   1.955 -2.3919  0.4854  2.0521
 1939TIP3    H227233   3.284   0.544   1.861  0.8336  0.5059 -1.4737
 1940TIP3   OH227234   6.717   2.122  10.448  0.3332  0.3511  0.2577
 1940TIP3    H127235   6.786   2.081  10.396 -2.1424 -3.2152 -0.5820
 1940TIP3    H227236   6.715   2.070  10.529 -1.4732  0.2073  0.1569
 1941TIP3   OH227237   1.392   6.609  16.142 -0.4616 -0.5326  0.2634
 1941TIP3    H127238   1.412   6.648  16.057  0.1388 -0.7345  0.3048
 1941TIP3    H227239   1.417   6.518  16.133 -1.0179 -0.7080  0.4510
 1942TIP3   OH227240   0.338   1.578   4.188 -0.4066  0.7140 -0.2254
 1942TIP3    H127241   0.305   1.577   4.278  0.2698  3.0549  0.1057
 1942TIP3    H227242   0.425   1.537   4.194 -1.2601 -1.2227 -0.2821
 1943TIP3   OH227243   0.846   6.063  11.203  0.5344 -0.1927 -0.4354
 1943TIP3    H127244   0.849   5.981  11.252  1.2579 -1.2284 -2.1218
 1943TIP3    H227245   0.779   6.115  11.247  1.4217 -0.8834  1.8605
 1944TIP3   OH227246   2.574   3.973  16.824  0.3025 -0.0645  0.6792
 1944TIP3    H127247   2.545   3.916  16.754  2.2238  0.9608 -1.0576
 1944TIP3    H227248   2.526   3.943  16.901 -3.0589 -0.2524 -1.3151
 1945TIP3   OH227249   3.184   1.661  12.754 -0.0266  0.0996  0.0560
 1945TIP3    H127250   3.273   1.627  12.750  0.8570  2.3856 -1.2920
 1945TIP3    H227251   3.152   1.656  12.664 -1.8832 -2.0288  0.7227
 1946TIP3   OH227252   0.089   3.425  13.636  0.1840 -0.4480  0.2942
 1946TIP3    H127253   0.164   3.457  13.586 -0.5731 -0.6205 -1.0087
 1946TIP3    H227254   0.077   3.335  13.605 -0.7828 -0.2988  0.1813
 1947TIP3   OH227255   2.802   5.463  12.314  0.8990  0.5548  0.1077
 1947TIP3    H127256   2.812   5.462  12.409  0.8285 -1.4306  0.1463
 1947TIP3    H227257   2.719   5.510  12.299  0.0579 -0.5255  1.1655
 1948TIP3   OH227258   4.097   0.614   0.866  0.1795  0.3308  0.2397
 1948TIP3    H127259   4.171   0.659   0.905  0.3494  0.2034  0.0630
 1948TIP3    H227260   4.090   0.532   0.916  0.6344 -0.0076 -0.2452
 1949TIP3   OH227261   6.583   4.109  13.508 -0.3869  0.4383  0.5024
 1949TIP3    H127262   6.583   4.200  13.478  2.8474  0.1494 -0.8615
 1949TIP3    H227263   6.551   4.059  13.434 -0.5027  0.3427  0.6178
 1950TIP3   OH227264   4.227   0.156   6.249  0.4188  0.1143 -0.6668
 1950TIP3    H127265   4.302   0.115   6.293  0.1150 -0.6550 -0.8460
 1950TIP3    H227266   4.265   0.226   6.197  1.1053 -0.7144 -1.3096
 1951TIP3   OH227267   5.266   1.720  11.607 -0.3557 -0.2725  0.1265
 1951TIP3    H127268   5.226   1.686  11.526 -0.6649  0.4946 -0.0556
 1951TIP3    H227269   5.295   1.808  11.584  1.5463 -0.8358  0.2364
 1952TIP3   OH227270   4.135   1.722  10.882  0.3091 -0.2350  0.0012
 1952TIP3    H127271   4.200   1.791  10.874  0.1486  0.2137  2.0111
 1952TIP3    H227272   4.128   1.685  10.794  1.2117  1.5498 -0.8681
 1953TIP3   OH227273   6.688   5.679  13.972  0.1033 -0.3158 -0.7636
 1953TIP3    H127274   6.726   5.701  13.887  2.7729 -0.6277  0.2382
 1953TIP3    H227275   6.626   5.749  13.990  0.6651  0.6197 -2.2830
 1954TIP3   OH227276   4.781   4.698   1.742  0.3367  0.1659 -0.4980
 1954TIP3    H127277   4.868   4.726   1.714  0.3402  0.2440 -0.4096
 1954TIP3    H227278   4.791   4.677   1.835 -0.1573  1.9497 -0.0148
 1955TIP3   OH227279   3.720   0.116  11.812 -0.4819  1.1335 -0.1942
 1955TIP3    H127280   3.628   0.093  11.809 -0.7882  2.1675  0.5799
 1955TIP3    H227281   3.760   0.048  11.867 -0.5710  0.1060 -1.3576
 1956TIP3   OH227282   1.907   2.536   3.983 -0.1321  0.2900 -0.0066
 1956TIP3    H127283   1.953   2.619   3.993 -1.2519  0.6693  3.2143
 1956TIP3    H227284   1.829   2.558   3.933  0.8434  0.5732 -1.4722
 1957TIP3   OH227285   6.618   3.939  14.379 -0.0756 -0.2655  0.1660
 1957TIP3    H127286   6.667   4.007  14.424 -0.8617 -0.4745  1.3939
 1957TIP3    H227287   6.683   3.872  14.358  0.6186  0.6303 -0.6301
 1958TIP3   OH227288   4.270   2.932  14.725  0.4722 -0.3356  0.3234
 1958TIP3    H127289   4.269   2.883  14.808  0.9329  1.0145  1.1626
 1958TIP3    H227290   4.186   2.976  14.722 -0.1906 -1.5892 -0.7297
 1959TIP3   OH227291   0.537   5.704   4.959  0.2495 -0.6063 -0.3031
 1959TIP3    H127292   0.485   5.662   4.891 -0.6142  0.7254 -0.4974
 1959TIP3    H227293   0.566   5.786   4.919  0.5183 -0.2458  0.6204
 1960TIP3   OH227294   3.948   3.228   1.313  0.6171  0.0874 -0.2860
 1960TIP3    H127295   3.966   3.226   1.219 -1.0685 -0.5699 -0.6289
 1960TIP3    H227296   3.915   3.140   1.332 -1.6217  1.0139  0.3583
 1961TIP3   OH227297   2.224   5.663  14.759  0.6501  0.1751 -0.0964
 1961TIP3    H127298   2.182   5.618  14.686 -2.3837 -0.8275  2.0417
 1961TIP3    H227299   2.213   5.756  14.739  0.6545 -0.0668 -1.2867
 1962TIP3   OH227300   5.597   1.407   3.093 -0.2206  0.2287  0.1391
 1962TIP3    H127301   5.672   1.368   3.048 -0.1889 -2.7142  2.3809
 1962TIP3    H227302   5.552   1.457   3.025  2.7587  0.6855 -1.7114
 1963TIP3   OH227303   6.070   3.998  11.176 -0.0132  0.0040  0.0735
 1963TIP3    H127304   5.983   4.010  11.136 -0.7289 -0.2953  1.4811
 1963TIP3    H227305   6.061   4.032  11.264  1.1063 -0.6914  0.4770
 1964TIP3   OH227306   4.744   2.596  15.487  0.0633 -0.3394  0.3647
 1964TIP3    H127307   4.822   2.626  15.441  1.6707 -0.8174  2.6263
 1964TIP3    H227308   4.772   2.518  15.535 -2.4273 -1.9089 -0.5061
 1965TIP3   OH227309   3.703   0.873   5.010  0.3640 -0.5641  1.1278
 1965TIP3    H127310   3.752   0.951   5.036  0.4557 -0.7233  1.4381
 1965TIP3    H227311   3.626   0.907   4.965  0.2367 -0.2816  1.5518
 1966TIP3   OH227312   4.177   5.863  11.518 -0.4573  0.1404  0.6446
 1966TIP3    H127313   4.243   5.795  11.530  2.3556  2.3135 -1.1367
 1966TIP3    H227314   4.133   5.840  11.436 -0.0776 -0.0287  0.4826
 1967TIP3   OH227315   6.386   0.374  11.836 -0.7828  0.5807  0.6075
 1967TIP3    H127316   6.305   0.337  11.870 -1.2660  1.1775  0.1462
 1967TIP3    H227317   6.415   0.313  11.769 -1.8328  1.2320 -0.4906
 1968TIP3   OH227318   3.134   1.907   2.729  0.3101 -0.1480  0.8219
 1968TIP3    H127319   3.173   1.927   2.814  1.4117  1.2518  0.0275
 1968TIP3    H227320   3.187   1.955   2.666 -0.8327 -0.6897 -0.6190
 1969TIP3   OH227321   4.135   3.463  16.314  0.7600 -0.1865 -0.1173
 1969TIP3    H127322   4.185   3.464  16.232  0.7630 -2.2480 -0.2024
 1969TIP3    H227323   4.201   3.456  16.383  0.6911 -0.4397 -0.0750
 1970TIP3   OH227324   6.191   1.415  16.655 -0.6641  0.2759  0.3363
 1970TIP3    H127325   6.240   1.347  16.608 -0.4599  0.5232  0.1883
 1970TIP3    H227326   6.123   1.367  16.702 -0.2645 -0.0835  0.5667
 1971TIP3   OH227327   3.534   3.784  15.346 -0.2257  0.3197 -0.3900
 1971TIP3    H127328   3.553   3.720  15.415  0.7308  0.2330 -0.7166
 1971TIP3    H227329   3.439   3.781  15.336 -0.2769 -0.4003  0.2219
 1972TIP3   OH227330   5.914   1.426  16.037  0.5570 -0.1521 -0.0087
 1972TIP3    H127331   5.893   1.345  15.991  2.0942 -0.9492  0.6465
 1972TIP3    H227332   5.965   1.477  15.974 -2.7501  1.6436 -1.4799
 1973TIP3   OH227333   0.312   0.426  11.312 -0.4331  0.1910 -0.0701
 1973TIP3    H127334   0.257   0.496  11.349 -0.2606  0.1455  0.2845
 1973TIP3    H227335   0.258   0.384  11.247 -1.1216 -0.3948  0.8571
 1974TIP3   OH227336   0.882   3.760   2.828  0.1305  0.2501 -0.3704
 1974TIP3    H127337   0.877   3.670   2.861  0.6484  0.5354  0.5007
 1974TIP3    H227338   0.833   3.812   2.892 -0.4920  0.5439 -1.0710
 1975TIP3   OH227339   0.272   4.229  13.737  0.7566 -0.4140  0.3059
 1975TIP3    H127340   0.198   4.287  13.721 -0.0073 -0.9204  1.8294
 1975TIP3    H227341   0.295   4.196  13.650 -0.4429  0.1746 -0.2656
 1976TIP3   OH227342   2.249   4.064   2.730  0.0618  0.3571  0.0090
 1976TIP3    H127343   2.299   4.089   2.807 -0.1068  0.3340  0.1272
 1976TIP3    H227344   2.159   4.091   2.750 -0.4778 -1.8371  0.8502
 1977TIP3   OH227345   3.371   0.791  11.300  0.2703  0.7280  1.1972
 1977TIP3    H127346   3.372   0.867  11.358 -0.5464 -0.5412  2.9823
 1977TIP3    H227347   3.408   0.720  11.353  0.3478 -0.2876 -0.1664
 1978TIP3   OH227348   5.269   2.956   2.817  0.0363 -0.2413 -0.1108
 1978TIP3    H127349   5.346   3.009   2.839  0.8469 -1.4352 -0.0197
 1978TIP3    H227350   5.197   3.020   2.812  1.0504  0.9117 -0.3714
 1979TIP3   OH227351   3.300   4.978   0.382  0.2666 -0.0616 -0.4001
 1979TIP3    H127352   3.302   5.064   0.424 -2.1777  0.1751 -0.5811
 1979TIP3    H227353   3.282   4.997   0.290  3.4904 -0.6750 -1.2706
 1980TIP3   OH227354   0.070   4.098  16.158  0.0738 -0.5729  0.3635
 1980TIP3    H127355   0.009   4.031  16.128 -0.3463 -0.6175  1.2812
 1980TIP3    H227356   0.015   4.163  16.203  0.4261  0.5867 -0.8096
 1981TIP3   OH227357   0.050   1.341   2.595  0.0484 -0.3606 -0.2517
 1981TIP3    H127358   0.060   1.314   2.503 -3.3322  0.2048 -0.9334
 1981TIP3    H227359  -0.039   1.314   2.618  0.3354  0.7132  2.4624
 1982TIP3   OH227360   5.707   2.032  12.190  0.0712 -0.7307  0.3182
 1982TIP3    H127361   5.769   1.961  12.174  0.0565 -0.8480  0.7787
 1982TIP3    H227362   5.747   2.084  12.260  0.2114 -0.1226 -0.1998
 1983TIP3   OH227363   3.070   4.591  15.557 -0.4177  0.0615 -0.0010
 1983TIP3    H127364   2.983   4.583  15.518  0.5332 -1.1926 -1.9977
 1983TIP3    H227365   3.112   4.661  15.508  0.1720 -0.2732  0.0236
 1984TIP3   OH227366   5.175   0.029   4.442  0.0971 -0.4751 -0.6802
 1984TIP3    H127367   5.182  -0.022   4.361 -0.6904 -0.8170 -0.5417
 1984TIP3    H227368   5.238   0.100   4.431  1.2760 -1.5157 -0.8493
 1985TIP3   OH227369   2.747   6.762  12.263  0.1489 -0.1454  0.1546
 1985TIP3    H127370   2.784   6.841  12.223 -0.9813 -0.1690 -1.0145
 1985TIP3    H227371   2.819   6.700  12.265  0.5428  0.2680 -0.7549
 1986TIP3   OH227372   6.646   0.417   5.240 -0.7708 -0.6271  0.4995
 1986TIP3    H127373   6.733   0.388   5.212 -1.1116 -1.1053 -0.0842
 1986TIP3    H227374   6.599   0.336   5.258 -0.3585 -0.3601  3.1637
 1987TIP3   OH227375   0.982   4.546  15.166  0.0079  0.1577  0.0038
 1987TIP3    H127376   1.030   4.572  15.087 -0.3509  0.1318 -0.2227
 1987TIP3    H227377   1.030   4.588  15.238  0.5219 -0.0754 -0.1981
 1988TIP3   OH227378   5.831   5.568   1.484 -0.1137  0.1777 -0.4990
 1988TIP3    H127379   5.884   5.605   1.413 -1.8312  0.6542 -1.5750
 1988TIP3    H227380   5.750   5.618   1.482 -1.4393 -1.8611 -0.2112
 1989TIP3   OH227381   6.746   3.201  13.538  0.0822 -1.0061  0.1337
 1989TIP3    H127382   6.731   3.144  13.613 -0.9493 -1.1546 -0.1669
 1989TIP3    H227383   6.823   3.166  13.495  0.6441 -0.9529  1.0894
 1990TIP3   OH227384   5.058   1.507  14.956 -0.4077  0.2361 -0.3814
 1990TIP3    H127385   5.104   1.589  14.935 -1.1849  0.4247 -1.3963
 1990TIP3    H227386   5.090   1.444  14.891 -0.1242 -0.1639  0.1394
 1991TIP3   OH227387   5.306   3.414   3.560  0.3035  0.4603  0.4411
 1991TIP3    H127388   5.214   3.418   3.586  0.2377  1.4835  0.1099
 1991TIP3    H227389   5.338   3.333   3.598 -0.7178  0.1246  0.6237
 1992TIP3   OH227390   6.311   4.397  16.115  0.3975  0.3262 -0.5362
 1992TIP3    H127391   6.313   4.310  16.074 -3.1691 -0.7908  1.2647
 1992TIP3    H227392   6.333   4.380  16.207 -2.1006  0.9309  0.2358
 1993TIP3   OH227393   3.121   2.814   4.473  0.7418  0.2496 -0.7683
 1993TIP3    H127394   3.124   2.745   4.539  0.3899  0.9159 -0.0383
 1993TIP3    H227395   3.029   2.841   4.471  1.0790  1.5642 -0.1074
 1994TIP3   OH227396   6.309   5.435   0.702 -0.4531 -0.1306 -0.1804
 1994TIP3    H127397   6.242   5.396   0.647 -0.1032  0.0183 -0.7177
 1994TIP3    H227398   6.386   5.441   0.646  0.3409 -1.2858  0.7276
 1995TIP3   OH227399   5.173   4.836   3.880 -0.4700 -0.3971 -0.3072
 1995TIP3    H127400   5.108   4.901   3.906 -0.5775 -0.9585  0.8497
 1995TIP3    H227401   5.156   4.822   3.786  0.8278  2.6822 -1.1447
 1996TIP3   OH227402   6.167   3.274  15.033 -0.2715 -0.3258  0.3147
 1996TIP3    H127403   6.076   3.286  15.008 -0.0808 -1.5490 -1.1143
 1996TIP3    H227404   6.163   3.244  15.124 -1.2928 -0.2742  0.2935
 1997TIP3   OH227405   4.477   3.426   3.987 -0.3561  0.1772 -0.3659
 1997TIP3    H127406   4.444   3.423   3.897  0.1425 -0.2434 -0.5416
 1997TIP3    H227407   4.496   3.335   4.008  0.5171  0.3953 -0.2014
 1998TIP3   OH227408   4.336   3.610  15.292  0.3652 -0.6877  0.3903
 1998TIP3    H127409   4.384   3.693  15.300  0.1424 -0.7042  2.4140
 1998TIP3    H227410   4.404   3.543  15.290  0.5022 -0.5769  1.0449
 1999TIP3   OH227411   2.361   2.193  11.755 -0.2405  0.2706 -0.0534
 1999TIP3    H127412   2.299   2.235  11.815  0.5815  0.3763  0.7509
 1999TIP3    H227413   2.397   2.120  11.806  0.7460  0.5894 -0.2770
 2000TIP3   OH227414   5.486   6.416   0.177 -0.2715 -0.1625 -0.1751
 2000TIP3    H127415   5.517   6.356   0.244 -1.0576 -1.1602 -0.6730
 2000TIP3    H227416   5.488   6.365   0.096 -0.6169  0.5883 -0.6680
 2001TIP3   OH227417   2.303   0.813   0.373 -0.1517 -0.5683  0.5200
 2001TIP3    H127418   2.332   0.894   0.415 -0.6953 -0.0992  0.0011
 2001TIP3    H227419   2.244   0.842   0.304 -1.0304 -1.4590  0.8819
 2002TIP3   OH227420   5.448   1.114   2.722 -0.3126  0.2351  0.0952
 2002TIP3    H127421   5.497   1.078   2.648 -0.9896  0.0563 -0.2680
 2002TIP3    H227422   5.477   1.205   2.727 -0.8115  0.4605 -0.8724
 2003TIP3   OH227423   5.945   5.673   5.156 -0.4482 -0.7783  0.3439
 2003TIP3    H127424   5.890   5.634   5.224 -1.4906 -2.0424 -1.1594
 2003TIP3    H227425   5.926   5.622   5.077  1.1321  0.2810 -0.7849
 2004TIP3   OH227426   2.951   4.116  13.064 -0.2105 -0.0227  0.1296
 2004TIP3    H127427   2.878   4.146  13.010 -1.7428 -2.0946  0.9271
 2004TIP3    H227428   2.945   4.168  13.144 -0.4608  0.2033 -0.0332
 2005TIP3   OH227429   6.515   2.569  17.150 -0.0064 -0.0707 -0.4364
 2005TIP3    H127430   6.569   2.506  17.102 -0.9445 -2.0675  1.0343
 2005TIP3    H227431   6.549   2.566  17.239 -2.4349 -1.3447  0.5232
 2006TIP3   OH227432   0.878   3.170  12.580  0.5096  0.6283  0.1846
 2006TIP3    H127433   0.783   3.159  12.571  0.9316 -2.6160 -1.6726
 2006TIP3    H227434   0.895   3.151  12.673 -0.4745 -0.9591  0.0736
 2007TIP3   OH227435   4.135   0.820  12.477 -0.7522  0.0441 -0.3293
 2007TIP3    H127436   4.225   0.801  12.501 -0.3671 -0.0339 -1.7964
 2007TIP3    H227437   4.110   0.893  12.534  0.2731  0.1741 -0.0403
 2008TIP3   OH227438   0.720   5.258   5.735 -0.0871 -0.0476  0.7974
 2008TIP3    H127439   0.748   5.234   5.824 -0.0063 -0.9185  0.5440
 2008TIP3    H227440   0.642   5.205   5.719  0.8585 -1.1752 -0.2686
 2009TIP3   OH227441   4.719   3.902   2.596 -0.3384 -0.5677  0.5188
 2009TIP3    H127442   4.702   3.889   2.689  0.2731 -2.2453  0.4283
 2009TIP3    H227443   4.661   3.974   2.571 -1.0216 -0.5533  2.0393
 2010TIP3   OH227444   0.763   2.268  15.452  0.1909  0.2321 -0.0770
 2010TIP3    H127445   0.836   2.314  15.411  0.7287 -0.1333  0.4545
 2010TIP3    H227446   0.705   2.245  15.379 -0.0186  1.6060 -0.3654
 2011TIP3   OH227447   0.126   2.037   0.749 -0.3788  0.0527  0.1068
 2011TIP3    H127448   0.050   1.997   0.792 -1.2798  0.7146 -0.8122
 2011TIP3    H227449   0.191   2.045   0.819 -0.5079 -2.0500  0.5546
 2012TIP3   OH227450   3.064   5.694  15.058  0.0788 -0.3596  0.0379
 2012TIP3    H127451   2.979   5.651  15.071  0.7763 -1.4627  1.2018
 2012TIP3    H227452   3.043   5.787  15.053 -1.4551 -0.7475 -2.2439
 2013TIP3   OH227453   2.003   3.588   5.208 -0.5576  0.3435 -0.1845
 2013TIP3    H127454   1.966   3.517   5.259 -1.7952  0.8587 -0.3313
 2013TIP3    H227455   1.939   3.604   5.138 -0.0013  1.1750 -0.5292
 2014TIP3   OH227456   3.441   4.670  14.569 -0.0441  0.5027  0.2718
 2014TIP3    H127457   3.362   4.619  14.589  0.9802 -1.4049 -0.3093
 2014TIP3    H227458   3.506   4.604  14.544  1.3848  2.1172 -0.4325
 2015TIP3   OH227459   0.176   3.839   2.611  0.2112 -0.0000 -0.4408
 2015TIP3    H127460   0.189   3.925   2.571  0.2040 -0.5024 -1.5550
 2015TIP3    H227461   0.206   3.850   2.702 -1.3349  1.6285 -0.0553
 2016TIP3   OH227462   1.884   6.427   0.469  0.2656 -0.5393  0.2761
 2016TIP3    H127463   1.831   6.481   0.528  0.6476 -0.8378  0.9110
 2016TIP3    H227464   1.893   6.480   0.390 -2.8536 -1.3805 -0.7670
 2017TIP3   OH227465   3.901   2.094  15.666 -0.2866 -0.4937  0.4715
 2017TIP3    H127466   3.927   2.093  15.758  0.1760  0.3234  0.3598
 2017TIP3    H227467   3.887   2.001  15.644  0.1171 -0.7391  1.2146
 2018TIP3   OH227468   2.904   5.046  12.501  0.5632  0.7645 -0.5248
 2018TIP3    H127469   2.925   4.958  12.470  1.1740 -0.1262  2.1371
 2018TIP3    H227470   2.936   5.104  12.432  0.8627 -1.0533 -1.9961
 2019TIP3   OH227471   6.287   3.523   3.099  0.1936  0.3329  0.4780
 2019TIP3    H127472   6.243   3.600   3.063  0.8761  0.7179  0.4630
 2019TIP3    H227473   6.265   3.452   3.038 -2.9689 -0.2319  2.0780
 2020TIP3   OH227474   5.431   2.172  13.235  0.3806 -0.2096 -0.2675
 2020TIP3    H127475   5.401   2.097  13.287  2.3158 -0.3726  0.7133
 2020TIP3    H227476   5.474   2.132  13.159  0.9230 -0.0958 -0.0248
 2021TIP3   OH227477   5.076   4.362   1.260  0.7042  0.5825 -0.0465
 2021TIP3    H127478   4.982   4.363   1.241  0.0220  0.7634  2.8602
 2021TIP3    H227479   5.099   4.270   1.265  0.9341  0.5274 -1.6394
 2022TIP3   OH227480   2.851   4.204  16.839 -0.1902  0.4316 -0.0845
 2022TIP3    H127481   2.804   4.121  16.837 -0.2733  0.4809 -0.2925
 2022TIP3    H227482   2.804   4.259  16.776 -1.4317  1.3629  1.6079
 2023TIP3   OH227483   5.388   1.724   5.000 -0.6689  0.4299 -0.2654
 2023TIP3    H127484   5.293   1.723   4.989 -0.7438  1.2449  0.2095
 2023TIP3    H227485   5.419   1.788   4.936 -0.5196  0.7304  0.1034
 2024TIP3   OH227486   2.259   1.247   3.489  0.0318 -0.9147  0.2354
 2024TIP3    H127487   2.247   1.159   3.524 -0.2721 -1.7269 -1.7858
 2024TIP3    H227488   2.342   1.243   3.442 -1.5459 -1.1994 -2.7658
 2025TIP3   OH227489   0.474   1.177   1.057 -0.0924  0.1112 -0.2873
 2025TIP3    H127490   0.446   1.117   1.126  0.9511  1.1672  1.1020
 2025TIP3    H227491   0.500   1.256   1.103 -0.1435  1.1595 -1.9723
 2026TIP3   OH227492   3.090   3.642   5.656  0.0564  0.5423  0.2477
 2026TIP3    H127493   3.072   3.568   5.715 -1.5980  1.2538  0.6870
 2026TIP3    H227494   3.114   3.600   5.573 -0.6673 -0.4946  0.5378
 2027TIP3   OH227495   6.072   0.482   3.974 -0.5530  0.1127  0.0291
 2027TIP3    H127496   6.025   0.466   3.892  0.3556 -1.6511 -0.1987
 2027TIP3    H227497   6.160   0.508   3.946 -0.7682  1.3963  0.4683
 2028TIP3   OH227498   0.933   0.709  15.544 -0.1792  0.5144 -0.0911
 2028TIP3    H127499   0.932   0.763  15.465  0.1886 -0.5549 -0.8561
 2028TIP3    H227500   0.841   0.691  15.562 -0.2072 -1.3036 -1.7797
 2029TIP3   OH227501   3.966   3.151   4.341  0.2447  0.1829  0.0290
 2029TIP3    H127502   3.902   3.220   4.360 -1.0407 -1.0058  0.1600
 2029TIP3    H227503   4.030   3.193   4.283 -1.0903  1.2044 -0.7553
 2030TIP3   OH227504   1.502   5.619  12.434  0.1614 -0.0374  0.5891
 2030TIP3    H127505   1.480   5.612  12.341  1.1858  1.0982  0.2326
 2030TIP3    H227506   1.422   5.593  12.480 -0.4653 -0.2876 -0.6086
 2031TIP3   OH227507   4.940   6.530  15.688  0.3693 -0.4363 -0.1541
 2031TIP3    H127508   4.918   6.569  15.772  0.0680 -1.1055  0.0870
 2031TIP3    H227509   5.008   6.586  15.652 -0.3579  0.5594 -0.0202
 2032TIP3   OH227510   1.862   2.048  11.986 -0.2393 -0.4063 -0.3770
 2032TIP3    H127511   1.893   2.113  12.049 -0.1232 -1.3764  0.5890
 2032TIP3    H227512   1.767   2.049  11.997 -0.3576  0.5231 -1.3092
 2033TIP3   OH227513   2.554   3.427   4.104  0.1985  0.0828  0.4894
 2033TIP3    H127514   2.491   3.498   4.092  0.4211  0.5826  2.0733
 2033TIP3    H227515   2.528   3.361   4.040  0.3525  1.8159 -1.4916
 2034TIP3   OH227516   0.487   1.641   0.950 -0.3602  0.6905  0.0145
 2034TIP3    H127517   0.529   1.657   0.866  0.7044 -0.7836  0.2339
 2034TIP3    H227518   0.397   1.617   0.927 -0.2743  0.9742 -0.6487
 2035TIP3   OH227519   1.647   1.647   2.837 -0.2873 -0.4812  0.1846
 2035TIP3    H127520   1.682   1.559   2.824  0.0861 -0.4158  0.7444
 2035TIP3    H227521   1.714   1.693   2.887  0.3665  0.7015 -1.6664
 2036TIP3   OH227522   3.830   3.005   4.798 -0.2597  0.7107  0.3663
 2036TIP3    H127523   3.755   3.053   4.833 -0.9738 -0.2947  0.2559
 2036TIP3    H227524   3.859   3.058   4.723 -0.8348  1.1334  0.4367
 2037TIP3   OH227525   6.140   2.644  11.262  0.2781  0.5388 -0.0090
 2037TIP3    H127526   6.100   2.728  11.285 -0.6882 -0.1001  0.6707
 2037TIP3    H227527   6.158   2.651  11.168  0.5578  1.6430  0.1135
 2038TIP3   OH227528   4.815   2.962  11.925 -0.0429  0.0977  0.4864
 2038TIP3    H127529   4.827   2.890  11.987 -1.2883 -1.3233 -0.8195
 2038TIP3    H227530   4.781   3.034  11.978  1.6522 -0.0675  1.9061
 2039TIP3   OH227531   4.147   3.087   4.959 -0.1204  0.2511 -0.5304
 2039TIP3    H127532   4.192   3.163   4.923  1.3220 -0.1187  0.4000
 2039TIP3    H227533   4.080   3.123   5.016  0.3792  0.8331 -0.3041
 2040TIP3   OH227534   2.052   0.345  11.338 -0.0016 -0.1095  0.0337
 2040TIP3    H127535   1.976   0.317  11.389 -0.1982 -0.9011 -0.6835
 2040TIP3    H227536   2.017   0.411  11.277  0.2427  0.8743  0.9163
 2041TIP3   OH227537   3.959   0.150  16.310 -0.2355 -0.0243 -0.0753
 2041TIP3    H127538   4.045   0.118  16.283 -1.3308 -1.6589 -1.9350
 2041TIP3    H227539   3.914   0.071  16.342 -1.7470  0.3278 -1.2096
 2042TIP3   OH227540   6.695   6.302  14.023  0.1114 -0.2141 -0.4578
 2042TIP3    H127541   6.628   6.321  13.957  0.0642 -2.0137 -0.9731
 2042TIP3    H227542   6.759   6.372  14.012 -0.4352  0.1306 -1.6961
 2043TIP3   OH227543   3.452   2.795   2.110 -0.1402 -0.2190  0.2047
 2043TIP3    H127544   3.509   2.865   2.143 -0.4970 -0.4421  1.3379
 2043TIP3    H227545   3.393   2.776   2.183 -0.0012 -1.7667 -0.0523
 2044TIP3   OH227546   4.271   0.830  17.241  0.5052  0.1609 -0.7537
 2044TIP3    H127547   4.190   0.867  17.208  0.1099 -1.1793 -1.3470
 2044TIP3    H227548   4.321   0.807  17.163  1.6333  1.2940 -0.4034
 2045TIP3   OH227549   5.807   4.123  13.253  0.5917 -0.3600 -0.2721
 2045TIP3    H127550   5.713   4.108  13.261  0.0233  1.7876 -2.0742
 2045TIP3    H227551   5.836   4.059  13.187  0.4024 -0.9914  0.2500
 2046TIP3   OH227552   5.023   4.794  13.699 -0.3195 -0.1024  0.6823
 2046TIP3    H127553   5.066   4.863  13.647 -2.0528 -0.4639 -1.3711
 2046TIP3    H227554   5.039   4.819  13.790  1.8883  1.1982  0.0006
 2047TIP3   OH227555   4.973   2.435   1.362  0.5665 -0.1431 -0.1151
 2047TIP3    H127556   4.879   2.444   1.352  0.5022 -0.9093 -0.2792
 2047TIP3    H227557   5.006   2.431   1.272  0.6614 -0.6778 -0.0636
 2048TIP3   OH227558   3.565   1.763   4.603 -0.3083 -0.0838  0.1996
 2048TIP3    H127559   3.473   1.778   4.621 -0.2511  0.2615  0.2058
 2048TIP3    H227560   3.576   1.785   4.511 -0.2308 -0.1252  0.1986
 2049TIP3   OH227561   2.234   4.999   4.289  0.0081  0.4353 -0.2211
 2049TIP3    H127562   2.179   4.988   4.367 -0.4604  0.5671 -0.5261
 2049TIP3    H227563   2.176   5.041   4.225  0.2818  0.0011 -0.7633
 2050TIP3   OH227564   3.759   5.623  16.350 -0.0083 -0.2775  0.4440
 2050TIP3    H127565   3.779   5.710  16.385 -0.5962  0.3947 -0.8502
 2050TIP3    H227566   3.670   5.630  16.315  0.8953 -0.5796 -2.1187
 2051TIP3   OH227567   2.662   5.418   3.773  0.1487 -0.6024 -0.0530
 2051TIP3    H127568   2.669   5.470   3.693 -0.0587 -1.3270 -0.5516
 2051TIP3    H227569   2.582   5.449   3.815  0.1517 -0.3545 -0.2299
 2052TIP3   OH227570   6.204   3.606   1.947 -0.0845  0.1024  0.2214
 2052TIP3    H127571   6.115   3.587   1.917 -0.4951  2.5463 -0.3493
 2052TIP3    H227572   6.260   3.583   1.873 -0.5098  0.6975 -0.3017
 2053TIP3   OH227573   5.459   0.626  10.648  0.0175 -0.1294 -0.4087
 2053TIP3    H127574   5.431   0.696  10.707  1.9316 -0.2003  0.6565
 2053TIP3    H227575   5.389   0.561  10.653  0.1337 -0.1495  1.8591
 2054TIP3   OH227576   1.906   3.094  16.748 -0.0941  0.2694 -0.2287
 2054TIP3    H127577   1.916   3.040  16.827 -0.3425  0.5267 -0.0217
 2054TIP3    H227578   1.940   3.038  16.677 -1.0686 -0.4780 -0.1366
 2055TIP3   OH227579   5.190   1.331   3.376  0.2523 -0.1593  0.2551
 2055TIP3    H127580   5.280   1.308   3.351 -0.0789 -0.3112 -0.8825
 2055TIP3    H227581   5.141   1.249   3.367 -0.2745  0.2238 -0.5598
 2056TIP3   OH227582   3.750   3.397   4.096 -0.0195 -0.0896 -0.7858
 2056TIP3    H127583   3.669   3.409   4.146 -0.5811 -0.2613 -1.6242
 2056TIP3    H227584   3.739   3.312   4.053  1.1427 -0.6919  0.0369
 2057TIP3   OH227585   6.112   3.745   3.039 -0.3083  0.0015  0.2898
 2057TIP3    H127586   6.078   3.799   3.110 -3.0868 -0.8435 -0.2683
 2057TIP3    H227587   6.035   3.721   2.988  1.0889 -2.5243 -0.8365
 2058TIP3   OH227588   0.502   0.920   1.774  0.0232 -0.1095 -0.2339
 2058TIP3    H127589   0.505   0.920   1.869  0.1165 -0.7720 -0.2325
 2058TIP3    H227590   0.529   1.009   1.749 -1.2299  0.4676  0.3850
 2059TIP3   OH227591   5.557   4.419  13.158  0.3938 -0.3118 -0.1921
 2059TIP3    H127592   5.492   4.396  13.225 -2.7060  1.2075 -2.4625
 2059TIP3    H227593   5.574   4.512  13.172  1.6359 -0.5341 -0.0724
 2060TIP3   OH227594   0.429   4.469   2.065  0.4736 -0.1901  0.0112
 2060TIP3    H127595   0.340   4.446   2.090 -0.3747  1.7598 -1.0285
 2060TIP3    H227596   0.484   4.402   2.107 -1.4687 -1.5964  0.4437
 2061TIP3   OH227597   0.925   1.303  10.561  0.0330  0.0136  0.0056
 2061TIP3    H127598   0.868   1.380  10.565 -0.7195 -0.4876 -0.6261
 2061TIP3    H227599   0.918   1.273  10.470  0.4638 -0.6871  0.1960
 2062TIP3   OH227600   4.939   2.099  16.870  0.0278  0.2583 -0.4746
 2062TIP3    H127601   5.027   2.074  16.898  0.9922  1.7347 -2.0058
 2062TIP3    H227602   4.920   2.040  16.796 -0.7939 -0.8392  0.5684
 2063TIP3   OH227603   5.612   4.460  11.001  0.2255  0.5634 -0.6249
 2063TIP3    H127604   5.574   4.394  10.944  1.3621  0.0720 -0.8449
 2063TIP3    H227605   5.558   4.459  11.079  0.3575 -0.7957 -0.5309
 2064TIP3   OH227606   1.428   0.450   2.660  0.1513 -0.0663 -0.6996
 2064TIP3    H127607   1.524   0.445   2.657  0.1326 -0.0055 -2.5801
 2064TIP3    H227608   1.404   0.488   2.576 -1.5575 -0.4456 -0.4119
 2065TIP3   OH227609   3.024   6.679  11.755  0.2414  0.0848  0.0117
 2065TIP3    H127610   2.998   6.587  11.754  0.7152 -0.1424  2.2309
 2065TIP3    H227611   2.948   6.726  11.790  0.4328  0.3489  0.0843
 2066TIP3   OH227612   4.781   1.290   3.282 -0.0972  0.2165 -0.1989
 2066TIP3    H127613   4.821   1.237   3.213  0.2526  0.4929 -0.2144
 2066TIP3    H227614   4.848   1.355   3.303 -0.9808  1.4504 -1.0665
 2067TIP3   OH227615   5.535   6.487   5.217  0.1660  0.5321 -0.0493
 2067TIP3    H127616   5.569   6.567   5.176 -0.7404  0.6930 -0.5346
 2067TIP3    H227617   5.539   6.421   5.148 -1.1296  0.7382 -0.3537
 2068TIP3   OH227618   0.553   5.821  14.042  0.5770 -0.7914 -0.0299
 2068TIP3    H127619   0.490   5.763  13.999 -0.1206  1.2241 -1.8990
 2068TIP3    H227620   0.638   5.796  14.005  0.1952 -0.1936 -1.3573
 2069TIP3   OH227621   4.272   0.101   0.112 -0.1299  0.2214  0.4005
 2069TIP3    H127622   4.306   0.012   0.113  0.9682  0.5796 -1.0798
 2069TIP3    H227623   4.306   0.142   0.192 -0.8614 -0.7423  1.2228
 2070TIP3   OH227624   1.014   0.708   2.567 -0.1965  0.3697 -0.1157
 2070TIP3    H127625   1.053   0.679   2.650 -0.7100  0.6365  0.2264
 2070TIP3    H227626   0.988   0.627   2.523  1.2594  0.1501 -0.6219
 2071TIP3   OH227627   4.102   4.266   3.686 -0.3353  0.1180 -0.3983
 2071TIP3    H127628   4.096   4.263   3.782  0.4846 -1.1195 -0.3617
 2071TIP3    H227629   4.051   4.191   3.656  0.9783 -0.6385 -0.8183
 2072TIP3   OH227630   6.086   0.218  15.423 -0.2892  0.4015  0.4190
 2072TIP3    H127631   6.038   0.292  15.460 -0.0858  1.2127 -0.8754
 2072TIP3    H227632   6.024   0.178  15.362 -0.7688 -1.1735  1.8587
 2073TIP3   OH227633   2.083   5.270   0.344 -0.1023  0.2594 -0.2429
 2073TIP3    H127634   2.029   5.252   0.267 -1.0390 -1.5065  0.7587
 2073TIP3    H227635   2.024   5.313   0.405 -0.4025 -1.4850  0.7748
 2074TIP3   OH227636   3.946   3.239   5.057  0.0611 -0.3113  0.2192
 2074TIP3    H127637   3.925   3.332   5.055 -0.8154 -0.5103 -0.4528
 2074TIP3    H227638   3.876   3.198   5.006  0.3762 -1.3456  0.6019
 2075TIP3   OH227639   4.688   6.561   2.758  0.2296  0.0798  0.5541
 2075TIP3    H127640   4.737   6.481   2.738  0.6555  0.3505  0.4830
 2075TIP3    H227641   4.747   6.611   2.816  0.5428  0.9439 -0.4830
 2076TIP3   OH227642   3.456   1.597  12.707  0.7782  0.1024  0.2231
 2076TIP3    H127643   3.454   1.680  12.661 -0.7894  0.5590  1.0306
 2076TIP3    H227644   3.512   1.612  12.783 -0.2786  0.7444  0.8975
 2077TIP3   OH227645   0.620   1.993   3.099  0.1456  0.2068 -0.7372
 2077TIP3    H127646   0.554   1.989   3.030  1.2757 -0.6741 -1.8355
 2077TIP3    H227647   0.631   1.901   3.126 -0.8316  0.6104  1.2145
 2078TIP3   OH227648   6.120   1.813   2.829 -0.4438 -0.1234  0.3092
 2078TIP3    H127649   6.185   1.807   2.759  0.3410  0.2180  0.9879
 2078TIP3    H227650   6.167   1.855   2.901 -1.8128  1.4526  0.3455
 2079TIP3   OH227651   5.966   4.187   3.572  0.0797  0.2593  0.1584
 2079TIP3    H127652   5.989   4.143   3.654  0.7849  0.8344  0.2758
 2079TIP3    H227653   6.049   4.210   3.532 -0.2437  2.4449  0.6314
 2080TIP3   OH227654   2.179   1.394  16.127  0.0718  0.0737  0.1245
 2080TIP3    H127655   2.145   1.453  16.194  1.8570  0.5875  0.6381
 2080TIP3    H227656   2.238   1.335  16.174  1.1966  0.3117 -0.9209
 2081TIP3   OH227657   5.276   1.266   1.209  0.3738  0.3750  0.2901
 2081TIP3    H127658   5.203   1.304   1.159 -1.5894 -1.2643  1.7650
 2081TIP3    H227659   5.353   1.284   1.155 -1.0482  2.3995 -1.2292
 2082TIP3   OH227660   1.620   1.113   6.258 -0.0345  0.3791  0.3487
 2082TIP3    H127661   1.588   1.025   6.278  2.0741 -0.4420  0.3559
 2082TIP3    H227662   1.703   1.119   6.305  0.5872  1.8029 -0.8719
 2083TIP3   OH227663   2.124   4.434  12.496 -0.5632 -0.5461  0.3180
 2083TIP3    H127664   2.167   4.428  12.411  1.1711  2.1788  0.8969
 2083TIP3    H227665   2.061   4.505  12.487 -0.2982 -0.1671  1.3349
 2084TIP3   OH227666   6.042   5.000  12.869 -0.1182 -0.0816 -0.0616
 2084TIP3    H127667   6.046   4.960  12.782 -0.0077 -1.2248  0.4587
 2084TIP3    H227668   5.953   5.037  12.874  0.2235  0.9572 -1.0513
 2085TIP3   OH227669   1.418   6.093  12.563  0.5527  0.0428  0.2214
 2085TIP3    H127670   1.323   6.103  12.574  0.4905  1.9687 -1.3949
 2085TIP3    H227671   1.429   6.004  12.529 -0.6186 -0.3875  0.9229
 2086TIP3   OH227672   0.456   5.385   1.038 -0.2921 -0.4964  0.3183
 2086TIP3    H127673   0.474   5.292   1.054 -2.3575 -0.9668  0.2231
 2086TIP3    H227674   0.473   5.427   1.122 -1.3997 -1.3385  1.0032
 2087TIP3   OH227675   3.607   5.626   5.264  0.1613  0.4677  0.7215
 2087TIP3    H127676   3.618   5.633   5.359  1.2792 -1.5933  0.8024
 2087TIP3    H227677   3.548   5.552   5.252  2.3524 -1.2886 -0.1474
 2088TIP3   OH227678   3.671   0.704   0.284  0.2478  0.5483 -0.1462
 2088TIP3    H127679   3.679   0.674   0.193 -0.2717 -3.2140  0.8571
 2088TIP3    H227680   3.589   0.666   0.315  0.3154  1.8835  1.8677
 2089TIP3   OH227681   4.136   0.666   3.017 -0.2851 -0.7284 -0.4173
 2089TIP3    H127682   4.105   0.750   2.984  0.9929  0.2010  0.6165
 2089TIP3    H227683   4.060   0.628   3.061 -0.9023 -0.1470 -0.9584
 2090TIP3   OH227684   4.680   0.640   1.609 -0.4611  0.2751 -0.0099
 2090TIP3    H127685   4.764   0.682   1.591  0.3744 -0.6578  1.5077
 2090TIP3    H227686   4.702   0.564   1.663 -2.2718 -0.0595  0.3276
 2091TIP3   OH227687   5.982   3.744   3.337 -0.1123  0.7924 -0.4181
 2091TIP3    H127688   5.903   3.749   3.392 -0.6647  1.1396 -1.2083
 2091TIP3    H227689   5.998   3.651   3.325  0.0673  0.7163  0.4035
 2092TIP3   OH227690   3.363   1.197  12.900  0.2245  0.1717  0.2455
 2092TIP3    H127691   3.303   1.139  12.854 -0.3177  0.9397 -0.0421
 2092TIP3    H227692   3.322   1.212  12.985 -0.4410  1.3521 -0.2518
 2093TIP3   OH227693   3.116   4.111   3.252 -0.0259  0.3294  0.5465
 2093TIP3    H127694   3.095   4.154   3.334  0.1669  2.2865 -0.3663
 2093TIP3    H227695   3.038   4.124   3.198  0.6099  0.9005 -0.2613
 2094TIP3   OH227696   3.844   0.155   3.321  0.5571 -0.6168 -0.0289
 2094TIP3    H127697   3.824   0.245   3.344 -0.7258 -0.3828 -1.8557
 2094TIP3    H227698   3.774   0.104   3.363  0.5025 -0.6017 -0.0999
 2095TIP3   OH227699   3.497   4.396   1.767  0.1625  0.1298  0.0167
 2095TIP3    H127700   3.528   4.460   1.831 -1.1391  2.0917 -1.1964
 2095TIP3    H227701   3.561   4.326   1.770  1.0066  0.9011  2.2860
 2096TIP3   OH227702   3.348   6.091  12.073 -0.5786 -0.6068 -0.3057
 2096TIP3    H127703   3.363   6.014  12.128 -0.7858 -0.7532 -0.4530
 2096TIP3    H227704   3.274   6.136  12.114 -0.2181 -0.2812 -0.0028
 2097TIP3   OH227705   5.301   6.132   2.425 -0.7601  0.3210  0.1609
 2097TIP3    H127706   5.241   6.162   2.357 -0.9808  0.1158  0.2630
 2097TIP3    H227707   5.304   6.204   2.488 -1.6142 -0.0262  0.6180
 2098TIP3   OH227708   3.712   0.696   1.138  0.1075  0.6501  0.0489
 2098TIP3    H127709   3.783   0.640   1.107  0.5056  1.0218  0.2798
 2098TIP3    H227710   3.690   0.751   1.063 -1.2440 -0.7355 -0.6441
 2099TIP3   OH227711   5.525   6.647   2.787  0.0103  0.6207  0.3972
 2099TIP3    H127712   5.616   6.646   2.758 -0.3755 -1.0432 -0.8887
 2099TIP3    H227713   5.482   6.711   2.730  0.1419  0.5923  0.2672
 2100TIP3   OH227714   3.172   5.993  17.074  0.0532 -0.0473  0.5363
 2100TIP3    H127715   3.240   6.019  17.136  0.1567 -3.3661  2.0257
 2100TIP3    H227716   3.220   5.968  16.994  0.5385 -1.2197  1.1670
 2101TIP3   OH227717   1.823   1.093   0.199 -0.3984  0.0052  0.6411
 2101TIP3    H127718   1.855   1.179   0.171 -1.4169  0.0624 -0.3826
 2101TIP3    H227719   1.848   1.088   0.291  0.4875  1.0082  0.4811
 2102TIP3   OH227720   1.585   2.108  12.023 -0.0833 -0.6438  0.6295
 2102TIP3    H127721   1.498   2.146  12.039  0.0562 -0.2950  0.5793
 2102TIP3    H227722   1.570   2.041  11.957  0.0843  1.3010 -1.4956
 2103TIP3   OH227723   3.852   4.403   5.853  0.0790  0.0709 -0.1617
 2103TIP3    H127724   3.840   4.473   5.916  2.2781 -0.3610  0.8409
 2103TIP3    H227725   3.871   4.448   5.770  0.3872  0.6688  0.2284
 2104TIP3   OH227726   5.779   5.477   0.575  0.1922 -0.2143 -0.1526
 2104TIP3    H127727   5.721   5.418   0.622 -1.5810  1.7637  0.2968
 2104TIP3    H227728   5.726   5.509   0.501  1.4298  0.0776 -0.9474
 2105TIP3   OH227729   0.368   0.715   5.582 -0.1204 -0.2335  0.1137
 2105TIP3    H127730   0.324   0.732   5.499 -0.6076 -2.1829 -0.0906
 2105TIP3    H227731   0.430   0.645   5.562  0.8228  0.3041  1.0821
 2106TIP3   OH227732   1.682   6.196   3.914 -0.4066 -0.1221  0.2539
 2106TIP3    H127733   1.598   6.158   3.889  0.6654 -2.5924  0.1545
 2106TIP3    H227734   1.720   6.229   3.832 -0.2376 -1.2247 -0.1227
 2107TIP3   OH227735   3.271   2.893  10.751 -0.0343  0.0667  0.0570
 2107TIP3    H127736   3.321   2.820  10.714  1.0278  0.5829  0.4299
 2107TIP3    H227737   3.190   2.853  10.781  1.0141 -1.2055  1.3365
 2108TIP3   OH227738   2.375   1.452   6.342  0.0530  0.2008  0.3729
 2108TIP3    H127739   2.420   1.516   6.397  0.1762  0.6921 -0.2889
 2108TIP3    H227740   2.357   1.499   6.260  1.0135 -0.8946 -0.4991
 2109TIP3   OH227741   2.975   2.151  12.390  0.4830  0.5195 -0.4396
 2109TIP3    H127742   2.937   2.067  12.367  0.1666  0.4601  0.2915
 2109TIP3    H227743   3.069   2.138  12.377  1.1555 -1.6211  4.3534
 2110TIP3   OH227744   1.201   6.195   4.776  0.4038 -0.1375  0.6414
 2110TIP3    H127745   1.172   6.152   4.696  0.5165  0.6876  0.1473
 2110TIP3    H227746   1.206   6.288   4.753  1.5352 -0.0242  1.2695
 2111TIP3   OH227747   1.788   3.284  15.264 -0.4163 -0.3517  0.2239
 2111TIP3    H127748   1.837   3.202  15.253 -1.1080 -1.1989  2.7968
 2111TIP3    H227749   1.852   3.347  15.295 -0.5149 -0.9047  1.6125
 2112TIP3   OH227750   3.693   4.351  13.979 -0.2125 -0.2113 -0.2184
 2112TIP3    H127751   3.739   4.427  14.016  0.1915 -0.6434  0.1708
 2112TIP3    H227752   3.603   4.381  13.970 -0.1249  0.2122  0.2372
 2113TIP3   OH227753   6.649   4.912   4.568 -0.2765 -0.2895  0.1055
 2113TIP3    H127754   6.682   4.934   4.655 -2.1821  1.7433  0.4233
 2113TIP3    H227755   6.597   4.833   4.581 -1.1868  0.4292  1.0142
 2114TIP3   OH227756   1.525   1.279   4.149 -0.3134  0.3487  0.4614
 2114TIP3    H127757   1.443   1.300   4.194  0.0052  1.4379  0.5527
 2114TIP3    H227758   1.543   1.356   4.095 -0.1439 -0.5046 -0.7477
 2115TIP3   OH227759   3.402   1.890  15.161 -0.2068  0.2677  0.1033
 2115TIP3    H127760   3.384   1.980  15.188  1.1154  0.3222  0.8741
 2115TIP3    H227761   3.451   1.899  15.079  1.2447  0.3349  0.9435
 2116TIP3   OH227762   5.606   2.047  13.018 -0.3312  0.1332  0.3307
 2116TIP3    H127763   5.558   2.090  12.947 -2.2992  0.7344  1.9043
 2116TIP3    H227764   5.674   2.110  13.042  1.2697 -0.6576 -1.8398
 2117TIP3   OH227765   1.777   4.277   3.540  0.0629 -0.5323  0.5000
 2117TIP3    H127766   1.688   4.269   3.505  0.2769  2.4758 -1.1402
 2117TIP3    H227767   1.829   4.219   3.485 -0.7873 -2.1737  1.3472
 2118TIP3   OH227768   5.842   0.751   1.704  0.3401 -0.2756 -0.5066
 2118TIP3    H127769   5.900   0.802   1.649 -0.5525  1.1859 -0.1513
 2118TIP3    H227770   5.870   0.660   1.692  3.5720  0.4394  0.7028
 2119TIP3   OH227771   1.721   4.449   1.252 -0.4829 -0.2982 -0.2212
 2119TIP3    H127772   1.771   4.513   1.303 -1.3720 -0.3750  0.7676
 2119TIP3    H227773   1.702   4.379   1.313 -2.0505 -0.1349 -0.4831
 2120TIP3   OH227774   3.069   3.036   6.043 -0.6667 -0.3726  0.0248
 2120TIP3    H127775   3.047   2.944   6.025  2.1712 -1.1310  0.0405
 2120TIP3    H227776   3.098   3.037   6.134  2.2412 -0.1602 -0.7993
 2121TIP3   OH227777   0.020   0.785  12.340 -0.2804 -0.3174 -0.1813
 2121TIP3    H127778  -0.019   0.765  12.425 -1.4782 -0.2098 -0.6824
 2121TIP3    H227779   0.095   0.841  12.361 -2.2889  2.2617  0.6917
 2122TIP3   OH227780   0.065   1.827   2.802  0.2296  0.0510  0.0812
 2122TIP3    H127781   0.093   1.918   2.803 -1.2513  0.5958 -1.9121
 2122TIP3    H227782  -0.017   1.826   2.850  0.6635 -0.4085  0.8247
 2123TIP3   OH227783   0.056   1.128  12.731  0.0489  0.3116  0.0168
 2123TIP3    H127784   0.057   1.179  12.812 -2.5758  0.3041  0.1395
 2123TIP3    H227785  -0.037   1.115  12.712  0.6113 -1.2074 -2.0588
 2124TIP3   OH227786   1.259   3.943  13.312 -0.0449 -0.2059  0.7067
 2124TIP3    H127787   1.255   4.033  13.344 -2.3545 -0.5315  1.5022
 2124TIP3    H227788   1.263   3.890  13.392  2.7231 -0.8434  0.2505
 2125TIP3   OH227789   0.593   5.975  13.213 -0.9111  0.1869 -0.0355
 2125TIP3    H127790   0.677   5.931  13.211 -0.3570  1.1937  0.2702
 2125TIP3    H227791   0.557   5.954  13.299 -1.1760 -0.5976 -0.3326
 2126TIP3   OH227792   5.323   0.191  11.521  0.1016  0.1763  0.1554
 2126TIP3    H127793   5.332   0.102  11.556 -2.5580 -0.0286  0.5595
 2126TIP3    H227794   5.382   0.244  11.574 -0.2602 -0.9351  1.7372
 2127TIP3   OH227795   3.586   3.047  14.509  0.0460 -0.1830 -0.1290
 2127TIP3    H127796   3.523   2.975  14.500  0.9112 -0.8119 -1.6003
 2127TIP3    H227797   3.595   3.061  14.603 -0.3287 -1.8351  0.1700
 2128TIP3   OH227798   1.982   1.144  16.745 -0.6302 -0.4560  0.2067
 2128TIP3    H127799   1.909   1.098  16.786  1.1760 -3.3104  0.5537
 2128TIP3    H227800   2.060   1.099  16.777  1.1105 -0.1155 -3.0308
 2129TIP3   OH227801   2.980   0.852   2.678 -0.2477  0.0107  0.1308
 2129TIP3    H127802   2.919   0.782   2.701 -1.2836  1.3321  1.6404
 2129TIP3    H227803   3.061   0.830   2.725 -0.6507 -0.0580  0.7992
 2130TIP3   OH227804   1.270   2.440  11.246  0.4746  0.1829 -0.0490
 2130TIP3    H127805   1.300   2.456  11.157 -1.3279  1.3847 -0.4976
 2130TIP3    H227806   1.341   2.392  11.287  3.0875  2.9804 -0.9526
 2131TIP3   OH227807   0.408   4.304   4.032  0.2497 -0.3502 -0.2581
 2131TIP3    H127808   0.379   4.214   4.017  2.9552 -1.7606  1.9049
 2131TIP3    H227809   0.503   4.302   4.016  0.5086  1.9267  0.5766
 2132TIP3   OH227810   2.466   3.228  11.772 -0.1708 -0.3206  0.2831
 2132TIP3    H127811   2.493   3.316  11.747  1.5091 -0.1717  2.3245
 2132TIP3    H227812   2.509   3.212  11.856  0.4150 -3.4743 -0.4629
 2133TIP3   OH227813   6.497   2.294  15.803 -0.4309 -0.4872  0.2041
 2133TIP3    H127814   6.581   2.251  15.792 -0.4517 -0.6216  0.5495
 2133TIP3    H227815   6.439   2.251  15.740 -0.3710 -0.7525  0.3264
 2134TIP3   OH227816   2.030   3.142   5.003 -0.2095 -0.4033  0.6039
 2134TIP3    H127817   1.960   3.201   5.030 -0.6570 -0.5881 -0.1416
 2134TIP3    H227818   2.110   3.191   5.018 -0.4344 -0.4671  2.2079
 2135TIP3   OH227819   2.711   3.870  15.868  0.3864  0.1330 -0.1151
 2135TIP3    H127820   2.683   3.936  15.931 -1.1133 -0.4431 -0.1408
 2135TIP3    H227821   2.804   3.859  15.886  0.0724  0.1954  1.8192
 2136TIP3   OH227822   0.409   6.236  11.205 -0.1070  0.5579  0.6564
 2136TIP3    H127823   0.332   6.279  11.241 -1.5921 -0.0448 -1.5677
 2136TIP3    H227824   0.434   6.291  11.131  0.9151  0.1392  0.6749
 2137TIP3   OH227825   0.310   4.739  10.880 -0.1273  0.3856 -0.6250
 2137TIP3    H127826   0.349   4.656  10.855  0.2713  0.4640 -0.2623
 2137TIP3    H227827   0.312   4.791  10.799  0.2198  0.2766 -0.6880
 2138TIP3   OH227828   4.572   2.280  16.961 -0.3562 -0.5198 -0.2766
 2138TIP3    H127829   4.522   2.198  16.964 -0.0987 -0.6533  1.1005
 2138TIP3    H227830   4.583   2.298  16.867 -4.2180  0.3057 -0.7719
 2139TIP3   OH227831   2.947   1.925  13.489  0.2597 -0.0809 -0.0489
 2139TIP3    H127832   2.958   1.897  13.580  0.9191  1.0110  0.2247
 2139TIP3    H227833   2.853   1.935  13.477  0.0852 -1.2845  0.1740
 2140TIP3   OH227834   5.645   4.578  12.650  0.2173  0.0386  0.0657
 2140TIP3    H127835   5.571   4.544  12.701 -3.0836  0.6552 -3.8482
 2140TIP3    H227836   5.672   4.505  12.595 -0.9609  1.1404 -2.0826
 2141TIP3   OH227837   3.179   2.722  14.611  0.4614  0.4694 -0.2151
 2141TIP3    H127838   3.084   2.726  14.616  0.5162  0.4601  1.5094
 2141TIP3    H227839   3.199   2.732  14.518 -1.2288  0.0476 -0.6516
 2142TIP3   OH227840   1.088   3.820  14.048  0.0307 -0.4900 -0.3042
 2142TIP3    H127841   1.040   3.742  14.018  2.1957 -1.0337 -2.7441
 2142TIP3    H227842   1.172   3.786  14.077  0.0493  0.7225  1.1806
 2143TIP3   OH227843   1.615   2.577  16.282  0.1992 -0.0995 -0.1868
 2143TIP3    H127844   1.643   2.485  16.289 -1.3992 -0.5557  0.5984
 2143TIP3    H227845   1.574   2.582  16.195  2.7127  0.6300 -1.4450
 2144TIP3   OH227846   6.241   3.757  12.281 -0.3150 -0.0597  0.1846
 2144TIP3    H127847   6.250   3.806  12.363 -2.3503  0.7953 -0.0357
 2144TIP3    H227848   6.302   3.800  12.220  2.0081 -1.3680  1.4436
 2145TIP3   OH227849   3.916   3.046   0.649  0.1350 -0.2091 -0.0244
 2145TIP3    H127850   3.969   3.123   0.669  0.7254 -0.3366 -0.9968
 2145TIP3    H227851   3.827   3.071   0.672  0.3727  0.6416  0.0104
 2146TIP3   OH227852   2.313   0.707  13.890 -0.9159  0.3146 -0.1933
 2146TIP3    H127853   2.233   0.689  13.840 -0.1364 -1.3017 -0.9342
 2146TIP3    H227854   2.369   0.756  13.829  0.5895 -2.8181 -1.5972
 2147TIP3   OH227855   4.894   1.439  12.758 -0.5148  0.6670  0.0967
 2147TIP3    H127856   4.847   1.401  12.833  0.2992 -0.7627 -0.0819
 2147TIP3    H227857   4.954   1.503  12.797  2.5484 -2.5416  1.2470
 2148TIP3   OH227858   2.802   3.562   0.849 -0.4458  0.2081  0.2693
 2148TIP3    H127859   2.802   3.657   0.836  1.0044  0.2936  0.7714
 2148TIP3    H227860   2.800   3.550   0.944  1.6368 -0.1856  0.3197
 2149TIP3   OH227861   5.858   5.528  12.937  1.1676  0.9263  0.3724
 2149TIP3    H127862   5.824   5.570  12.857  2.0348 -0.1774 -0.6030
 2149TIP3    H227863   5.953   5.535  12.929  1.2556  1.1599  1.5228
 2150TIP3   OH227864   0.563   6.683   6.471  0.3109 -0.0979  1.3196
 2150TIP3    H127865   0.608   6.611   6.427 -0.6584  0.6777 -1.1070
 2150TIP3    H227866   0.561   6.657   6.563  1.9110 -2.1181  0.8663
 2151TIP3   OH227867   1.209   3.800   5.199  0.4212  0.3873  0.3557
 2151TIP3    H127868   1.257   3.730   5.243  0.2907 -1.0946 -1.6861
 2151TIP3    H227869   1.128   3.758   5.169 -0.0085  1.6175 -0.2724
 2152TIP3   OH227870   3.682   1.282  16.683 -0.7330  0.2074 -0.3018
 2152TIP3    H127871   3.721   1.202  16.647 -0.9464 -0.4513  0.8798
 2152TIP3    H227872   3.595   1.285  16.643 -0.3430  0.4467 -1.1741
 2153TIP3   OH227873   5.975   1.629   0.378 -0.6482  0.0080  0.4673
 2153TIP3    H127874   5.992   1.540   0.348 -0.6630 -0.2774  1.2887
 2153TIP3    H227875   6.059   1.659   0.413 -0.7832  0.1025  0.7152
 2154TIP3   OH227876   2.366   3.758  13.971 -0.2052  0.3903  0.2012
 2154TIP3    H127877   2.338   3.849  13.963 -0.3777  0.3229  0.0264
 2154TIP3    H227878   2.287   3.711  13.996 -0.2296  0.2122 -0.1983
 2155TIP3   OH227879   3.401   6.275  16.148 -0.5299 -0.2787 -0.2127
 2155TIP3    H127880   3.410   6.269  16.243 -0.8657 -0.9840 -0.2183
 2155TIP3    H227881   3.386   6.184  16.120  0.1508 -0.1596 -0.9951
 2156TIP3   OH227882   0.627   2.374  13.479  0.5890  1.4392  0.0144
 2156TIP3    H127883   0.667   2.348  13.396  0.9552  2.4113 -0.1360
 2156TIP3    H227884   0.700   2.404  13.532  0.4734 -0.0656  1.0637
 2157TIP3   OH227885   1.431   3.981   4.377  0.1210 -0.0108 -0.4736
 2157TIP3    H127886   1.345   4.022   4.374 -0.4205 -1.1180 -0.4913
 2157TIP3    H227887   1.477   4.016   4.301 -0.2385  0.7538 -0.3424
 2158TIP3   OH227888   2.580   2.300   1.272 -0.1977  0.2957 -0.6727
 2158TIP3    H127889   2.627   2.217   1.268 -1.2407 -0.5470  2.1744
 2158TIP3    H227890   2.635   2.357   1.325 -0.0584  1.0339 -1.5891
 2159TIP3   OH227891   0.209   3.127   2.146 -0.0944  0.2135 -0.0866
 2159TIP3    H127892   0.267   3.102   2.218 -0.1136  1.2868  0.3123
 2159TIP3    H227893   0.211   3.222   2.144 -0.6651  0.2286 -1.0502
 2160TIP3   OH227894   5.428   2.383   4.500  0.5058 -0.1204 -0.7332
 2160TIP3    H127895   5.524   2.381   4.502  0.4943 -1.5911  0.4044
 2160TIP3    H227896   5.407   2.470   4.465  2.2420  0.8220  0.3800
 2161TIP3   OH227897   6.357   6.011   0.028 -0.3483  0.4202 -0.8285
 2161TIP3    H127898   6.417   5.940   0.005 -1.5221 -0.5904 -0.8938
 2161TIP3    H227899   6.405   6.063   0.093  1.4447  0.9820 -2.5236
 2162TIP3   OH227900   2.862   5.045   2.813  0.1906  0.1687  0.1029
 2162TIP3    H127901   2.785   5.100   2.826 -0.0084 -0.3731  1.4448
 2162TIP3    H227902   2.834   4.957   2.840  0.5774 -0.5677 -1.7434
 2163TIP3   OH227903   6.304   3.196   1.654 -0.1019  0.2224  0.1821
 2163TIP3    H127904   6.398   3.213   1.646 -0.1363  0.4016  0.1604
 2163TIP3    H227905   6.296   3.101   1.648  0.0230  0.2457 -0.3540
 2164TIP3   OH227906   5.267   5.104   0.838  0.1067 -0.2106  0.1900
 2164TIP3    H127907   5.232   5.147   0.916  0.2004 -0.3040  0.2850
 2164TIP3    H227908   5.247   5.011   0.851  0.4559 -0.2765  0.2840
 2165TIP3   OH227909   5.565   5.853  15.529  0.0453  0.4403  0.3862
 2165TIP3    H127910   5.561   5.892  15.442 -0.9277 -1.3600 -0.4290
 2165TIP3    H227911   5.657   5.859  15.554  0.7197 -0.7472 -1.6073
 2166TIP3   OH227912   3.415   0.461   1.182  0.2328  0.1550  0.3782
 2166TIP3    H127913   3.411   0.535   1.242 -0.4057  1.4083 -1.1233
 2166TIP3    H227914   3.333   0.413   1.196 -0.5842  1.2640 -0.4575
 2167TIP3   OH227915   5.273   6.551  11.265  0.2115  0.1347 -0.9670
 2167TIP3    H127916   5.192   6.566  11.217  0.7493  1.0718 -1.6036
 2167TIP3    H227917   5.245   6.518  11.350 -0.8902  1.3944 -0.8246
 2168TIP3   OH227918   4.220   4.140   2.271  0.0217  0.1641  0.0547
 2168TIP3    H127919   4.228   4.061   2.218  0.3075  0.4744 -0.3725
 2168TIP3    H227920   4.170   4.201   2.217 -0.5490  0.1328  0.5469
 2169TIP3   OH227921   2.524   2.139   2.010 -0.3874 -0.0996 -0.6298
 2169TIP3    H127922   2.480   2.196   1.947  0.7776  0.6037 -0.8415
 2169TIP3    H227923   2.454   2.102   2.062 -1.3904 -0.6992 -2.3349
 2170TIP3   OH227924   2.948   0.417  15.046  0.0786  0.2756 -0.6354
 2170TIP3    H127925   3.002   0.437  15.122  0.0740 -0.0187 -0.5518
 2170TIP3    H227926   3.008   0.377  14.983 -0.3708 -1.9035  0.2089
 2171TIP3   OH227927   1.145   2.014   3.303  0.0211 -0.8380 -0.6177
 2171TIP3    H127928   1.108   2.000   3.215 -2.0432 -0.3732  0.1319
 2171TIP3    H227929   1.239   2.002   3.291  0.1262  1.6204 -3.4062
 2172TIP3   OH227930   0.035   3.146  16.244 -0.6674 -0.1736 -0.7663
 2172TIP3    H127931   0.070   3.231  16.216 -2.6765  0.5647 -1.2520
 2172TIP3    H227932   0.101   3.110  16.302  1.3047  0.6484 -2.3791
 2173TIP3   OH227933   5.325   3.694  14.158 -0.1491  0.1567  0.3997
 2173TIP3    H127934   5.364   3.675  14.072  1.3537 -2.8099  1.5747
 2173TIP3    H227935   5.232   3.702  14.141  0.2598  1.1565 -1.6891
 2174TIP3   OH227936   2.486   0.994   2.205  0.2766  0.8172 -0.8120
 2174TIP3    H127937   2.522   1.081   2.223 -1.5962  1.2970  0.8724
 2174TIP3    H227938   2.408   1.011   2.151  0.5357  0.0769 -1.4429
 2175TIP3   OH227939   2.392   4.608   3.713  0.0217 -0.2805  0.2806
 2175TIP3    H127940   2.344   4.531   3.684 -0.9611  0.3083  0.3145
 2175TIP3    H227941   2.433   4.642   3.633 -2.1435  0.9598 -0.3818
 2176TIP3   OH227942   5.646   1.884  11.874  0.6192  0.0681 -0.4741
 2176TIP3    H127943   5.672   1.820  11.807 -0.6505  0.7679 -1.7025
 2176TIP3    H227944   5.566   1.847  11.911  0.6552  0.2739 -0.1916
 2177TIP3   OH227945   4.094   2.779  16.002  0.1207  0.0513 -0.0500
 2177TIP3    H127946   4.119   2.867  15.972 -0.7292  0.4516  0.3620
 2177TIP3    H227947   4.145   2.719  15.948  0.0006  0.7865 -0.9997
 2178TIP3   OH227948   0.124   0.063  14.537  0.1175  1.0656 -0.2646
 2178TIP3    H127949   0.138  -0.007  14.601 -1.7741  2.0775  1.3773
 2178TIP3    H227950   0.122   0.143  14.590 -0.1360  2.0940 -1.7914
 2179TIP3   OH227951   4.314   5.696  16.022  0.7346 -0.4210 -0.0970
 2179TIP3    H127952   4.384   5.694  15.956 -0.9513 -0.9619 -1.9673
 2179TIP3    H227953   4.266   5.776  16.003  0.9692  0.0777  1.3390
 2180TIP3   OH227954   4.929   4.362  12.096  0.0162  0.1083  0.0026
 2180TIP3    H127955   4.928   4.317  12.011  2.3001  0.0236 -0.0409
 2180TIP3    H227956   4.885   4.302  12.156 -2.6058  0.6132 -1.2540
 2181TIP3   OH227957   0.360   3.423  13.705 -0.6624  0.0250  0.3338
 2181TIP3    H127958   0.351   3.330  13.688  1.5212 -0.0383 -0.7597
 2181TIP3    H227959   0.375   3.429  13.800 -2.2132 -0.5479  0.6613
 2182TIP3   OH227960   0.036   0.303  11.442 -0.6592 -0.1947  1.0791
 2182TIP3    H127961  -0.021   0.372  11.477 -3.9741 -2.1058 -0.1306
 2182TIP3    H227962   0.017   0.302  11.349  1.2831 -1.0930  0.6546
 2183TIP3   OH227963   6.350   3.477   6.354  0.0532  0.2394  0.3502
 2183TIP3    H127964   6.341   3.564   6.316  0.4596  0.9154  1.7351
 2183TIP3    H227965   6.428   3.440   6.313  0.3619  0.8703  0.3600
 2184TIP3   OH227966   6.544   6.011  17.068 -0.4310 -0.1239 -0.4430
 2184TIP3    H127967   6.637   6.008  17.049 -0.0310 -0.3515  1.3165
 2184TIP3    H227968   6.527   6.102  17.093 -0.6839 -0.0763 -0.7890
 2185TIP3   OH227969   2.420   1.326   5.321  0.4521  0.2842  0.0933
 2185TIP3    H127970   2.352   1.372   5.271 -0.5290 -0.0580  1.0526
 2185TIP3    H227971   2.493   1.387   5.324 -0.4939  1.4548  0.5711
 2186TIP3   OH227972   2.637   6.316   5.234  0.1108  0.2878 -0.0071
 2186TIP3    H127973   2.573   6.282   5.172  2.3725 -1.2314 -1.6639
 2186TIP3    H227974   2.585   6.365   5.297 -2.4713  0.7446 -2.2922
 2187TIP3   OH227975   3.059   1.347  14.302 -0.0889  0.8364  0.0024
 2187TIP3    H127976   3.074   1.442  14.305 -0.7233  0.9248  1.7543
 2187TIP3    H227977   3.002   1.330  14.377  2.5985 -1.3725  1.7636
 2188TIP3   OH227978   2.697   4.374  12.640  0.0847  0.6465 -0.5442
 2188TIP3    H127979   2.657   4.423  12.568 -1.1961  1.1958  0.4967
 2188TIP3    H227980   2.779   4.420  12.658 -1.0537  2.4722  0.3708
 2189TIP3   OH227981   0.187   2.579  14.853 -0.1884 -0.1330 -0.2547
 2189TIP3    H127982   0.095   2.560  14.871 -1.2713  2.7412 -1.9571
 2189TIP3    H227983   0.207   2.654  14.909  0.4695  0.4640 -1.2549
 2190TIP3   OH227984   3.310   2.124  13.953  1.0246 -0.2314 -0.1839
 2190TIP3    H127985   3.257   2.115  13.874  0.8889 -1.0689 -0.0076
 2190TIP3    H227986   3.381   2.183  13.927  0.0510  0.8573 -0.4329
 2191TIP3   OH227987   6.034   4.457  11.424  0.1239  0.1151 -0.5670
 2191TIP3    H127988   5.967   4.408  11.472  0.6042 -0.5199 -0.5325
 2191TIP3    H227989   5.991   4.538  11.399 -0.2084  0.3840  0.7871
 2192TIP3   OH227990   4.376   4.554   0.921 -0.5069 -0.6490 -0.3064
 2192TIP3    H127991   4.447   4.533   0.860 -1.1014 -2.1960 -0.5104
 2192TIP3    H227992   4.417   4.610   0.987  0.8532 -1.3045 -0.5532
 2193TIP3   OH227993   2.115   6.665  17.270 -0.1262 -0.1998 -0.1802
 2193TIP3    H127994   2.162   6.592  17.310  1.2058  1.1362  0.7929
 2193TIP3    H227995   2.133   6.657  17.176  0.0089 -1.1003 -0.0831
 2194TIP3   OH227996   1.047   3.586   5.837  0.3625 -0.4400 -0.0890
 2194TIP3    H127997   0.968   3.583   5.891 -0.3862 -0.5661 -1.1664
 2194TIP3    H227998   1.058   3.678   5.813  1.7424 -0.0673  1.7330
 2195TIP3   OH227999   2.418   1.226   5.628  0.1223  0.0726  0.3925
 2195TIP3    H128000   2.392   1.243   5.537 -0.3398 -1.6924  0.1538
 2195TIP3    H228001   2.387   1.137   5.646  0.4558  0.2738  2.1980
 2196TIP3   OH228002   6.635   0.065  15.958 -0.0065 -0.1905 -0.8223
 2196TIP3    H128003   6.542   0.069  15.936 -0.7095 -0.6769  1.7090
 2196TIP3    H228004   6.649  -0.026  15.984  1.2693 -0.1765 -1.3977
 2197TIP3   OH228005   1.663   4.947  11.192  0.4622 -0.1763 -0.1070
 2197TIP3    H128006   1.637   4.889  11.263 -0.2298 -0.6262 -0.7083
 2197TIP3    H228007   1.752   4.973  11.213  0.0091  0.3325  1.3365
 2198TIP3   OH228008   3.409   5.586  14.894 -0.1007 -0.0835  0.4080
 2198TIP3    H128009   3.381   5.588  14.985 -0.5976  0.6830  0.2535
 2198TIP3    H228010   3.491   5.537  14.894  0.9894  1.6456  1.5763
 2199TIP3   OH228011   4.351   3.694  15.943 -0.6522 -0.4987  0.0019
 2199TIP3    H128012   4.350   3.789  15.944 -1.6503 -0.5115  0.8028
 2199TIP3    H228013   4.444   3.672  15.936 -0.4537  0.5230 -0.8365
 2200TIP3   OH228014   3.662   0.708  11.694 -0.0377  0.3927 -0.5068
 2200TIP3    H128015   3.726   0.741  11.757 -0.5277 -0.8189  0.6805
 2200TIP3    H228016   3.680   0.756  11.614  1.8168  0.6570  0.0326
 2201TIP3   OH228017   4.731   4.500  16.244  0.3714  0.1121  0.3471
 2201TIP3    H128018   4.716   4.540  16.330 -0.9983 -1.3282  0.8253
 2201TIP3    H228019   4.783   4.422  16.263  0.0212 -0.2415 -0.1158
 2202TIP3   OH228020   2.893   2.453  11.227  0.1647 -0.2624  0.2593
 2202TIP3    H128021   2.950   2.474  11.153 -0.2584  0.1046  0.0372
 2202TIP3    H228022   2.840   2.379  11.198  1.7853 -1.8421  1.1055
 2203TIP3   OH228023   0.034   1.026  10.087 -0.0344 -0.0736  0.2554
 2203TIP3    H128024   0.053   1.007  10.178  0.1091 -0.4828  0.1419
 2203TIP3    H228025   0.045   1.121  10.079  0.5468 -0.1182  0.5231
 2204TIP3   OH228026   4.563   5.165  11.814  0.0488 -0.1690 -0.4199
 2204TIP3    H128027   4.539   5.258  11.814  1.5613  0.2846  1.1213
 2204TIP3    H228028   4.550   5.136  11.724  0.3943  1.7914 -1.1454
 2205TIP3   OH228029   4.508   2.397   1.039  0.3444  0.4874  0.2820
 2205TIP3    H128030   4.441   2.351   0.988  0.7906  0.2775 -0.1255
 2205TIP3    H228031   4.477   2.487   1.044 -0.4469  0.1876  0.9271
 2206TIP3   OH228032   5.610   1.079   3.707  0.2147  0.2121  0.1182
 2206TIP3    H128033   5.541   1.100   3.645  0.0320  1.5358  0.7475
 2206TIP3    H228034   5.573   1.099   3.793  1.7131  1.9698  0.4144
 2207TIP3   OH228035   1.594   1.084   4.465 -0.6760 -0.1708  0.0365
 2207TIP3    H128036   1.680   1.096   4.506 -0.4770 -1.7245  0.1311
 2207TIP3    H228037   1.573   1.171   4.429  0.8673  0.2797  0.1206
 2208TIP3   OH228038   3.283   6.124  11.177 -0.6607 -0.6100 -0.2588
 2208TIP3    H128039   3.358   6.110  11.120 -0.5336  0.5605 -0.4146
 2208TIP3    H228040   3.311   6.092  11.263 -0.4087 -1.2489 -0.5796
 2209TIP3   OH228041   5.539   5.903   1.999 -0.2200  0.2449  0.4881
 2209TIP3    H128042   5.607   5.894   2.066 -0.4391 -0.0436  0.6680
 2209TIP3    H228043   5.462   5.861   2.036  0.0856 -1.3672 -0.5784
 2210TIP3   OH228044   2.913   6.726  13.889  0.3745  0.0727  0.0690
 2210TIP3    H128045   2.962   6.788  13.942 -1.4433  0.2404  1.6478
 2210TIP3    H228046   2.980   6.673  13.846  1.9515  2.2966 -0.3792
 2211TIP3   OH228047   0.411   0.286   3.787 -0.6446 -0.1161 -0.4305
 2211TIP3    H128048   0.495   0.270   3.742  0.3415  0.4560  1.1326
 2211TIP3    H228049   0.368   0.353   3.734  0.1496 -0.0005 -0.9496
 2212TIP3   OH228050   0.001   1.675   0.728 -0.2578  0.0674 -0.5371
 2212TIP3    H128051  -0.054   1.744   0.690 -0.9179 -0.1443  0.0053
 2212TIP3    H228052  -0.052   1.640   0.800 -0.3994 -1.7236 -1.4442
 2213TIP3   OH228053   2.919   6.353   3.783 -0.3160  0.0249 -0.2799
 2213TIP3    H128054   2.924   6.427   3.843 -0.6747 -0.7448  0.7175
 2213TIP3    H228055   2.979   6.288   3.819  0.2191 -0.0764 -1.3097
 2214TIP3   OH228056   6.161   3.168   5.679 -0.4348 -0.7384 -0.0120
 2214TIP3    H128057   6.235   3.108   5.687  1.5865  1.7976  2.9736
 2214TIP3    H228058   6.109   3.153   5.759 -3.5574 -2.7257 -2.2082
 2215TIP3   OH228059   4.982   5.504   5.097 -0.1188  0.1414 -0.4375
 2215TIP3    H128060   4.940   5.588   5.080 -0.5845  0.1665  0.7459
 2215TIP3    H228061   4.983   5.496   5.192  0.9646 -0.6758 -0.4962
 2216TIP3   OH228062   6.645   1.495  11.170 -0.3005 -0.2318 -0.4618
 2216TIP3    H128063   6.698   1.430  11.124 -0.2924 -0.6315  0.1028
 2216TIP3    H228064   6.650   1.574  11.115 -1.0520 -0.9629 -1.6245
 2217TIP3   OH228065   4.804   1.036   5.275 -0.0142 -0.2681 -0.4200
 2217TIP3    H128066   4.785   1.036   5.368 -1.2196 -1.7650 -0.6294
 2217TIP3    H228067   4.817   1.128   5.253 -0.1735  0.1419  1.1307
 2218TIP3   OH228068   0.464   5.173   1.845 -0.4811  0.4728  0.0782
 2218TIP3    H128069   0.543   5.153   1.896 -0.1691  0.8871 -0.2392
 2218TIP3    H228070   0.414   5.232   1.901 -0.0479  1.0806 -0.1687
 2219TIP3   OH228071   2.552   5.614   5.597  0.0910  0.3548  0.1910
 2219TIP3    H128072   2.625   5.599   5.657  0.7675  0.2594 -0.6318
 2219TIP3    H228073   2.587   5.674   5.532 -0.0728 -0.8649 -1.0689
 2220TIP3   OH228074   6.341   6.388   2.969  0.2992  0.2085  0.4793
 2220TIP3    H128075   6.300   6.442   2.901 -2.4106 -1.3826  0.7174
 2220TIP3    H228076   6.391   6.323   2.920  0.9565  0.9644  0.1215
 2221TIP3   OH228077   0.086   5.884  12.118  0.2578 -0.1666  0.3870
 2221TIP3    H128078   0.072   5.869  12.025  0.8394 -0.1635  0.2977
 2221TIP3    H228079   0.014   5.942  12.144  0.2649  0.0731 -0.1234
 2222TIP3   OH228080   6.547   1.184  11.754  0.2133 -0.6821 -0.3381
 2222TIP3    H128081   6.537   1.247  11.682  1.2093 -0.9311 -0.6993
 2222TIP3    H228082   6.557   1.239  11.832  3.9086 -0.2146 -0.9604
 2223TIP3   OH228083   5.000   1.984  12.803  0.2312  0.1720  0.3856
 2223TIP3    H128084   4.914   2.025  12.807  0.9423  1.6959  0.7380
 2223TIP3    H228085   4.984   1.898  12.765 -1.4481  0.4042  0.5064
 2224TIP3   OH228086   4.243   4.017   1.887  0.8859 -0.0135 -0.1013
 2224TIP3    H128087   4.204   4.056   1.808  0.1093  0.0555  0.2972
 2224TIP3    H228088   4.220   4.079   1.957  1.3448 -0.2020  0.2174
 2225TIP3   OH228089   0.592   1.476  17.137  0.2920  0.2355 -0.5757
 2225TIP3    H128090   0.638   1.427  17.069  2.5649  2.0053 -0.4263
 2225TIP3    H228091   0.646   1.554  17.151 -1.6536  1.3668  1.2117
 2226TIP3   OH228092   4.084   1.171  16.151  0.5121 -0.0718  0.3616
 2226TIP3    H128093   4.065   1.114  16.077 -0.1747 -0.5344  0.8803
 2226TIP3    H228094   4.005   1.223  16.163  0.2421 -0.6747  1.3540
 2227TIP3   OH228095   6.465   6.559   4.195  0.5500  0.1036 -1.0653
 2227TIP3    H128096   6.463   6.624   4.265 -2.6699 -1.0351  0.0974
 2227TIP3    H228097   6.444   6.609   4.116  0.8736  0.8805 -0.6750
 2228TIP3   OH228098   3.430   2.784   0.015 -0.6719  0.2070 -0.6736
 2228TIP3    H128099   3.426   2.746  -0.073 -3.0527 -0.5902 -0.2774
 2228TIP3    H228100   3.398   2.715   0.073 -0.3085  1.1392  0.6917
 2229TIP3   OH228101   6.590   4.293   2.669  0.3530 -0.0172 -0.2582
 2229TIP3    H128102   6.579   4.329   2.757  0.5442 -0.2485 -0.1388
 2229TIP3    H228103   6.684   4.278   2.661  0.3940  0.4481 -0.6814
 2230TIP3   OH228104   4.052   6.436   5.720 -0.0724  0.0650  0.2785
 2230TIP3    H128105   4.028   6.506   5.780 -0.7764  1.2054 -1.2559
 2230TIP3    H228106   4.075   6.362   5.776 -3.6620  0.0446  1.9567
 2231TIP3   OH228107   0.110   3.602   0.194  0.0416 -0.4270  0.3406
 2231TIP3    H128108   0.103   3.591   0.289  0.5404 -0.8627  0.3318
 2231TIP3    H228109   0.169   3.531   0.166 -1.7771 -1.6601 -0.5639
 2232TIP3   OH228110   2.920   4.600   4.428 -0.5962 -0.5008 -0.6784
 2232TIP3    H128111   2.965   4.613   4.512 -0.6215  3.5735 -1.0953
 2232TIP3    H228112   2.829   4.581   4.451 -0.5410  0.3116  0.2654
 2233TIP3   OH228113   0.213   2.479   4.801 -0.0409 -0.4042  0.8634
 2233TIP3    H128114   0.278   2.548   4.789 -1.7268  1.1275 -0.0687
 2233TIP3    H228115   0.173   2.498   4.886  2.1915 -2.7310  2.5770
 2234TIP3   OH228116   2.351   3.130  13.283 -0.2429  0.6171 -0.1371
 2234TIP3    H128117   2.377   3.066  13.217  0.7621 -1.0140  1.7542
 2234TIP3    H228118   2.263   3.102  13.310  0.5345 -0.5429  1.2976
 2235TIP3   OH228119   1.791   3.004  14.321 -0.3851  0.2135 -0.1189
 2235TIP3    H128120   1.883   3.008  14.348 -0.2669  2.8769 -0.7008
 2235TIP3    H228121   1.773   2.910  14.313  2.5298 -0.3750 -0.8425
 2236TIP3   OH228122   5.009   3.184  11.943  0.4268  0.0116 -0.3819
 2236TIP3    H128123   4.978   3.113  11.998  1.4113  0.9380  1.4804
 2236TIP3    H228124   4.946   3.189  11.872 -1.1098 -1.0505  0.8377
 2237TIP3   OH228125   1.202   6.684   0.360  0.1102 -0.0063  0.3432
 2237TIP3    H128126   1.183   6.701   0.268  0.4017  1.6036  0.5435
 2237TIP3    H228127   1.253   6.603   0.359  1.8188  0.9977 -1.1387
 2238TIP3   OH228128   3.767   5.360   0.053  0.0148 -0.8372 -0.2122
 2238TIP3    H128129   3.862   5.349   0.057 -0.0937 -1.9690 -0.3606
 2238TIP3    H228130   3.753   5.432  -0.009  0.8097  0.2900  0.8737
 2239TIP3   OH228131   5.776   0.758  11.047 -0.2486  0.2944 -0.0728
 2239TIP3    H128132   5.798   0.850  11.035  1.5149  0.0700  1.0640
 2239TIP3    H228133   5.688   0.759  11.085  1.4883  1.8340  4.5030
 2240TIP3   OH228134   3.573   1.647  14.290 -0.3699 -0.0781  0.1506
 2240TIP3    H128135   3.613   1.574  14.337  2.0137  0.8364 -0.3145
 2240TIP3    H228136   3.605   1.638  14.200 -2.2866  0.0093 -0.5896
 2241TIP3   OH228137   1.403   1.429  15.219 -0.1350  0.8091 -0.6266
 2241TIP3    H128138   1.310   1.418  15.196 -0.0932 -1.2099  0.0074
 2241TIP3    H228139   1.448   1.360  15.170  1.3074  2.6943 -2.1435
 2242TIP3   OH228140   2.565   5.408   2.415  0.3009  0.5992 -0.0950
 2242TIP3    H128141   2.615   5.427   2.495 -0.7631  1.7933  0.3070
 2242TIP3    H228142   2.609   5.331   2.378  1.7377  0.9219  0.8366
 2243TIP3   OH228143   0.059   4.156  15.235 -0.2309 -0.3293  0.0447
 2243TIP3    H128144   0.143   4.170  15.279 -0.9427  1.3594  0.9903
 2243TIP3    H228145   0.071   4.077  15.184  1.5199 -0.8602  1.1968
 2244TIP3   OH228146   6.316   2.644   6.133  0.4788  0.3560  0.2684
 2244TIP3    H128147   6.369   2.690   6.198  1.3651 -1.0444  0.5961
 2244TIP3    H228148   6.246   2.603   6.184 -0.0010  0.8864  0.0501
 2245TIP3   OH228149   1.347   6.494   5.016  0.2653 -0.4371  0.2862
 2245TIP3    H128150   1.294   6.449   4.951  2.3134 -2.1967 -0.2685
 2245TIP3    H228151   1.437   6.472   4.994  1.1837  1.0795  2.1627
 2246TIP3   OH228152   3.222   3.621  15.652  0.0429 -0.3555  0.7886
 2246TIP3    H128153   3.285   3.561  15.612 -0.6672 -1.2903  1.0222
 2246TIP3    H228154   3.266   3.706  15.652  0.4617 -0.5171 -1.0582
 2247TIP3   OH228155   2.153   3.570   1.159 -0.3712  0.3467 -0.6726
 2247TIP3    H128156   2.060   3.555   1.175 -0.2135  0.1877  0.1196
 2247TIP3    H228157   2.165   3.543   1.068 -0.5096 -2.6086  0.0600
 2248TIP3   OH228158   0.053   6.269   1.161 -0.3423 -0.0393  0.0931
 2248TIP3    H128159  -0.025   6.325   1.166 -0.9572 -0.9536  3.5263
 2248TIP3    H228160   0.119   6.314   1.214  0.0445 -1.2042  0.6564
 2249TIP3   OH228161   4.129   0.498  11.141 -0.2186  0.4751 -0.3499
 2249TIP3    H128162   4.055   0.474  11.085  1.3814 -1.7163 -1.6548
 2249TIP3    H228163   4.178   0.563  11.090 -0.3571  0.7063 -0.1901
 2250TIP3   OH228164   1.030   4.179   6.268  0.0274  0.2191 -0.7109
 2250TIP3    H128165   1.016   4.245   6.336  2.3053  0.6837 -0.6078
 2250TIP3    H228166   0.942   4.155   6.239 -0.9447  1.2420  1.2066
 2251TIP3   OH228167   3.752   0.744  16.511 -0.0753 -0.3809  0.0022
 2251TIP3    H128168   3.842   0.743  16.542  0.3637 -1.2716 -1.1970
 2251TIP3    H228169   3.706   0.682  16.567  0.2130 -0.4298  0.1844
 2252TIP3   OH228170   1.902   0.195   2.980  0.3521 -0.0075  0.0764
 2252TIP3    H128171   1.842   0.175   3.052  0.3701  0.1957  0.1486
 2252TIP3    H228172   1.861   0.157   2.903  0.8694 -1.2066  0.3739
 2253TIP3   OH228173   5.361   1.042   5.344 -0.1405 -0.1015 -0.3977
 2253TIP3    H128174   5.335   0.972   5.285  1.2523  0.2158 -1.4510
 2253TIP3    H228175   5.386   1.115   5.287 -0.8062  0.9931  0.6495
 2254TIP3   OH228176   0.254   6.009  16.756 -0.0030  0.5880  0.1136
 2254TIP3    H128177   0.240   6.091  16.804 -1.2835 -0.3263  1.3869
 2254TIP3    H228178   0.344   5.983  16.779 -0.3148  0.5908  1.3963
 2255TIP3   OH228179   5.108   1.803   4.948 -0.2113 -0.9839  0.2894
 2255TIP3    H128180   5.133   1.846   4.867 -0.4666 -1.4090 -0.0253
 2255TIP3    H228181   5.105   1.872   5.013 -2.8328 -0.0589 -0.6607
 2256TIP3   OH228182   0.701   6.712  16.430  0.5677  0.2026 -0.0889
 2256TIP3    H128183   0.754   6.733  16.507  0.7203  0.0927 -0.1638
 2256TIP3    H228184   0.618   6.757  16.445 -0.3252 -1.7424  1.2850
 2257TIP3   OH228185   5.692   2.090  15.849 -0.3011 -0.1179 -0.0053
 2257TIP3    H128186   5.648   2.057  15.772  0.8045 -1.8037  0.0419
 2257TIP3    H228187   5.750   2.159  15.816 -0.7678  0.0626 -0.4667
 2258TIP3   OH228188   2.206   4.945  16.783 -0.1707 -0.2281 -0.2373
 2258TIP3    H128189   2.253   5.027  16.787  0.2565 -0.5310  1.9135
 2258TIP3    H228190   2.273   4.877  16.792 -0.8673 -0.6590  3.3409
 2259TIP3   OH228191   1.077   4.782   6.104 -0.7215 -0.3489 -0.8219
 2259TIP3    H128192   1.140   4.820   6.166  1.2193 -1.0274 -2.2621
 2259TIP3    H228193   1.076   4.842   6.030  0.1983 -1.5875 -1.8898
 2260TIP3   OH228194   3.682   6.452   4.195 -0.0550  0.1035  0.0564
 2260TIP3    H128195   3.690   6.505   4.116  2.1454  0.9953  0.7993
 2260TIP3    H228196   3.760   6.397   4.196 -0.8616 -1.0775  0.7970
 2261TIP3   OH228197   3.286   0.528  14.169 -0.4245  1.0477 -0.4798
 2261TIP3    H128198   3.336   0.609  14.180  0.9184  0.0285  1.5908
 2261TIP3    H228199   3.353   0.461  14.154 -1.3600  0.0250 -0.1680
 2262TIP3   OH228200   4.531   4.181   4.973 -0.3069 -0.8387  0.2806
 2262TIP3    H128201   4.538   4.158   5.066  0.7881 -0.2544  0.3684
 2262TIP3    H228202   4.445   4.149   4.946 -0.7314 -0.8221  1.5535
 2263TIP3   OH228203   2.098   5.265   4.188 -0.1359  0.3426 -0.3177
 2263TIP3    H128204   2.159   5.292   4.120  0.4356  1.5720  0.6606
 2263TIP3    H228205   2.012   5.294   4.157  0.0782  0.6364 -0.6330
 2264TIP3   OH228206   1.786   5.564  11.438 -0.4065 -0.4349 -0.2019
 2264TIP3    H128207   1.775   5.658  11.449  0.1627 -0.2429 -1.1053
 2264TIP3    H228208   1.790   5.552  11.343 -1.1491 -1.4518 -0.1163
 2265TIP3   OH228209   6.058   3.869   0.417 -0.7621 -0.1299  0.2137
 2265TIP3    H128210   6.060   3.856   0.322 -3.4731  2.6734 -0.3603
 2265TIP3    H228211   6.108   3.949   0.432 -0.7880 -0.2689  1.1127
 2266TIP3   OH228212   0.246   4.721   3.713  0.1550 -0.3999 -0.4682
 2266TIP3    H128213   0.230   4.767   3.631 -1.0426 -1.2928 -0.7678
 2266TIP3    H228214   0.186   4.761   3.775 -1.3900 -1.9116 -0.8968
 2267TIP3   OH228215   4.394   2.489   4.103  0.2679 -0.6019 -0.0243
 2267TIP3    H128216   4.425   2.578   4.083 -0.6048 -0.3632 -0.3348
 2267TIP3    H228217   4.336   2.500   4.178 -0.5776 -0.7672 -0.6351
 2268TIP3   OH228218   0.865   0.716  14.568  0.0707  0.0338  0.0807
 2268TIP3    H128219   0.868   0.644  14.632 -0.1193 -0.0642 -0.0195
 2268TIP3    H228220   0.926   0.689  14.500  0.7809  0.4471  0.5395
 2269TIP3   OH228221   0.398   5.624  15.689 -0.3363 -0.0813  0.5895
 2269TIP3    H128222   0.391   5.666  15.604 -1.0930  1.3827  1.3454
 2269TIP3    H228223   0.310   5.593  15.709 -0.0118 -1.0856  0.5303
 2270TIP3   OH228224   0.797   5.032   4.342  0.6166  0.0329 -0.4349
 2270TIP3    H128225   0.826   4.947   4.374 -0.3335 -0.3598 -0.6050
 2270TIP3    H228226   0.711   5.016   4.303  1.0056  0.8161 -1.6850
 2271TIP3   OH228227   5.834   5.297   1.003 -0.2224 -0.1736 -0.4955
 2271TIP3    H128228   5.810   5.389   0.991 -2.3886 -0.7214 -0.7382
 2271TIP3    H228229   5.916   5.300   1.053  0.4985  1.8915 -1.6792
 2272TIP3   OH228230   0.300   1.082   5.078 -0.3594  0.6520  1.2335
 2272TIP3    H128231   0.353   1.140   5.133  0.8905  0.2307  0.5315
 2272TIP3    H228232   0.213   1.122   5.077 -0.0735  1.3388  2.4758
 2273TIP3   OH228233   4.625   2.148   0.965 -0.0570 -0.1043 -0.1416
 2273TIP3    H128234   4.616   2.183   0.876 -0.7767 -0.1348 -0.0868
 2273TIP3    H228235   4.600   2.221   1.022 -0.5290 -0.3841  0.0075
 2274TIP3   OH228236   6.183   5.134  17.098  0.4736 -0.5802  0.0298
 2274TIP3    H128237   6.210   5.094  17.015 -1.4747 -2.2802  0.1352
 2274TIP3    H228238   6.228   5.083  17.165  0.4012 -0.5889  0.0720
 2275TIP3   OH228239   3.991   0.410  13.388 -0.0104 -0.3786 -0.0775
 2275TIP3    H128240   4.055   0.377  13.325  0.4103  1.0249 -0.4262
 2275TIP3    H228241   4.039   0.474  13.440 -0.2613 -1.7124  1.9234
 2276TIP3   OH228242   5.445   0.116   2.993 -0.3355 -0.2358 -0.0378
 2276TIP3    H128243   5.528   0.161   3.008 -0.9116  0.2530  2.0421
 2276TIP3    H228244   5.409   0.158   2.915 -0.2512  2.0910  1.0884
 2277TIP3   OH228245   4.167   1.838   3.431 -0.3724  0.6184 -0.0154
 2277TIP3    H128246   4.180   1.743   3.431 -1.0637  0.4942 -1.8940
 2277TIP3    H228247   4.146   1.859   3.523  1.1832 -0.8037  0.7220
 2278TIP3   OH228248   5.320   2.647  12.910  0.1071 -0.0556  0.7494
 2278TIP3    H128249   5.234   2.605  12.901  0.0919 -0.0269  0.7617
 2278TIP3    H228250   5.339   2.681  12.823 -0.4957  1.1167  1.0591
 2279TIP3   OH228251   5.124   5.086  11.359  0.3651  0.0998 -0.1921
 2279TIP3    H128252   5.081   5.045  11.434 -2.4954 -1.4554 -2.4839
 2279TIP3    H228253   5.171   5.014  11.317 -0.2462  0.3272 -1.3001
 2280TIP3   OH228254   4.492   6.441  12.718  0.4697  0.1170 -0.8199
 2280TIP3    H128255   4.572   6.482  12.753  0.1991  0.7099 -0.8899
 2280TIP3    H228256   4.471   6.373  12.781 -0.2309  1.4175  0.4096
 2281TIP3   OH228257   6.564   0.237  14.447  0.2075  0.1419  0.3561
 2281TIP3    H128258   6.621   0.308  14.418  1.1137 -1.5332 -2.3257
 2281TIP3    H228259   6.586   0.164  14.390 -3.5602 -1.0888  0.2346
 2282TIP3   OH228260   5.041   3.659  13.778 -0.6246 -0.8598 -0.3219
 2282TIP3    H128261   5.017   3.728  13.716 -0.2214 -0.8247 -0.4429
 2282TIP3    H228262   5.126   3.627  13.747  0.8536  0.8792  1.6233
 2283TIP3   OH228263   1.415   4.337   1.682 -0.3973  0.4774  0.1621
 2283TIP3    H128264   1.501   4.295   1.676 -1.0291 -0.7701 -0.4160
 2283TIP3    H228265   1.393   4.361   1.592 -0.5914  0.9564  0.3327
 2284TIP3   OH228266   1.334   6.205  14.443 -0.2407 -0.0608  0.0340
 2284TIP3    H128267   1.242   6.179  14.435 -0.2299  0.0214 -0.4231
 2284TIP3    H228268   1.354   6.197  14.536  0.0831 -2.7986 -0.2026
 2285TIP3   OH228269   0.071   4.233   2.908  0.2596  0.3982  0.5771
 2285TIP3    H128270  -0.003   4.193   2.953 -0.4859  1.6798  0.5415
 2285TIP3    H228271   0.149   4.193   2.948 -0.4410 -0.9532  0.6225
 2286TIP3   OH228272   1.406   1.182  13.635 -0.0474 -0.0500  0.5120
 2286TIP3    H128273   1.456   1.259  13.662 -0.6575  0.1834  1.0172
 2286TIP3    H228274   1.429   1.115  13.700 -0.7304  0.1999  1.0272
 2287TIP3   OH228275   0.080   1.234  15.234 -0.1637 -0.5280  0.5487
 2287TIP3    H128276   0.115   1.219  15.146 -0.4344  1.1109  0.1331
 2287TIP3    H228277  -0.007   1.194  15.232 -1.5901  2.3431 -1.0932
 2288TIP3   OH228278   0.243   5.102   0.704 -0.1435 -0.1671 -0.0510
 2288TIP3    H128279   0.271   5.010   0.704  1.2290  0.2228  0.2334
 2288TIP3    H228280   0.325   5.152   0.707 -0.8563  1.0794 -0.5429
 2289TIP3   OH228281   0.837   5.016  13.468 -0.1601 -0.2357  0.4925
 2289TIP3    H128282   0.906   4.958  13.498  1.7928  1.5612 -0.2778
 2289TIP3    H228283   0.857   5.033  13.376 -2.0815 -0.2418  0.0219
 2290TIP3   OH228284   0.549   4.140  15.464  0.4390 -0.0669  0.2206
 2290TIP3    H128285   0.555   4.044  15.471 -2.1319 -0.3206 -0.1954
 2290TIP3    H228286   0.508   4.168  15.545  0.3081  0.5806 -0.0623
 2291TIP3   OH228287   5.716   1.874   0.684 -0.5372  0.1811  0.2797
 2291TIP3    H128288   5.788   1.910   0.633  1.8455 -3.5600  0.6723
 2291TIP3    H228289   5.734   1.902   0.774  0.3096 -0.4881  0.3294
 2292TIP3   OH228290   1.698   4.508  11.680 -0.0755  0.2982 -0.3611
 2292TIP3    H128291   1.631   4.507  11.749  0.1520  0.3121 -0.1388
 2292TIP3    H228292   1.707   4.601  11.658  1.6069  0.5870  1.3181
 2293TIP3   OH228293   4.146   1.060   5.588  0.6964  0.0532  0.2242
 2293TIP3    H128294   4.105   1.083   5.505  1.1942 -1.1632 -0.3830
 2293TIP3    H228295   4.093   1.106   5.654  0.0544  0.7174 -0.7197
 2294TIP3   OH228296   3.668   5.920   1.309  0.4900 -0.5933 -0.1308
 2294TIP3    H128297   3.630   6.000   1.345  1.2918 -0.2265 -0.0750
 2294TIP3    H228298   3.634   5.916   1.219  1.1178  0.2689 -0.4137
 2295TIP3   OH228299   0.859   5.710  11.857 -0.1024  0.1478 -0.2024
 2295TIP3    H128300   0.940   5.673  11.824 -0.5108 -1.2394  0.2986
 2295TIP3    H228301   0.871   5.713  11.952 -0.2689  0.8758 -0.1940
 2296TIP3   OH228302   0.980   4.972   3.996  0.1139  0.2032  0.1218
 2296TIP3    H128303   1.043   4.984   4.067 -0.6639 -0.5281  0.9636
 2296TIP3    H228304   1.019   4.905   3.940  0.0727 -0.2753  0.6604
 2297TIP3   OH228305   0.617   1.827  11.278  0.0848  0.0938  0.1718
 2297TIP3    H128306   0.711   1.813  11.286  0.2663  0.3538 -1.3035
 2297TIP3    H228307   0.593   1.785  11.196 -1.4263 -1.5139  1.3491
 2298TIP3   OH228308   5.264   1.343   2.543 -0.1920 -0.3732  0.5634
 2298TIP3    H128309   5.216   1.409   2.594 -0.7004 -1.4680  1.5776
 2298TIP3    H228310   5.328   1.392   2.493 -1.2213  0.9804  0.5191
 2299TIP3   OH228311   5.851   1.876  11.475  0.2381 -0.3296 -0.5219
 2299TIP3    H128312   5.882   1.938  11.541  2.0639 -1.9233  0.2045
 2299TIP3    H228313   5.834   1.796  11.524 -0.8012 -0.8285 -1.6444
 2300TIP3   OH228314   4.430   5.003   2.344  0.1303  0.0927  0.0359
 2300TIP3    H128315   4.348   5.014   2.296  0.5822  0.2268 -0.7229
 2300TIP3    H228316   4.464   4.918   2.315  0.3122  0.0840  0.2691
 2301TIP3   OH228317   5.372   2.927   0.269  0.1433  0.7714  0.2061
 2301TIP3    H128318   5.459   2.938   0.307 -0.6532  1.7211  1.8735
 2301TIP3    H228319   5.313   2.925   0.344 -1.2269 -0.7339 -0.8336
 2302TIP3   OH228320   0.379   5.798  17.044  0.1585 -0.5808  0.4103
 2302TIP3    H128321   0.450   5.735  17.055 -1.4640 -2.5331  0.2697
 2302TIP3    H228322   0.398   5.868  17.107  3.2691  0.0482 -1.0615
 2303TIP3   OH228323   1.698   5.871   5.518  0.5618  0.4637 -0.9158
 2303TIP3    H128324   1.777   5.912   5.483 -0.1571  1.1353 -1.7824
 2303TIP3    H228325   1.636   5.943   5.528  0.6276  0.2662  1.4995
 2304TIP3   OH228326   1.559   4.021  15.660 -0.9985  0.1026 -0.6059
 2304TIP3    H128327   1.624   3.951  15.652 -0.5243  0.3768  0.5707
 2304TIP3    H228328   1.504   3.994  15.733 -1.8294  0.1806 -1.1979
 2305TIP3   OH228329   4.704   1.237  16.950  0.3361 -0.0753  0.8355
 2305TIP3    H128330   4.759   1.200  17.020  1.9227  0.3998 -0.1118
 2305TIP3    H228331   4.757   1.307  16.912 -0.7860  0.1574 -0.3819
 2306TIP3   OH228332   6.115   4.871   4.544 -0.1208 -0.0734 -0.4594
 2306TIP3    H128333   6.026   4.850   4.516 -0.1606 -0.8464  0.1940
 2306TIP3    H228334   6.167   4.795   4.518  0.2681  0.1793 -0.4379
 2307TIP3   OH228335   5.575   6.151   0.843  0.0067  0.3164  0.3847
 2307TIP3    H128336   5.530   6.147   0.927  0.5100  2.4864  0.8264
 2307TIP3    H228337   5.615   6.238   0.842  1.2547 -0.2253 -1.4751
 2308TIP3   OH228338   3.989   6.241   1.867 -0.1097  0.6116 -0.1647
 2308TIP3    H128339   3.931   6.299   1.917 -0.2551 -0.5446  1.0784
 2308TIP3    H228340   4.030   6.298   1.802 -1.1425  1.8516  0.2214
 2309TIP3   OH228341   2.596   5.428  15.142  0.0505  0.0203  0.9463
 2309TIP3    H128342   2.507   5.423  15.179  0.7132  3.3776  3.4250
 2309TIP3    H228343   2.592   5.499  15.079  0.3816 -1.8330 -1.2993
 2310TIP3   OH228344   3.814   6.709  13.143 -0.1087 -0.4030  0.9581
 2310TIP3    H128345   3.819   6.627  13.094 -1.1170 -1.1778  2.0721
 2310TIP3    H228346   3.867   6.693  13.221  1.6816  0.8989  0.0870
 2311TIP3   OH228347   2.255   0.564  12.499  0.4137  0.6622  0.4566
 2311TIP3    H128348   2.248   0.643  12.552 -3.1778  0.2943  0.7778
 2311TIP3    H228349   2.191   0.577  12.429  1.9121 -0.7247 -1.2467
 2312TIP3   OH228350   0.376   3.559  12.500  0.0630 -0.4732 -0.5725
 2312TIP3    H128351   0.298   3.512  12.528 -0.7147  1.5274  0.8036
 2312TIP3    H228352   0.447   3.522  12.554 -0.6183  0.1982  0.8405
 2313TIP3   OH228353   1.705   6.365  13.742 -0.0747  0.5536  0.3386
 2313TIP3    H128354   1.694   6.273  13.768 -1.3702  0.8037  0.7363
 2313TIP3    H228355   1.764   6.401  13.809  1.6829 -0.3113 -0.6516
 2314TIP3   OH228356   0.322   0.487  16.830 -0.0668  0.1355 -0.1414
 2314TIP3    H128357   0.318   0.516  16.922  2.0374  0.2183 -0.0238
 2314TIP3    H228358   0.238   0.513  16.793 -0.5023  1.1696  1.4673
 2315TIP3   OH228359   5.174   2.529   0.649 -0.0467 -0.5007  0.0451
 2315TIP3    H128360   5.259   2.509   0.688  1.2414 -1.5689 -2.9875
 2315TIP3    H228361   5.125   2.572   0.719  2.6668 -0.5754  2.1689
 2316TIP3   OH228362   0.916   4.485   2.839  0.2870 -0.2178  0.5578
 2316TIP3    H128363   0.936   4.393   2.825 -1.5577 -0.6832  0.6858
 2316TIP3    H228364   0.863   4.510   2.764 -0.2977  0.3742  1.1561
 2317TIP3   OH228365   6.754   5.548  13.097 -0.2691 -0.4091 -0.3047
 2317TIP3    H128366   6.829   5.602  13.122 -1.5149  1.5400 -0.5926
 2317TIP3    H228367   6.732   5.499  13.177  0.6666 -0.2296  0.0749
 2318TIP3   OH228368   0.840   0.173   3.975  0.2300 -0.0518  0.1138
 2318TIP3    H128369   0.916   0.116   3.987  0.9564  0.4607 -1.7691
 2318TIP3    H228370   0.869   0.240   3.913 -1.0281  1.5803  1.2017
 2319TIP3   OH228371   5.710   5.519   4.218  0.0332 -0.3230  0.8556
 2319TIP3    H128372   5.615   5.527   4.216 -0.1357 -2.0449 -0.1948
 2319TIP3    H228373   5.730   5.477   4.301 -0.2432 -1.0338  0.5678
 2320TIP3   OH228374   4.965   2.904   5.869  0.1169  0.8386 -0.1193
 2320TIP3    H128375   4.874   2.931   5.886 -0.7067 -2.1386  0.8185
 2320TIP3    H228376   4.999   2.879   5.955  2.0195  2.2433 -0.4027
 2321TIP3   OH228377   5.213   2.411   5.029  0.1596  0.0565  0.5629
 2321TIP3    H128378   5.188   2.433   4.939 -0.7547  0.2022  0.8473
 2321TIP3    H228379   5.303   2.443   5.037  0.2043  0.1598 -0.2583
 2322TIP3   OH228380   1.169   0.835  13.049  0.0061 -0.4347  0.2400
 2322TIP3    H128381   1.110   0.911  13.046  0.3361 -0.1674  0.5019
 2322TIP3    H228382   1.157   0.799  13.137 -0.2538 -0.7725  0.0700
 2323TIP3   OH228383   2.918   3.876  10.588  0.2284 -0.4789 -0.6470
 2323TIP3    H128384   2.974   3.941  10.547  1.4490 -0.8211  0.4265
 2323TIP3    H228385   2.838   3.924  10.611  1.0430  0.5911 -0.0213
 2324TIP3   OH228386   3.648   0.824   2.051 -0.2348 -1.0620 -0.0548
 2324TIP3    H128387   3.694   0.805   1.970 -0.6678  0.7402 -0.7893
 2324TIP3    H228388   3.717   0.851   2.113 -0.0596 -0.7444 -0.3850
 2325TIP3   OH228389   6.220   3.195   4.822  0.3324 -0.5560  0.6103
 2325TIP3    H128390   6.222   3.172   4.729 -0.0040  1.3383  0.1044
 2325TIP3    H228391   6.307   3.228   4.841  0.3448 -0.7691  0.9254
 2326TIP3   OH228392   2.723   4.992  17.064 -0.0342 -0.3587  0.3632
 2326TIP3    H128393   2.734   4.922  16.999  0.3460  0.2259 -0.2111
 2326TIP3    H228394   2.752   4.952  17.146  0.2157 -0.8677  0.0348
 2327TIP3   OH228395   6.095   5.484   0.887  0.4195 -0.4798  0.2286
 2327TIP3    H128396   6.172   5.479   0.832  1.0695  2.0738  0.7529
 2327TIP3    H228397   6.129   5.512   0.973 -1.1018  2.3576  0.0523
 2328TIP3   OH228398   5.220   2.083  16.940 -0.6859 -0.2925  0.2419
 2328TIP3    H128399   5.315   2.076  16.941 -0.6214 -0.6082 -2.3316
 2328TIP3    H228400   5.198   2.119  17.026  1.5629 -1.9924  1.6323
 2329TIP3   OH228401   3.022   0.888   1.021 -0.2383  0.6062 -0.1695
 2329TIP3    H128402   3.101   0.834   1.024 -0.6296 -0.0518 -1.4684
 2329TIP3    H228403   3.036   0.953   1.091  1.9723  1.2381 -1.0903
 2330TIP3   OH228404   4.945   2.015   2.820  0.0352  0.3589  0.2478
 2330TIP3    H128405   5.006   2.080   2.784  0.4466 -0.1144  0.0785
 2330TIP3    H228406   4.867   2.066   2.844  0.6525  1.0380  0.8663
 2331TIP3   OH228407   0.971   3.441  12.520  0.0886 -0.1459 -0.3660
 2331TIP3    H128408   0.943   3.488  12.599  2.7962  0.6397  0.2257
 2331TIP3    H228409   0.965   3.348  12.545 -0.7066  0.0228  0.1254
 2332TIP3   OH228410   2.707   5.195   5.769 -0.2501 -0.2268  0.2542
 2332TIP3    H128411   2.757   5.162   5.694  0.9760  2.0133 -0.0042
 2332TIP3    H228412   2.747   5.154   5.845  0.3079 -0.4349 -0.1412
 2333TIP3   OH228413   5.387   5.138  16.868 -0.4186  0.3992  0.9935
 2333TIP3    H128414   5.465   5.139  16.812 -0.1598 -1.5211  1.2279
 2333TIP3    H228415   5.418   5.102  16.952 -1.4312  0.1801  1.2929
 2334TIP3   OH228416   4.098   3.047   5.893  0.2399 -0.2245  0.1210
 2334TIP3    H128417   4.078   3.117   5.956  1.3560  1.2445 -1.0673
 2334TIP3    H228418   4.014   3.005   5.876 -0.1234 -0.5883  2.4407
 2335TIP3   OH228419   3.291   2.209   3.149  0.3255  0.3136  0.1471
 2335TIP3    H128420   3.208   2.206   3.101 -0.2369 -0.1888  1.1011
 2335TIP3    H228421   3.348   2.265   3.097 -0.7875  1.0874 -0.2637
 2336TIP3   OH228422   5.184   2.761   3.814 -0.2715  0.0736  0.1238
 2336TIP3    H128423   5.274   2.789   3.798  0.3025 -0.6976  1.7363
 2336TIP3    H228424   5.133   2.841   3.812  0.2442  0.4000 -1.9027
 2337TIP3   OH228425   6.720   5.970  14.546  0.3478 -0.0192  0.7703
 2337TIP3    H128426   6.812   5.988  14.564  0.8539 -0.0874 -1.4306
 2337TIP3    H228427   6.721   5.892  14.490 -0.7849  1.5604 -1.6228
 2338TIP3   OH228428   5.286   0.004  12.245 -0.2785 -0.5605 -0.0446
 2338TIP3    H128429   5.200   0.039  12.222  0.3686 -0.7210 -3.1039
 2338TIP3    H228430   5.339   0.081  12.263 -0.7008 -0.3946  0.5341
 2339TIP3   OH228431   6.060   5.349   2.243  0.6270 -0.2497  0.3188
 2339TIP3    H128432   6.048   5.265   2.286  1.1993 -0.0806  0.8193
 2339TIP3    H228433   6.124   5.331   2.174 -0.5599 -0.6026 -0.7336
 2340TIP3   OH228434   1.863   4.492   4.774 -0.5856 -0.2529  0.1695
 2340TIP3    H128435   1.903   4.446   4.699 -0.5943  0.0667 -0.0338
 2340TIP3    H228436   1.876   4.433   4.848 -0.2242 -0.3964 -0.0059
 2341TIP3   OH228437   4.765   1.084  14.020 -0.1708  0.3913  0.1438
 2341TIP3    H128438   4.812   1.043  13.947 -1.3029  1.5826 -1.3266
 2341TIP3    H228439   4.707   1.015  14.053  0.1489 -0.0885 -0.2740
 2342TIP3   OH228440   3.174   3.179   4.563 -0.4486 -0.0956  0.5398
 2342TIP3    H128441   3.191   3.143   4.476 -1.1160 -0.3247  0.5021
 2342TIP3    H228442   3.104   3.124   4.598  1.0660 -1.2206  1.9604
 2343TIP3   OH228443   5.135   4.298   2.232 -0.0745 -0.1581  0.3190
 2343TIP3    H128444   5.058   4.326   2.282  0.0772 -0.6315  0.8288
 2343TIP3    H228445   5.146   4.366   2.165 -1.1955 -0.3216 -0.0388
 2344TIP3   OH228446   5.059   2.944  13.906 -0.5318 -0.0249 -0.5880
 2344TIP3    H128447   5.003   2.951  13.983 -1.6891 -2.9563 -1.0275
 2344TIP3    H228448   5.123   2.877  13.929 -0.8303 -0.8617 -2.0627
 2345TIP3   OH228449   2.837   0.424  13.590  0.1438 -1.1283  0.3838
 2345TIP3    H128450   2.848   0.479  13.668 -1.9377 -0.1089  0.0339
 2345TIP3    H228451   2.757   0.375  13.606  0.6309 -2.2222 -0.3927
 2346TIP3   OH228452   0.776   5.945  10.868 -0.2622 -0.2371 -0.7753
 2346TIP3    H128453   0.709   5.887  10.832 -2.9625  1.7536  0.7292
 2346TIP3    H228454   0.854   5.890  10.875 -1.7180 -2.6983 -2.5362
 2347TIP3   OH228455   3.441   1.654   5.447 -0.0042  0.3610  0.4364
 2347TIP3    H128456   3.375   1.590   5.474 -1.1229  1.5549  0.6656
 2347TIP3    H228457   3.515   1.602   5.418  0.4337 -1.0570  3.6418
 2348TIP3   OH228458   6.761   1.087  17.264 -0.2123 -0.4995 -0.3967
 2348TIP3    H128459   6.714   1.139  17.199 -1.5755  0.7452  1.4863
 2348TIP3    H228460   6.711   1.006  17.269  1.2061 -1.6002 -2.4427
 2349TIP3   OH228461   5.581   6.358   5.459  0.7265 -0.5664 -0.2214
 2349TIP3    H128462   5.585   6.388   5.368 -1.2492  0.6397  0.0285
 2349TIP3    H228463   5.669   6.375   5.494  0.7231  1.6415 -1.1357
 2350TIP3   OH228464   0.629   1.288   4.694  0.7602 -0.5268 -0.1130
 2350TIP3    H128465   0.706   1.306   4.640 -0.3976 -0.2561 -1.7769
 2350TIP3    H228466   0.622   1.192   4.694  0.2037 -0.5130 -1.3619
 2351TIP3   OH228467   1.399   2.593   1.108  0.1221 -0.1691  0.2601
 2351TIP3    H128468   1.484   2.552   1.124  0.7688  0.8247 -0.4472
 2351TIP3    H228469   1.339   2.549   1.168  1.0124 -1.2975  0.3598
 2352TIP3   OH228470   2.677   5.172  14.965 -0.3255  0.1002 -0.3611
 2352TIP3    H128471   2.669   5.265  14.985  1.9853  0.4300 -0.6926
 2352TIP3    H228472   2.661   5.128  15.048 -1.3980  0.7695 -0.1902
 2353TIP3   OH228473   0.637   5.487   1.794  0.2261 -0.1137 -0.2007
 2353TIP3    H128474   0.568   5.442   1.745 -1.4735  2.4942 -0.3877
 2353TIP3    H228475   0.591   5.544   1.855  2.2786 -0.1036  1.4597
 2354TIP3   OH228476   0.900   5.900   4.776 -0.5120  0.7389  0.7522
 2354TIP3    H128477   0.972   5.917   4.714 -1.8602  0.1451 -1.0392
 2354TIP3    H228478   0.929   5.942   4.858  1.7885  0.6559  0.0473
 2355TIP3   OH228479   2.670   2.587   4.188  0.5623 -0.0878 -0.0568
 2355TIP3    H128480   2.659   2.518   4.122  2.8969 -0.9149  0.3322
 2355TIP3    H228481   2.612   2.562   4.259  1.1035 -1.4894 -0.0802
 2356TIP3   OH228482   4.473   2.047  16.365 -0.2581  0.3794 -0.2100
 2356TIP3    H128483   4.406   2.011  16.423 -0.6538 -1.3457 -1.6412
 2356TIP3    H228484   4.466   1.994  16.285  1.1112  1.8295 -1.3524
 2357TIP3   OH228485   6.545   4.990   0.751 -0.1659  0.2181 -0.5180
 2357TIP3    H128486   6.635   5.016   0.771 -0.3031  0.3676 -0.0953
 2357TIP3    H228487   6.508   4.964   0.835 -1.1411  2.0459 -0.3271
 2358TIP3   OH228488   1.690   1.713  17.101 -0.1146  0.4813 -0.1110
 2358TIP3    H128489   1.721   1.662  17.027  0.7911  0.1208  0.5126
 2358TIP3    H228490   1.738   1.796  17.095 -0.0504  0.4575  0.0618
 2359TIP3   OH228491   3.947   4.467   1.570  0.3408  0.4512  0.0105
 2359TIP3    H128492   3.895   4.450   1.492 -0.8977  1.2735  0.6322
 2359TIP3    H228493   4.035   4.486   1.536  0.6671 -2.2626 -0.9837
 2360TIP3   OH228494   6.452   0.847   6.310 -0.6819  0.0126 -0.3275
 2360TIP3    H128495   6.399   0.779   6.268 -0.3308 -0.6726  0.2984
 2360TIP3    H228496   6.395   0.924   6.314 -1.1489 -0.2963 -0.8969
 2361TIP3   OH228497   1.052   0.036   1.033 -0.1846 -0.3013 -0.0656
 2361TIP3    H128498   1.038  -0.039   0.976 -0.5088  0.1672 -0.6208
 2361TIP3    H228499   1.023   0.111   0.981  2.1627  0.4797 -0.3745
 2362TIP3   OH228500   6.673   6.027  11.388 -0.2715  0.2115  0.1523
 2362TIP3    H128501   6.756   5.986  11.363 -0.2973 -0.0067  0.4288
 2362TIP3    H228502   6.640   6.064  11.306 -1.2990 -2.1630 -0.5981
 2363TIP3   OH228503   5.343   3.664   4.806  0.9093 -0.2663  0.5825
 2363TIP3    H128504   5.410   3.668   4.874 -0.2510 -0.2050  1.7688
 2363TIP3    H228505   5.284   3.595   4.835  0.0237  0.2214 -0.0087
 2364TIP3   OH228506   2.495   3.892  13.296  0.7924 -0.6016 -0.2934
 2364TIP3    H128507   2.548   3.837  13.354 -0.9326 -0.8571  1.1627
 2364TIP3    H228508   2.527   3.981  13.310 -0.1638 -0.5147  1.8711
 2365TIP3   OH228509   4.073   6.020  12.237  0.2397 -0.1963  0.1760
 2365TIP3    H128510   4.018   5.958  12.189  1.9867 -1.6064 -0.0939
 2365TIP3    H228511   4.038   6.106  12.214 -0.8838 -0.9813 -1.1823
 2366TIP3   OH228512   0.153   1.619   3.845  0.0096  0.2220 -0.1272
 2366TIP3    H128513   0.143   1.524   3.855  0.0880  0.2568  0.3077
 2366TIP3    H228514   0.215   1.629   3.773  1.8548 -0.1041  1.3624
 2367TIP3   OH228515   2.721   0.373  14.748  0.3800  0.4375 -0.0669
 2367TIP3    H128516   2.666   0.314  14.696  1.3349  1.0633 -1.8925
 2367TIP3    H228517   2.683   0.370  14.836 -1.2466 -0.7809 -0.7518
 2368TIP3   OH228518   2.569   4.992   3.857  0.4600  0.2533  0.5275
 2368TIP3    H128519   2.630   5.045   3.807 -0.7113  0.7908 -0.3860
 2368TIP3    H228520   2.517   4.946   3.790 -1.0285  0.8623  1.2165
 2369TIP3   OH228521   3.264   1.272   2.277  0.1883 -0.2376  0.1608
 2369TIP3    H128522   3.263   1.272   2.181  0.6963  0.5111  0.1524
 2369TIP3    H228523   3.278   1.180   2.300 -0.2260 -0.4675 -0.4751
 2370TIP3   OH228524   6.641   3.414   6.349 -0.1189 -0.0188  0.0674
 2370TIP3    H128525   6.655   3.449   6.437 -0.3479  0.4659 -0.0854
 2370TIP3    H228526   6.674   3.324   6.353 -1.7125 -0.6056  1.1413
 2371TIP3   OH228527   0.796   2.551   5.213  0.1488  0.1983 -0.3999
 2371TIP3    H128528   0.806   2.631   5.266  1.7382 -0.2866  0.0590
 2371TIP3    H228529   0.792   2.480   5.277  1.4581 -0.3352 -0.8786
 2372TIP3   OH228530   4.508   0.575   1.151 -0.1877  0.1429  0.4606
 2372TIP3    H128531   4.505   0.634   1.227 -0.6612  1.2050 -0.3381
 2372TIP3    H228532   4.455   0.500   1.177 -1.4937  1.1111  0.7160
 2373TIP3   OH228533   1.260   3.182  13.205  0.3661  0.1984 -0.2834
 2373TIP3    H128534   1.212   3.190  13.288  0.8855  1.8882 -0.1040
 2373TIP3    H228535   1.198   3.138  13.146 -0.3898 -0.0999  0.7089
 2374TIP3   OH228536   6.216   3.072  14.032 -0.6586  0.1656  0.1676
 2374TIP3    H128537   6.281   3.109  13.972 -2.3711 -2.2008 -3.5419
 2374TIP3    H228538   6.175   3.148  14.072 -1.2013  2.2664 -3.8647
 2375TIP3   OH228539   5.706   6.495  13.679  0.1903  0.6078 -0.2811
 2375TIP3    H128540   5.764   6.421  13.695 -0.9376  0.1187  2.0218
 2375TIP3    H228541   5.735   6.563  13.741  0.1948  1.5032 -1.2367
 2376TIP3   OH228542   1.786   3.189  16.366 -0.1878  0.4531  1.0877
 2376TIP3    H128543   1.740   3.190  16.450  0.0946  2.0924  1.2532
 2376TIP3    H228544   1.788   3.281  16.339 -0.3036 -0.0471 -0.7395
 2377TIP3   OH228545   5.044   0.768  11.653 -0.2716 -0.4987 -0.6389
 2377TIP3    H128546   5.104   0.759  11.578  0.8682 -0.9186  0.2831
 2377TIP3    H228547   4.975   0.704  11.635  0.8053 -1.7200 -0.6099
 2378TIP3   OH228548   1.981   2.468   6.267 -0.0774 -0.5496  0.0747
 2378TIP3    H128549   1.922   2.393   6.259 -0.1768 -0.3421 -1.6490
 2378TIP3    H228550   2.068   2.428   6.269 -0.1412 -0.7513 -0.6056
 2379TIP3   OH228551   4.388   0.695  12.518  0.5877 -0.1908 -0.4503
 2379TIP3    H128552   4.456   0.749  12.477 -1.7553  1.8024 -2.0629
 2379TIP3    H228553   4.374   0.624  12.456 -0.7997  1.0916 -1.6842
 2380TIP3   OH228554   2.736   0.821   6.418  0.3916  0.5426 -0.1364
 2380TIP3    H128555   2.657   0.778   6.386  1.3638 -1.2965 -0.2173
 2380TIP3    H228556   2.753   0.891   6.355 -0.3112 -0.0483 -0.9995
 2381TIP3   OH228557   6.097   3.301   1.488  1.0141  0.3029  0.2382
 2381TIP3    H128558   6.078   3.259   1.572 -0.7826 -3.5773 -1.8586
 2381TIP3    H228559   6.191   3.289   1.476  1.2996  0.9140  1.6292
 2382TIP3   OH228560   1.073   6.209   1.869  0.2034 -0.0521  0.5094
 2382TIP3    H128561   1.014   6.238   1.939 -0.8743  3.7059 -1.6721
 2382TIP3    H228562   1.022   6.144   1.820 -0.3346 -0.1681  1.1986
 2383TIP3   OH228563   2.261   1.452  14.546  0.1929  0.1298  0.4600
 2383TIP3    H128564   2.356   1.444  14.539  0.1023 -0.1643 -0.5740
 2383TIP3    H228565   2.227   1.377  14.499 -0.5629 -0.3514  1.7288
 2384TIP3   OH228566   0.741   5.397  14.165  0.1615  0.0447  0.6644
 2384TIP3    H128567   0.717   5.310  14.198 -0.1698 -0.6346 -1.2090
 2384TIP3    H228568   0.670   5.420  14.105  0.8036  1.0973  0.2799
 2385TIP3   OH228569   2.447   5.767  15.062 -0.6776 -0.2555  0.0765
 2385TIP3    H128570   2.428   5.695  15.003  0.7331 -1.0291  0.5183
 2385TIP3    H228571   2.543   5.771  15.066 -0.7306  0.3478  1.6080
 2386TIP3   OH228572   5.711   1.270   4.433 -0.1108  0.0722  1.0572
 2386TIP3    H128573   5.804   1.249   4.442  0.5051  2.2210  0.4406
 2386TIP3    H228574   5.671   1.236   4.513  0.9722 -1.8994  0.8152
 2387TIP3   OH228575   2.294   6.160   5.667 -0.0227 -0.3167  0.2533
 2387TIP3    H128576   2.320   6.157   5.759  0.1059  1.2108  0.2860
 2387TIP3    H228577   2.376   6.173   5.619 -0.1858 -0.2573 -0.0114
 2388TIP3   OH228578   1.585   1.303  12.788 -0.4352 -0.4724 -0.5252
 2388TIP3    H128579   1.553   1.326  12.875  1.9121  0.6363  0.1359
 2388TIP3    H228580   1.624   1.216  12.799 -0.7752 -0.6422 -0.6528
 2389TIP3   OH228581   1.580   6.754  13.121  0.4405 -0.2820  0.5850
 2389TIP3    H128582   1.623   6.673  13.149  0.8146 -0.7965 -1.2932
 2389TIP3    H228583   1.649   6.803  13.076  0.4329  1.5088  2.4134
 2390TIP3   OH228584   4.426   3.639  16.625  0.2591  0.3926 -0.1323
 2390TIP3    H128585   4.359   3.704  16.604  0.6841  1.6663  2.1092
 2390TIP3    H228586   4.504   3.667  16.578  0.4179  1.5167  0.7597
 2391TIP3   OH228587   6.233   1.530  15.205 -0.3293  0.1831 -0.1093
 2391TIP3    H128588   6.202   1.597  15.143 -0.6459 -0.8554 -1.1143
 2391TIP3    H228589   6.168   1.530  15.275 -0.1929  1.0851  0.0356
 2392TIP3   OH228590   2.917   1.906  13.776 -0.2202  0.2188 -0.1336
 2392TIP3    H128591   2.837   1.957  13.764  0.0862  0.4772 -1.1626
 2392TIP3    H228592   2.925   1.895  13.871 -2.4094 -1.3030 -0.0556
 2393TIP3   OH228593   3.167   3.422  16.114  0.3761  0.5203  0.4866
 2393TIP3    H128594   3.178   3.379  16.029  0.2192 -0.4912  0.9707
 2393TIP3    H228595   3.115   3.500  16.094 -0.8868 -0.4534 -0.1554
 2394TIP3   OH228596   2.644   4.454  13.828  0.1853  0.3170 -0.3274
 2394TIP3    H128597   2.673   4.368  13.855  0.9883  0.0034 -2.0522
 2394TIP3    H228598   2.569   4.437  13.770  0.3151  0.7748 -0.6370
 2395TIP3   OH228599   3.816   3.967  17.289  0.3357 -0.3488 -0.1511
 2395TIP3    H128600   3.748   3.933  17.231  1.9485 -1.6526 -1.3872
 2395TIP3    H228601   3.898   3.954  17.241  1.5900  0.1729  1.6972
 2396TIP3   OH228602   5.422   0.778   5.635 -0.5298 -0.2548 -0.1676
 2396TIP3    H128603   5.472   0.729   5.701 -0.4418 -2.4591 -1.7782
 2396TIP3    H228604   5.480   0.849   5.610 -0.8519  1.1287  2.5930
 2397TIP3   OH228605   1.240   3.664   6.158 -0.5653 -0.3833  0.4414
 2397TIP3    H128606   1.287   3.706   6.086 -0.3967  0.9056  1.2585
 2397TIP3    H228607   1.245   3.571   6.140  0.2068 -0.1260 -0.7579
 2398TIP3   OH228608   4.540   2.817   4.447  0.0062 -0.4251 -0.1059
 2398TIP3    H128609   4.555   2.909   4.469 -0.6071 -0.7497  1.8579
 2398TIP3    H228610   4.614   2.770   4.485  0.0211 -0.8223 -0.6011
 2399TIP3   OH228611   1.554   3.553  16.151 -0.7895  0.1425 -0.2715
 2399TIP3    H128612   1.622   3.516  16.208  0.0907  2.3719  0.2541
 2399TIP3    H228613   1.482   3.490  16.155  0.3573 -1.1625  1.0227
 2400TIP3   OH228614   1.801   6.125   0.268  0.0336 -0.3993  0.3556
 2400TIP3    H128615   1.783   6.217   0.250  0.7225 -0.3791 -0.2684
 2400TIP3    H228616   1.757   6.108   0.351 -1.8767 -0.0603 -0.5338
 2401TIP3   OH228617   3.563   0.696  16.015  0.0896 -0.0995 -0.2173
 2401TIP3    H128618   3.544   0.760  15.947 -0.2979  1.2000  1.0531
 2401TIP3    H228619   3.477   0.670  16.048  0.1631 -2.4303 -1.6754
 2402TIP3   OH228620   2.406   5.029   0.537  0.4164  0.2688  0.0705
 2402TIP3    H128621   2.434   4.969   0.606 -1.0010 -1.5202 -0.8498
 2402TIP3    H228622   2.354   5.095   0.584  0.3350 -0.3336  0.8595
 2403TIP3   OH228623   3.180   2.559   2.649 -0.4783  0.2588 -0.4346
 2403TIP3    H128624   3.115   2.522   2.589 -1.3834 -0.3351  0.8543
 2403TIP3    H228625   3.203   2.487   2.707 -0.5794  1.1240  0.7262
 2404TIP3   OH228626   3.661   2.116  13.390 -0.3768 -0.2870  0.6933
 2404TIP3    H128627   3.639   2.100  13.299  0.0694  3.5356 -0.2619
 2404TIP3    H228628   3.583   2.090  13.439 -1.8526  0.4699 -1.1390
 2405TIP3   OH228629   0.243   6.723   1.830 -0.4809  0.4535 -0.1962
 2405TIP3    H128630   0.239   6.629   1.848  2.3923  0.2826 -0.0244
 2405TIP3    H228631   0.234   6.765   1.916 -0.8422  0.3122 -0.1623
 2406TIP3   OH228632   5.810   3.592  13.156 -0.7834 -0.1390  0.3725
 2406TIP3    H128633   5.728   3.560  13.120 -0.7734  0.3528 -0.0967
 2406TIP3    H228634   5.862   3.617  13.080 -0.3213 -0.1485  0.6796
 2407TIP3   OH228635   6.231   6.063   1.808  0.3457 -0.4476  0.2881
 2407TIP3    H128636   6.190   5.977   1.805 -1.4835  0.4012 -0.6786
 2407TIP3    H228637   6.161   6.124   1.785  1.9767  1.1621 -0.7354
 2408TIP3   OH228638   6.330   6.322  13.063 -0.5226 -0.0147  0.0199
 2408TIP3    H128639   6.364   6.345  12.976 -0.4779 -2.4118 -0.6720
 2408TIP3    H228640   6.268   6.391  13.084  0.5341  1.3926 -1.2651
 2409TIP3   OH228641   1.846   4.786  12.598 -0.3401  0.0949  0.5318
 2409TIP3    H128642   1.806   4.870  12.619 -0.0832  0.0108  1.4344
 2409TIP3    H228643   1.892   4.761  12.679  2.8722  0.9402 -0.8729
 2410TIP3   OH228644   2.283   6.676  17.019 -0.2436  0.2297  0.1438
 2410TIP3    H128645   2.295   6.582  17.010 -1.2572 -0.2488  2.9203
 2410TIP3    H228646   2.363   6.714  16.982 -0.3023 -1.5802 -2.1117
 2411TIP3   OH228647   0.202   0.542   5.316 -1.2880  0.6081 -0.5829
 2411TIP3    H128648   0.277   0.494   5.350 -2.8693  0.9004  4.0862
 2411TIP3    H228649   0.238   0.625   5.285  0.3901  0.7971  1.6577
 2412TIP3   OH228650   4.613   0.850  14.021  0.2128  0.2000  0.3840
 2412TIP3    H128651   4.584   0.826  14.109 -1.7320  0.4201 -0.1417
 2412TIP3    H228652   4.670   0.777  13.993  1.4312  0.4635  2.0449
 2413TIP3   OH228653   5.039   1.010  16.169 -0.1632  0.6974 -0.2786
 2413TIP3    H128654   5.119   0.990  16.218  0.3755  0.0162 -1.3882
 2413TIP3    H228655   5.048   1.103  16.146  0.9795  0.3275 -1.5105
 2414TIP3   OH228656   3.006   6.085   0.101  0.1476 -0.2944  0.5599
 2414TIP3    H128657   2.915   6.110   0.118 -0.2182 -1.0574 -0.2039
 2414TIP3    H228658   3.001   5.993   0.074  1.0414 -0.0938 -0.3458
 2415TIP3   OH228659   4.243   4.206   3.448 -0.0603 -0.3767 -0.4790
 2415TIP3    H128660   4.213   4.201   3.539 -0.1546 -1.0904 -0.5475
 2415TIP3    H228661   4.288   4.123   3.433 -1.9242 -1.2114 -1.7535
 2416TIP3   OH228662   3.191   5.289   2.068 -0.1925 -0.0869 -0.4304
 2416TIP3    H128663   3.279   5.307   2.035 -0.9109  0.7865 -1.9917
 2416TIP3    H228664   3.182   5.194   2.062  0.3111 -0.0959 -1.1672
 2417TIP3   OH228665   0.794   3.893  13.437  0.0811  0.1182 -0.7095
 2417TIP3    H128666   0.876   3.867  13.397 -0.3965 -0.0659 -1.6037
 2417TIP3    H228667   0.783   3.833  13.511  0.4436 -0.2662 -0.9626
 2418TIP3   OH228668   0.942   0.479  13.034  0.2023 -0.3776  0.0053
 2418TIP3    H128669   0.892   0.524  12.967 -1.5018 -0.6551  1.0256
 2418TIP3    H228670   0.961   0.546  13.099 -0.8546 -0.7204  0.7016
 2419TIP3   OH228671   6.472   4.310  10.689 -0.2203 -0.1682  0.5958
 2419TIP3    H128672   6.421   4.373  10.638  1.0001 -0.1751 -0.7042
 2419TIP3    H228673   6.467   4.229  10.640 -0.7560 -0.7791  1.6190
 2420TIP3   OH228674   1.422   4.470   2.531 -0.4864  0.4037  0.5193
 2420TIP3    H128675   1.383   4.558   2.527  0.3192  0.7433 -0.2750
 2420TIP3    H228676   1.365   4.422   2.591 -1.9026  0.9849 -0.2928
 2421TIP3   OH228677   6.525   4.387  12.107  0.0806  0.3981 -0.0824
 2421TIP3    H128678   6.506   4.307  12.155  0.2390  0.4887  0.1391
 2421TIP3    H228679   6.551   4.450  12.175  0.7315  0.4052 -0.3208
 2422TIP3   OH228680   6.657   1.362   2.984  0.0853  0.2343  0.1487
 2422TIP3    H128681   6.607   1.341   2.905 -1.3657  2.0601  0.4919
 2422TIP3    H228682   6.610   1.319   3.055 -0.0514  0.6021  0.2853
 2423TIP3   OH228683   0.304   2.636   0.112 -0.2549  0.0533 -0.1433
 2423TIP3    H128684   0.274   2.626   0.022 -1.8543  0.2931  0.3320
 2423TIP3    H228685   0.268   2.720   0.140 -0.6330 -0.4855  1.0279
 2424TIP3   OH228686   4.205   2.319   3.235  0.6397  0.1880 -0.2438
 2424TIP3    H128687   4.176   2.228   3.246 -0.2088  0.4854  0.0971
 2424TIP3    H228688   4.139   2.371   3.281  1.1725  0.9745 -0.3426
 2425TIP3   OH228689   2.679   1.018  12.681 -0.6315 -0.1243 -0.4472
 2425TIP3    H128690   2.771   1.039  12.666 -0.3138 -0.7826  0.4523
 2425TIP3    H228691   2.637   1.029  12.596  0.9178 -3.0313 -1.7198
 2426TIP3   OH228692   6.538   0.954  14.891 -0.2647 -0.4442 -0.8272
 2426TIP3    H128693   6.611   0.901  14.859  0.9447  0.9781 -0.5099
 2426TIP3    H228694   6.478   0.890  14.930 -1.1448 -2.0853 -4.5146
 2427TIP3   OH228695   3.674   1.107  14.419  0.0599  0.0235 -0.4546
 2427TIP3    H128696   3.629   1.101  14.335  1.7846  1.1851 -1.5401
 2427TIP3    H228697   3.729   1.029  14.423 -0.7172 -0.5167  0.0745
 2428TIP3   OH228698   3.595   1.023   1.355  0.3846 -0.6201  0.1029
 2428TIP3    H128699   3.604   1.042   1.262  0.6153 -0.3105  0.1897
 2428TIP3    H228700   3.628   0.933   1.364 -0.3883 -0.9531 -0.2449
 2429TIP3   OH228701   1.565   4.307   2.020 -0.4819  0.4138 -0.0146
 2429TIP3    H128702   1.618   4.263   2.086 -0.4050  1.8894  0.9521
 2429TIP3    H228703   1.560   4.245   1.948  0.6958 -0.6351  0.7704
 2430TIP3   OH228704   2.535   0.359  14.978 -0.0857 -0.0156  0.5334
 2430TIP3    H128705   2.444   0.346  15.004 -0.6421 -0.6620 -1.5854
 2430TIP3    H228706   2.570   0.271  14.969  0.7252  0.2308  1.1674
 2431TIP3   OH228707   1.350   4.968  13.317  0.2670 -0.3426 -0.3746
 2431TIP3    H128708   1.338   4.933  13.405 -0.4087 -0.0005 -0.3296
 2431TIP3    H228709   1.429   5.021  13.324  0.4200 -0.6004 -0.0663
 2432TIP3   OH228710   0.771   4.692  11.593 -0.5107 -0.4962  0.6850
 2432TIP3    H128711   0.832   4.632  11.551  0.0236 -0.5513  1.5255
 2432TIP3    H228712   0.703   4.708  11.526  0.5001 -0.2941 -0.3211
 2433TIP3   OH228713   0.213   4.685   5.043  0.5648  0.1970 -0.2078
 2433TIP3    H128714   0.291   4.680   4.988  0.3417  0.2183 -0.5323
 2433TIP3    H228715   0.214   4.774   5.078  1.0493 -0.0200  0.3376
 2434TIP3   OH228716   4.562   0.121   0.585  1.3392 -0.1569  0.4305
 2434TIP3    H128717   4.597   0.084   0.504  0.5711 -0.1428  0.0861
 2434TIP3    H228718   4.558   0.046   0.645  0.1497 -0.5678 -0.1444
 2435TIP3   OH228719   5.819   1.254  15.200  0.2472  0.2920 -0.1637
 2435TIP3    H128720   5.763   1.328  15.176  0.0547  0.6996  1.4342
 2435TIP3    H228721   5.783   1.222  15.282  0.9561 -0.9381 -0.3099
 2436TIP3   OH228722   6.171   4.533   4.054 -0.0312 -0.2488  0.1404
 2436TIP3    H128723   6.136   4.528   4.143 -0.3535 -0.8359 -0.0150
 2436TIP3    H228724   6.266   4.521   4.065 -0.0955 -0.5586  0.3865
 2437TIP3   OH228725   5.829   4.389  16.713 -0.0220  0.3813 -0.2598
 2437TIP3    H128726   5.841   4.481  16.736  0.2644  0.2712  0.0439
 2437TIP3    H228727   5.902   4.370  16.653  0.1291  0.2581 -0.0387
 2438TIP3   OH228728   3.730   1.862  12.529 -0.6130  0.0526 -0.0679
 2438TIP3    H128729   3.641   1.831  12.546 -0.4463  0.1748  1.0867
 2438TIP3    H228730   3.739   1.856  12.434 -0.7229 -3.0586  0.0106
 2439TIP3   OH228731   0.540   2.093   0.897  0.7782 -0.0071 -0.2854
 2439TIP3    H128732   0.518   2.054   0.813 -1.4901 -0.5766  0.5016
 2439TIP3    H228733   0.559   2.184   0.877 -2.0649  0.4935 -1.2246
 2440TIP3   OH228734   2.766   1.463   6.167 -0.0707 -0.4593 -0.1772
 2440TIP3    H128735   2.852   1.454   6.125 -1.0855  2.1393 -3.2732
 2440TIP3    H228736   2.781   1.521   6.241  0.6518  2.0304 -2.1232
 2441TIP3   OH228737   3.165   0.609  14.443  0.4042  0.4045  0.6469
 2441TIP3    H128738   3.192   0.699  14.427  3.8834 -0.7081 -0.6866
 2441TIP3    H228739   3.145   0.574  14.356  1.3761 -0.6794  0.8242
 2442TIP3   OH228740   4.377   2.192   0.187 -0.3581  0.1346 -0.5553
 2442TIP3    H128741   4.344   2.279   0.209 -1.0840  0.0495 -1.2452
 2442TIP3    H228742   4.364   2.141   0.266  0.6388  0.7974  0.0590
 2443TIP3   OH228743   0.504   2.185  15.586 -0.3110 -0.3249  0.4057
 2443TIP3    H128744   0.473   2.131  15.513 -0.0857  0.2369 -0.1065
 2443TIP3    H228745   0.577   2.235  15.550 -0.2455  0.0149  0.9959
 2444TIP3   OH228746   5.021   1.037  12.278  0.6125  0.0295 -0.1217
 2444TIP3    H128747   5.024   1.094  12.201 -3.0515  0.5963 -0.0050
 2444TIP3    H228748   5.069   0.959  12.251  1.3031  1.0737 -2.1698
 2445TIP3   OH228749   2.153   5.492  12.816  0.0866  0.1351  0.3045
 2445TIP3    H128750   2.066   5.523  12.844  0.2180 -0.0866  0.9885
 2445TIP3    H228751   2.136   5.441  12.737 -0.7300 -1.7523  1.6175
 2446TIP3   OH228752   1.432   4.492   0.139 -0.2941  0.2409 -0.2394
 2446TIP3    H128753   1.518   4.531   0.122  0.0017 -0.7866 -1.2733
 2446TIP3    H228754   1.398   4.539   0.214  1.2742  0.5438  0.3093
 2447TIP3   OH228755   4.470   1.850   0.368  0.4970  0.0723 -0.0893
 2447TIP3    H128756   4.427   1.917   0.316 -0.2469 -0.3692 -0.0582
 2447TIP3    H228757   4.416   1.772   0.357 -0.3063  0.2214  2.1734
 2448TIP3   OH228758   2.601   5.050  15.207  0.6977  0.3026  0.2239
 2448TIP3    H128759   2.512   5.084  15.198  0.6791 -0.0075 -1.0867
 2448TIP3    H228760   2.595   4.983  15.274 -0.0149  0.4143  0.2781
 2449TIP3   OH228761   6.250   3.942   2.301 -0.6088  0.3572  0.0506
 2449TIP3    H128762   6.176   3.998   2.325 -0.7224  0.1030  0.3091
 2449TIP3    H228763   6.290   3.918   2.384 -1.3895 -1.0486  0.0658
 2450TIP3   OH228764   3.102   2.649   4.695 -0.2744  0.0931 -0.1911
 2450TIP3    H128765   3.111   2.615   4.784  0.1036  0.8518  0.0724
 2450TIP3    H228766   3.044   2.587   4.652 -1.2038  0.2094  0.8505
 2451TIP3   OH228767   4.882   1.515  15.297 -0.0921 -0.1534 -0.3272
 2451TIP3    H128768   4.846   1.531  15.210 -0.4263 -0.3645 -0.2298
 2451TIP3    H228769   4.806   1.501  15.353  0.0695  1.2404  0.2648
 2452TIP3   OH228770   4.050   2.241  13.312  0.3179 -0.3573  0.4745
 2452TIP3    H128771   4.051   2.321  13.365 -0.8555 -0.4830  0.6967
 2452TIP3    H228772   4.016   2.269  13.227 -0.4391 -0.6859  0.6662
 2453TIP3   OH228773   4.744   5.940  11.571  0.0720 -0.1580  0.3484
 2453TIP3    H128774   4.658   5.908  11.546 -0.0544  0.2878  0.2060
 2453TIP3    H228775   4.745   5.932  11.667  0.5573 -1.8515  0.2357
 2454TIP3   OH228776   4.698   4.595  17.164 -0.0830 -0.1940  0.2904
 2454TIP3    H128777   4.757   4.660  17.126  0.1079 -0.3691  0.2857
 2454TIP3    H228778   4.742   4.566  17.244 -1.1512  1.2267  1.4295
 2455TIP3   OH228779   2.890   5.372  11.232 -0.4433 -0.0077  0.7506
 2455TIP3    H128780   2.911   5.392  11.140 -0.2203  2.4572  1.2795
 2455TIP3    H228781   2.797   5.396  11.240  0.0778  1.8279  1.6503
 2456TIP3   OH228782   5.110   2.114   5.530 -0.0275  0.4237 -0.1329
 2456TIP3    H128783   5.141   2.061   5.603 -2.8637 -2.7342 -0.9925
 2456TIP3    H228784   5.092   2.200   5.569  1.3434 -0.2564  2.1761
 2457TIP3   OH228785   4.896   6.711  16.546 -0.5529  0.3596  0.3638
 2457TIP3    H128786   4.856   6.645  16.602 -0.2614  0.3064  0.5069
 2457TIP3    H228787   4.822   6.753  16.503 -0.7349 -0.1718  0.1446
 2458TIP3   OH228788   0.711   6.425  17.237  0.1719  0.0594  0.1035
 2458TIP3    H128789   0.772   6.498  17.224 -0.8726  0.8795 -0.3270
 2458TIP3    H228790   0.750   6.373  17.307  2.6155 -0.7895 -1.6999
 2459TIP3   OH228791   1.638   5.439  16.760  0.7418  0.4344 -0.5815
 2459TIP3    H128792   1.589   5.516  16.788 -0.7227 -0.8609  0.5949
 2459TIP3    H228793   1.584   5.400  16.691 -0.5888 -1.5782  1.4265
 2460TIP3   OH228794   4.432   3.381   0.047  0.3853 -0.4071 -0.8762
 2460TIP3    H128795   4.498   3.326   0.004  0.5777  1.1316 -2.7211
 2460TIP3    H228796   4.457   3.470   0.023 -0.8743  0.3914  0.6102
 2461TIP3   OH228797   4.479   1.672   2.640 -0.3749 -0.3005 -0.4294
 2461TIP3    H128798   4.434   1.606   2.587 -0.4881 -2.9957  2.6600
 2461TIP3    H228799   4.544   1.622   2.689  0.9743  2.2916  0.5972
 2462TIP3   OH228800   0.468   3.472  13.968  0.0625  0.0155  0.5846
 2462TIP3    H128801   0.382   3.444  13.998  0.3208 -2.1904 -0.5648
 2462TIP3    H228802   0.487   3.550  14.021 -2.5880  0.5618  0.8856
 2463TIP3   OH228803   6.544   4.557  11.266 -0.8866 -0.1258  0.4689
 2463TIP3    H128804   6.570   4.646  11.292 -1.5148 -0.1346  1.1795
 2463TIP3    H228805   6.512   4.518  11.347 -0.9026 -0.9016  0.0907
 2464TIP3   OH228806   3.659   1.579   0.115  0.2998 -0.2681  0.1234
 2464TIP3    H128807   3.663   1.493   0.074  0.7983  0.4284 -1.3465
 2464TIP3    H228808   3.565   1.595   0.129 -0.1052  0.2792 -2.6154
 2465TIP3   OH228809   5.915   6.350   2.062 -0.0887 -0.2028 -0.1306
 2465TIP3    H128810   5.854   6.374   1.992  1.2873  0.8307 -1.0367
 2465TIP3    H228811   5.996   6.396   2.040 -0.1040  1.7378  3.1181
 2466TIP3   OH228812   5.021   5.990   1.286  0.5318  0.2076 -0.4467
 2466TIP3    H128813   5.055   5.903   1.302  0.0729 -0.1862 -1.5073
 2466TIP3    H228814   4.949   6.000   1.349 -0.1600 -0.6371 -1.0930
 2467TIP3   OH228815   1.127   0.983   1.655  0.1649  0.8524  0.1704
 2467TIP3    H128816   1.216   0.952   1.635  0.0004  0.7612 -0.4204
 2467TIP3    H228817   1.141   1.068   1.697  0.5232  0.9414 -0.1189
 2468TIP3   OH228818   6.027   4.785  11.876 -0.1839 -0.9136 -0.4054
 2468TIP3    H128819   5.971   4.711  11.853  0.3221 -1.7116  0.8112
 2468TIP3    H228820   6.103   4.775  11.819 -0.3504 -1.0343 -0.6077
 2469TIP3   OH228821   5.498   4.673   1.468  0.1168  0.0312  0.5535
 2469TIP3    H128822   5.523   4.625   1.547  0.1527 -0.2262  0.3877
 2469TIP3    H228823   5.558   4.640   1.400  1.3752  1.6308  0.8343
 2470TIP3   OH228824   4.648   5.861  16.122  0.1278 -0.2253  0.2212
 2470TIP3    H128825   4.570   5.807  16.118  0.9356 -1.3604 -1.0564
 2470TIP3    H228826   4.628   5.936  16.065 -1.1992  1.1896  2.4204
 2471TIP3   OH228827   6.084   3.972   6.704  0.7109 -0.2797  0.1438
 2471TIP3    H128828   6.026   4.024   6.649  1.6807  1.0522  0.3165
 2471TIP3    H228829   6.059   3.994   6.793  0.0097 -1.4327  0.2457
 2472TIP3   OH228830   0.853   1.585  11.466 -0.7569 -0.5346  0.3158
 2472TIP3    H128831   0.808   1.587  11.551 -0.6584 -0.8823  0.3797
 2472TIP3    H228832   0.843   1.495  11.436 -0.1762 -0.5968  0.2913
 2473TIP3   OH228833   0.553   1.321  15.628 -0.7126 -0.4122  0.0709
 2473TIP3    H128834   0.479   1.382  15.633  0.3187  1.0549 -1.4198
 2473TIP3    H228835   0.515   1.239  15.597 -1.7814  0.1927 -0.2486
 2474TIP3   OH228836   5.344   3.815  12.033 -0.5670 -0.1653 -0.0449
 2474TIP3    H128837   5.280   3.761  12.080  0.0072  1.2311  2.5879
 2474TIP3    H228838   5.367   3.764  11.955 -2.7175 -1.9950  0.4230
 2475TIP3   OH228839   1.020   6.247   4.490  0.8384  0.2632  0.2751
 2475TIP3    H128840   1.001   6.278   4.579  0.9127  0.5156  0.2031
 2475TIP3    H228841   0.934   6.227   4.453  0.6934  1.4702 -0.0768
 2476TIP3   OH228842   4.578   5.381   4.958 -0.2151  0.2842 -0.3870
 2476TIP3    H128843   4.618   5.305   5.001  0.8121  1.1259  0.1942
 2476TIP3    H228844   4.582   5.450   5.024 -1.8405  0.6582 -0.6306
 2477TIP3   OH228845   5.566   6.254  14.898 -0.2004 -0.2369 -0.1906
 2477TIP3    H128846   5.488   6.272  14.845 -1.0179  1.4570  1.4782
 2477TIP3    H228847   5.532   6.233  14.985  1.1799  0.6201  0.5949
 2478TIP3   OH228848   1.156   4.311   2.401 -0.0818 -0.3182  0.1650
 2478TIP3    H128849   1.235   4.294   2.348 -1.1944 -0.1381 -1.6415
 2478TIP3    H228850   1.135   4.226   2.439  1.8513 -0.0495  2.0112
 2479TIP3   OH228851   6.762   5.708   4.776 -0.4021  0.1283  0.2792
 2479TIP3    H128852   6.762   5.784   4.834 -0.0637  0.1440  0.2595
 2479TIP3    H228853   6.779   5.745   4.689 -2.3235  0.2866 -0.0800
 2480TIP3   OH228854   1.259   5.438   4.787 -0.0283 -0.4055 -0.0608
 2480TIP3    H128855   1.321   5.397   4.727  0.7800 -0.8290  1.0347
 2480TIP3    H228856   1.209   5.365   4.823  1.1158 -0.4367  1.5647
 2481TIP3   OH228857   3.963   3.240  10.670  0.0627 -0.0721  0.1017
 2481TIP3    H128858   3.964   3.314  10.610 -2.4865 -0.6160 -0.6975
 2481TIP3    H228859   3.872   3.232  10.699  0.4507 -2.2497  0.9729
 2482TIP3   OH228860   2.475   0.920   4.971 -0.1357 -0.1703 -0.0778
 2482TIP3    H128861   2.563   0.949   4.947  0.7946 -0.6716  2.4496
 2482TIP3    H228862   2.460   0.955   5.058 -1.6043 -1.8331  0.4100
 2483TIP3   OH228863   0.331   4.522   0.958  0.3131 -0.0335 -0.2802
 2483TIP3    H128864   0.267   4.591   0.974 -1.0040 -0.9823 -1.2766
 2483TIP3    H228865   0.285   4.441   0.980  1.3406 -0.7032 -0.5346
 2484TIP3   OH228866   4.404   4.600   1.273 -0.2603  0.5127 -0.5691
 2484TIP3    H128867   4.497   4.580   1.280 -0.0310  1.6991  0.0769
 2484TIP3    H228868   4.400   4.696   1.270 -1.3545  0.4572 -2.3915
 2485TIP3   OH228869   3.269   3.497  12.975 -1.0317  0.2928  0.0576
 2485TIP3    H128870   3.329   3.563  13.010 -2.7038  0.5786  2.6503
 2485TIP3    H228871   3.304   3.414  13.008 -1.5189  0.3709  0.7900
 2486TIP3   OH228872   2.101   2.020  14.774  0.2330  0.3730 -0.3412
 2486TIP3    H128873   2.012   1.990  14.755 -0.6743  0.9128  2.5611
 2486TIP3    H228874   2.095   2.115  14.772  0.3910  0.4289  1.1552
 2487TIP3   OH228875   2.000   3.651  12.518 -0.1101 -0.1758 -0.3491
 2487TIP3    H128876   1.905   3.661  12.517 -0.2320 -1.2450 -0.2642
 2487TIP3    H228877   2.033   3.741  12.516 -1.1106  0.1963 -1.3257
 2488TIP3   OH228878   1.445   2.302   4.266  0.2322 -0.2147  0.6233
 2488TIP3    H128879   1.526   2.345   4.293  1.7288 -1.6740 -1.2806
 2488TIP3    H228880   1.395   2.370   4.221  0.2961  0.7300  1.9298
 2489TIP3   OH228881   6.761   1.160  11.273 -0.8393  0.0198 -0.0229
 2489TIP3    H128882   6.668   1.170  11.292 -0.3986  1.8981  1.3994
 2489TIP3    H228883   6.775   1.212  11.194 -0.7631  0.9485  0.5839
 2490TIP3   OH228884   4.971   3.228   4.664  0.2380 -0.7883  0.1566
 2490TIP3    H128885   4.904   3.277   4.616  0.2585 -0.7909  0.1256
 2490TIP3    H228886   5.022   3.184   4.596  1.2616  0.4622  0.0676
 2491TIP3   OH228887   0.821   6.425  16.098  0.0028 -0.0567  0.0903
 2491TIP3    H128888   0.825   6.446  16.191 -1.8640  0.2288  0.1456
 2491TIP3    H228889   0.754   6.357  16.091  0.7349 -0.7063 -0.9624
 2492TIP3   OH228890   1.073   3.582  11.787 -0.2529 -0.3083 -0.6558
 2492TIP3    H128891   1.014   3.508  11.773 -1.7095  0.5663  0.5891
 2492TIP3    H228892   1.015   3.655  11.809  1.1839  1.0806 -1.3097
 2493TIP3   OH228893   6.301   6.555   2.438  0.1220  0.0600  0.0429
 2493TIP3    H128894   6.238   6.524   2.503  0.3767 -0.4265  0.0612
 2493TIP3    H228895   6.249   6.602   2.374 -0.1138  0.7164  0.6993
 2494TIP3   OH228896   0.241   0.314   3.994  0.3215 -0.4330 -0.4857
 2494TIP3    H128897   0.297   0.313   3.916  1.1643 -0.6127  0.1028
 2494TIP3    H228898   0.281   0.251   4.054  0.9046  1.1522  0.9033
 2495TIP3   OH228899   3.395   5.011   4.926  0.0650 -0.6173 -0.1235
 2495TIP3    H128900   3.402   5.036   5.018 -0.0420 -1.5166  0.1397
 2495TIP3    H228901   3.466   4.948   4.913  0.1379 -0.4261 -0.6866
 2496TIP3   OH228902   5.665   6.495  12.725  0.2146 -0.5199 -0.2043
 2496TIP3    H128903   5.756   6.523  12.714  0.4577 -1.4841 -0.7917
 2496TIP3    H228904   5.645   6.449  12.644 -1.0270  0.2570 -0.3604
 2497TIP3   OH228905   3.558   3.592  11.533 -0.4163  0.2680  0.2516
 2497TIP3    H128906   3.614   3.652  11.582 -2.2176  2.7521 -0.4957
 2497TIP3    H228907   3.469   3.614  11.562 -1.4251  0.6719 -2.8449
 2498TIP3   OH228908   1.534   4.896  13.563  0.1884 -0.3191  0.1912
 2498TIP3    H128909   1.452   4.846  13.569 -0.5549  0.8154 -0.1857
 2498TIP3    H228910   1.589   4.845  13.504 -0.7272 -0.4655 -0.5577
 2499TIP3   OH228911   4.142   6.290   3.228  0.0447  0.0796 -0.0690
 2499TIP3    H128912   4.130   6.207   3.183 -0.8046  0.5453 -0.7372
 2499TIP3    H228913   4.192   6.344   3.166 -0.7372  0.5736 -0.2767
 2500TIP3   OH228914   5.976   6.482   3.245  0.2430  0.1905  0.2783
 2500TIP3    H128915   5.946   6.422   3.176  1.2781  0.4810 -0.4558
 2500TIP3    H228916   6.060   6.516   3.212 -0.4069  2.2000  0.5786
 2501TIP3   OH228917   4.390   3.639  12.606  0.1520 -1.1449  0.6097
 2501TIP3    H128918   4.348   3.561  12.569  0.1554 -1.0725  0.4539
 2501TIP3    H228919   4.365   3.710  12.547 -0.5357 -0.8786  1.2153
 2502TIP3   OH228920   5.260   5.398  17.278 -0.1533 -0.2285  0.2971
 2502TIP3    H128921   5.172   5.398  17.240 -0.1269 -2.3813  0.1003
 2502TIP3    H228922   5.318   5.407  17.203 -0.1727 -1.4569  0.1154
 2503TIP3   OH228923   5.969   6.392  14.657 -0.1991 -0.3664  0.1793
 2503TIP3    H128924   5.926   6.439  14.729 -1.8472  1.5851 -1.9434
 2503TIP3    H228925   5.906   6.324  14.632 -1.0330  0.8968 -1.3121
 2504TIP3   OH228926   5.835   2.210   2.788  0.3477  0.1344  0.5620
 2504TIP3    H128927   5.925   2.235   2.764 -0.4400  0.8135 -2.1121
 2504TIP3    H228928   5.839   2.116   2.800  1.2857  0.0143 -0.4438
 2505TIP3   OH228929   6.003   6.315  15.466  0.7945  0.0297 -0.2394
 2505TIP3    H128930   5.990   6.409  15.462  0.6762 -0.0125 -0.8612
 2505TIP3    H228931   5.935   6.278  15.410  2.2190 -0.2974 -1.8197
 2506TIP3   OH228932   4.240   4.378   5.733 -0.6030  0.0609  0.2829
 2506TIP3    H128933   4.205   4.323   5.663  0.7829 -0.1339 -0.2817
 2506TIP3    H228934   4.167   4.435   5.757 -1.4125 -0.5674 -0.6028
 2507TIP3   OH228935   3.881   2.911  17.082 -0.1866  0.0310  0.8580
 2507TIP3    H128936   3.960   2.935  17.032 -0.0575 -0.1229  0.9899
 2507TIP3    H228937   3.886   2.816  17.090 -0.6610 -0.0356  0.4026
 2508TIP3   OH228938   5.882   3.163  12.192  0.1559  0.2685  0.0101
 2508TIP3    H128939   5.789   3.143  12.196  0.4361 -1.1486 -0.1307
 2508TIP3    H228940   5.900   3.210  12.273 -0.7768  1.0720 -0.2208
 2509TIP3   OH228941   2.340   0.438   5.500 -0.0327  0.2427  0.4793
 2509TIP3    H128942   2.343   0.512   5.560 -1.8358  0.2982  0.5578
 2509TIP3    H228943   2.287   0.469   5.426  0.8624 -0.3283 -0.4269
 2510TIP3   OH228944   5.481   5.145   5.268  0.2394  0.3893 -0.3193
 2510TIP3    H128945   5.553   5.187   5.315  0.8853 -0.4694 -0.5232
 2510TIP3    H228946   5.469   5.061   5.312 -0.2448  0.2733 -0.6611
 2511TIP3   OH228947   1.486   4.081   0.748  0.7208 -0.1778  0.6643
 2511TIP3    H128948   1.402   4.125   0.733  0.9741  0.3315  0.7154
 2511TIP3    H228949   1.489   4.067   0.842  0.3642 -0.8749  0.5795
 2512TIP3   OH228950   0.781   4.766   4.850  0.4269 -0.0616  0.0818
 2512TIP3    H128951   0.784   4.839   4.788 -1.7710 -1.2341 -1.5807
 2512TIP3    H228952   0.818   4.692   4.802  0.5323 -0.5471  0.8945
 2513TIP3   OH228953   1.964   5.154  14.707 -0.4255 -0.6088 -0.1933
 2513TIP3    H128954   1.999   5.224  14.762  2.8810 -0.8360 -1.8017
 2513TIP3    H228955   1.984   5.073  14.754 -0.4350 -0.6670 -0.2874
 2514TIP3   OH228956   3.945   1.451  16.121 -0.7208 -0.0529  0.6924
 2514TIP3    H128957   3.994   1.462  16.202  1.3802 -0.4920 -0.4341
 2514TIP3    H228958   3.917   1.360  16.122 -0.4517 -0.1347  0.7857
 2515TIP3   OH228959   2.421   1.883  16.566  0.0006  0.5894  0.4985
 2515TIP3    H128960   2.428   1.825  16.642  0.4594 -0.4551 -0.3103
 2515TIP3    H228961   2.497   1.941  16.572  0.3498  0.1279  0.5359
 2516TIP3   OH228962   2.795   1.561  14.478 -0.4146 -0.0724 -0.2960
 2516TIP3    H128963   2.718   1.604  14.442  0.8467  2.1923 -0.4802
 2516TIP3    H228964   2.869   1.600  14.431  0.8454 -2.7620 -0.7319
 2517TIP3   OH228965   6.131   5.226  14.492  0.9732  0.0172 -0.2719
 2517TIP3    H128966   6.150   5.320  14.492  0.9517  0.0469 -1.6158
 2517TIP3    H228967   6.127   5.202  14.584 -0.4185  1.6257  0.1392
 2518TIP3   OH228968   5.417   1.833   2.248  0.6234 -0.5031  0.4554
 2518TIP3    H128969   5.476   1.853   2.175 -0.4331  1.4020  0.0286
 2518TIP3    H228970   5.396   1.740   2.238  0.6409 -0.3452 -1.6094
 2519TIP3   OH228971   4.088   3.370  14.796 -0.5592  0.2210  0.5097
 2519TIP3    H128972   4.025   3.366  14.868  0.1231  3.9753  1.5439
 2519TIP3    H228973   4.087   3.462  14.768  0.0512 -0.8235 -3.6014
 2520TIP3   OH228974   6.394   2.588  13.666  0.3432  0.0990  0.1341
 2520TIP3    H128975   6.468   2.554  13.716  0.3082  0.1689  0.2326
 2520TIP3    H228976   6.390   2.531  13.589  0.1336 -0.2746  0.4193
 2521TIP3   OH228977   0.869   6.429  12.664  0.6137 -0.5686 -0.6043
 2521TIP3    H128978   0.885   6.367  12.592  1.4164 -0.8545 -0.1866
 2521TIP3    H228979   0.784   6.467  12.644  1.4339  0.3925 -2.4486
 2522TIP3   OH228980   5.088   1.484   1.321  0.2427  0.0671 -0.2903
 2522TIP3    H128981   5.004   1.448   1.293  0.9071 -1.5588 -0.2960
 2522TIP3    H228982   5.112   1.434   1.399  0.3466  1.7929  0.8503
 2523TIP3   OH228983   2.700   1.382   1.262 -0.2707 -0.1674 -0.3820
 2523TIP3    H128984   2.715   1.348   1.350  1.2699  0.4359 -0.3852
 2523TIP3    H228985   2.784   1.373   1.218 -0.6681  0.7484 -1.3673
 2524TIP3   OH228986   6.065   5.073  14.016  0.0834 -0.1838 -0.1026
 2524TIP3    H128987   5.982   5.087  13.969 -0.4828  1.5337  1.3322
 2524TIP3    H228988   6.111   5.156  14.009  1.5493 -1.0031 -0.5445
 2525TIP3   OH228989   5.589   0.137  10.915  0.3632  0.5448 -0.7799
 2525TIP3    H128990   5.495   0.132  10.934 -0.0655  1.9512 -2.2429
 2525TIP3    H228991   5.603   0.068  10.850  0.7786 -0.9252  0.8110
 2526TIP3   OH228992   2.627   5.392  11.108 -0.0376 -0.4713  0.4499
 2526TIP3    H128993   2.644   5.386  11.014  0.7957 -0.1967  0.5740
 2526TIP3    H228994   2.599   5.483  11.121  0.2107 -0.4040  0.5190
 2527TIP3   OH228995   1.970   5.663   6.287  0.3556  0.0022 -0.3729
 2527TIP3    H128996   2.061   5.681   6.311  0.2986 -0.6579  0.3717
 2527TIP3    H228997   1.946   5.735   6.229  1.3248  0.2294 -0.5062
 2528TIP3   OH228998   5.908   2.855  10.692 -0.0468 -0.0479 -0.0274
 2528TIP3    H128999   5.861   2.879  10.773 -1.3409  0.3482 -0.8674
 2528TIP3    H229000   5.951   2.936  10.665 -0.2357  0.0215 -0.1273
 2529TIP3   OH229001   5.929   1.228  14.635 -0.2295  0.2833  0.0793
 2529TIP3    H129002   5.898   1.206  14.547 -1.7252  2.8939 -0.1542
 2529TIP3    H229003   5.956   1.320  14.629  1.5853 -0.0420  1.9079
 2530TIP3   OH229004   3.325   0.690   4.578 -0.3200  0.1607  0.0398
 2530TIP3    H129005   3.375   0.609   4.569 -1.0729 -0.4650  1.3071
 2530TIP3    H229006   3.243   0.672   4.531 -0.4140  0.2613  0.1659
 2531TIP3   OH229007   1.839   1.143  14.499  0.1667 -0.0246  0.3194
 2531TIP3    H129008   1.910   1.088  14.464  0.2771  0.7380 -0.7174
 2531TIP3    H229009   1.858   1.150  14.592  1.5744  0.2910  0.0462
 2532TIP3   OH229010   3.174   5.245  11.580  0.2987 -0.2555  0.3418
 2532TIP3    H129011   3.258   5.263  11.623 -0.1159  0.1252  1.0158
 2532TIP3    H229012   3.159   5.152  11.597  1.9764 -1.1254 -2.3106
 2533TIP3   OH229013   0.583   1.304  16.914  0.3941 -0.3854  0.4529
 2533TIP3    H129014   0.590   1.376  16.852  0.0904 -1.2578 -0.6214
 2533TIP3    H229015   0.491   1.278  16.911  0.6638 -1.3469  0.1966
 2534TIP3   OH229016   5.128   6.304   6.950  0.5524  0.0722 -0.7194
 2534TIP3    H129017   5.061   6.339   6.892  0.0715 -0.7874 -0.7087
 2534TIP3    H229018   5.196   6.270   6.892 -0.4037 -1.7288 -0.8672
 2535TIP3   OH229019   1.633   4.226  12.050 -0.0215 -0.1627  0.2510
 2535TIP3    H129020   1.636   4.321  12.066 -1.9036 -0.4055  2.7340
 2535TIP3    H229021   1.703   4.190  12.105  0.7581 -0.2389 -0.7687
 2536TIP3   OH229022   0.391   6.590   5.741 -0.5831  0.0865 -0.0641
 2536TIP3    H129023   0.395   6.497   5.721 -2.2214 -0.4876  1.9330
 2536TIP3    H229024   0.472   6.608   5.788  0.5658  0.1312 -1.9698
 2537TIP3   OH229025   2.860   2.692  12.463 -0.0477 -0.6013  0.5660
 2537TIP3    H129026   2.881   2.782  12.437  0.7367 -0.9847 -0.2077
 2537TIP3    H229027   2.816   2.701  12.547 -0.0663  0.5135  0.4597
 2538TIP3   OH229028   2.799   1.479  13.670  0.8570 -0.0406  0.4852
 2538TIP3    H129029   2.890   1.505  13.660  1.1757 -1.5350 -0.8672
 2538TIP3    H229030   2.755   1.514  13.594 -0.1260  2.1445  1.9621
 2539TIP3   OH229031   5.310   5.859  15.656 -0.1073  0.2285  0.2355
 2539TIP3    H129032   5.330   5.946  15.690  0.6340 -0.1130  0.7073
 2539TIP3    H229033   5.372   5.846  15.585 -0.0276 -0.0168  0.3462
 2540TIP3   OH229034   5.029   3.680  13.062  0.3384 -0.5352  0.2007
 2540TIP3    H129035   4.976   3.661  12.985  1.7116 -2.2475 -0.3917
 2540TIP3    H229036   5.007   3.609  13.123 -0.3176  0.4930  1.1906
 2541TIP3   OH229037   3.868   1.064  12.414 -0.3719 -0.1913  0.1210
 2541TIP3    H129038   3.849   1.150  12.376 -0.8622  0.6089  2.0588
 2541TIP3    H229039   3.801   1.007  12.378 -0.0735  0.2231 -1.1556
 2542TIP3   OH229040   3.293   2.081  11.731 -0.3440  0.3226  0.4949
 2542TIP3    H129041   3.276   2.174  11.739  0.3044  0.3410  1.9524
 2542TIP3    H229042   3.208   2.039  11.747 -0.3392  0.6236  1.3464
 2543TIP3   OH229043   6.512   2.871  16.717  0.6336 -0.0091 -0.1453
 2543TIP3    H129044   6.594   2.866  16.766 -0.3451 -0.4594  1.5181
 2543TIP3    H229045   6.507   2.788  16.670  1.6905  0.5196 -1.2621
 2544TIP3   OH229046   1.678   2.114  12.279 -0.6380  0.6694  0.4137
 2544TIP3    H129047   1.632   2.034  12.306  1.3318 -0.7718 -0.2419
 2544TIP3    H229048   1.650   2.127  12.188 -0.2535  0.1718  0.2205
 2545TIP3   OH229049   6.716   3.384  11.648 -0.3367  0.1633  1.0303
 2545TIP3    H129050   6.626   3.416  11.645  0.3153  2.0722  0.4521
 2545TIP3    H229051   6.726   3.330  11.570 -0.0202  2.8522 -0.9181
 2546TIP3   OH229052   0.596   6.188  15.674  0.7204 -0.0816  0.8020
 2546TIP3    H129053   0.679   6.156  15.709  0.4830 -0.7156  0.8100
 2546TIP3    H229054   0.540   6.110  15.672  0.2383  0.2692  0.4723
 2547TIP3   OH229055   1.819   2.953   0.360 -0.1266 -0.4527 -0.0779
 2547TIP3    H129056   1.791   2.865   0.386 -3.3976  1.1174  2.4187
 2547TIP3    H229057   1.812   2.952   0.264 -1.0371 -2.6520 -0.0578
 2548TIP3   OH229058   1.643   1.626  16.493 -0.0911 -0.0994  0.8421
 2548TIP3    H129059   1.706   1.689  16.529  1.3856  0.2845 -2.1190
 2548TIP3    H229060   1.671   1.541  16.528  1.0686  0.2824  0.8765
 2549TIP3   OH229061   1.044   2.243   5.619  0.7512  0.1549 -0.4527
 2549TIP3    H129062   0.965   2.258   5.671  0.8369  0.4005 -0.3963
 2549TIP3    H229063   1.116   2.267   5.676  0.8755 -0.2074 -0.4560
 2550TIP3   OH229064   4.305   6.664   0.415 -0.1926 -0.1180  0.0108
 2550TIP3    H129065   4.348   6.738   0.372  1.6475 -0.6595  0.8007
 2550TIP3    H229066   4.310   6.685   0.509 -1.2003 -0.4561  0.1461
 2551TIP3   OH229067   1.742   0.974  14.820  0.1967 -0.3195  0.0798
 2551TIP3    H129068   1.747   0.964  14.725 -0.4175 -0.8081  0.0942
 2551TIP3    H229069   1.648   0.976  14.839  0.2824  1.1953  0.5344
 2552TIP3   OH229070   6.664   1.942  15.439 -0.4819 -0.0176 -0.2420
 2552TIP3    H129071   6.631   1.986  15.517  0.1471  0.7045 -0.3591
 2552TIP3    H229072   6.665   2.010  15.372 -1.7843 -0.8310 -1.1192
 2553TIP3   OH229073   2.432   4.559   0.499 -0.3866 -0.2306 -0.1176
 2553TIP3    H129074   2.510   4.562   0.555  1.2001  2.0109 -2.2447
 2553TIP3    H229075   2.441   4.478   0.449 -0.1408 -0.6429  0.5769
 2554TIP3   OH229076   1.513   3.171   1.814  0.7520 -0.2339  0.0372
 2554TIP3    H129077   1.598   3.213   1.823  1.0536 -1.0401  1.1751
 2554TIP3    H229078   1.531   3.087   1.773  0.4345 -0.1955 -0.1909
 2555TIP3   OH229079   2.593   6.664   2.847  0.2643 -0.2187  0.0100
 2555TIP3    H129080   2.609   6.576   2.881  1.0914  1.1530  3.6935
 2555TIP3    H229081   2.506   6.687   2.881  0.3175  0.5843 -0.3901
 2556TIP3   OH229082   0.804   4.587   3.060 -0.1985  0.1244 -0.1853
 2556TIP3    H129083   0.855   4.566   2.981 -0.7001  0.9810 -0.7537
 2556TIP3    H229084   0.870   4.601   3.128  0.3650  1.2781 -0.9214
 2557TIP3   OH229085   2.028   4.734  11.718  0.2319 -0.5955  0.0135
 2557TIP3    H129086   2.080   4.811  11.696 -1.0443 -0.1706 -1.6976
 2557TIP3    H229087   2.055   4.712  11.808  2.4746  0.2800 -0.3808
 2558TIP3   OH229088   0.935   4.837  14.293 -0.0695  0.0030  0.1849
 2558TIP3    H129089   0.993   4.864  14.364 -0.4948 -1.7293  1.2233
 2558TIP3    H229090   0.960   4.894  14.220  2.9688 -0.6690  0.5761
 2559TIP3   OH229091   5.026   3.968  10.794 -0.1318 -0.3906  0.7462
 2559TIP3    H129092   5.044   4.016  10.713  0.9675 -0.3954  0.9744
 2559TIP3    H229093   5.065   3.881  10.780  0.1989 -0.3423  1.3326
 2560TIP3   OH229094   1.185   0.550  15.478  0.1304  0.1910  0.3213
 2560TIP3    H129095   1.194   0.522  15.387  0.0212 -1.2680  0.7332
 2560TIP3    H229096   1.114   0.614  15.477 -1.1964 -1.2306 -0.3706
 2561TIP3   OH229097   2.659   2.387   3.779  0.3325  0.2964 -0.0780
 2561TIP3    H129098   2.657   2.392   3.683  0.2317  0.6229 -0.0629
 2561TIP3    H229099   2.751   2.373   3.801  0.3391  0.1062 -0.2284
 2562TIP3   OH229100   4.720   6.358   4.798 -0.4509 -0.3085  0.2175
 2562TIP3    H129101   4.698   6.342   4.706 -0.2588  1.3210 -0.1396
 2562TIP3    H229102   4.643   6.401   4.834 -0.2719 -0.3388  0.6436
 2563TIP3   OH229103   1.355   3.769  12.742 -0.7349 -0.3135 -0.1436
 2563TIP3    H129104   1.380   3.773  12.650  2.0108 -0.5198  0.5238
 2563TIP3    H229105   1.312   3.852  12.759  2.9651  1.8917 -0.5528
 2564TIP3   OH229106   6.157   5.272  16.321  0.3397  0.1484 -0.0047
 2564TIP3    H129107   6.249   5.276  16.347  0.3801 -0.0870 -0.1145
 2564TIP3    H229108   6.147   5.187  16.280  0.2289  0.4407 -0.5860
 2565TIP3   OH229109   3.155   5.080   5.579  0.2076 -0.0131  0.1363
 2565TIP3    H129110   3.196   4.995   5.595  1.2109  0.2767 -0.8030
 2565TIP3    H229111   3.228   5.142   5.577 -0.3513  0.6373 -0.7789
 2566TIP3   OH229112   3.170   5.017   2.017 -0.2260 -0.0284  0.5823
 2566TIP3    H129113   3.174   5.025   1.922  0.5762 -0.5678  0.5542
 2566TIP3    H229114   3.097   4.957   2.034 -0.6379  0.3992  0.3336
 2567TIP3   OH229115   6.268   2.505  14.590 -0.0835  0.3411 -0.2988
 2567TIP3    H129116   6.298   2.414  14.596 -4.0278 -1.0409  2.7885
 2567TIP3    H229117   6.225   2.510  14.504 -1.7699 -1.4886  0.3845
 2568TIP3   OH229118   5.407   1.766  12.990  0.0560  0.2500 -0.0521
 2568TIP3    H129119   5.390   1.754  12.897 -0.7608  2.4097 -0.2372
 2568TIP3    H229120   5.503   1.763  12.998  0.1001 -0.7760 -0.8016
 2569TIP3   OH229121   1.831   3.827   2.213  0.3471 -0.5951 -0.0905
 2569TIP3    H129122   1.907   3.862   2.259  0.3431 -0.6379 -0.0516
 2569TIP3    H229123   1.855   3.831   2.120  0.8477 -1.6719 -0.0126
 2570TIP3   OH229124   4.194   5.214  10.107 -0.0941 -0.4003  0.4038
 2570TIP3    H129125   4.144   5.288  10.072  1.3899  0.5699  0.2077
 2570TIP3    H229126   4.142   5.137  10.086 -0.0672  0.2625 -2.5581
 2571TIP3   OH229127   0.777   0.023  15.450  0.3352 -0.5656  0.6028
 2571TIP3    H129128   0.859   0.031  15.499  0.2530 -3.2112  1.3346
 2571TIP3    H229129   0.729  -0.046  15.495 -2.0212  0.4386 -0.2337
 2572TIP3   OH229130   5.839   3.826  12.510  0.0373  0.7061 -0.1292
 2572TIP3    H129131   5.786   3.757  12.551 -1.0132  1.3595 -0.3523
 2572TIP3    H229132   5.871   3.785  12.429  0.0103  0.2533  0.0816
 2573TIP3   OH229133   4.626   2.586  14.134  0.4650 -0.4091  0.5702
 2573TIP3    H129134   4.710   2.601  14.091  0.0186 -1.7862 -0.8625
 2573TIP3    H229135   4.574   2.537  14.070 -0.8172 -1.1031  2.0692
 2574TIP3   OH229136   2.222   1.169   2.767  0.4545  0.1970  0.1173
 2574TIP3    H129137   2.285   1.104   2.800 -1.2505 -0.1982  2.9084
 2574TIP3    H229138   2.148   1.116   2.736  0.6912  0.7168 -1.3812
 2575TIP3   OH229139   4.670   4.649  15.879  0.0060  0.3478 -0.5449
 2575TIP3    H129140   4.617   4.667  15.802 -1.0995 -1.3266 -0.2355
 2575TIP3    H229141   4.643   4.561  15.907  1.7948  0.0878  0.5827
 2576TIP3   OH229142   3.594   5.018   5.694 -0.2702 -0.3996  0.1242
 2576TIP3    H129143   3.670   5.074   5.708 -0.3670 -0.5363  1.3083
 2576TIP3    H229144   3.544   5.063   5.626 -0.1963  0.8155  0.8310
 2577TIP3   OH229145   6.235   5.229  14.758 -0.0263 -0.1956  0.6841
 2577TIP3    H129146   6.313   5.174  14.769  1.8823  2.4683  1.7925
 2577TIP3    H229147   6.179   5.208  14.833  0.3032 -1.1508  0.6675
 2578TIP3   OH229148   0.516   0.859   3.323 -0.0879  0.0248  0.1648
 2578TIP3    H129149   0.586   0.895   3.268  1.1654 -0.4578  1.3842
 2578TIP3    H229150   0.467   0.935   3.353  0.3214  0.4201 -0.1608
 2579TIP3   OH229151   2.689   4.541   3.077 -0.1470 -0.1664  0.5470
 2579TIP3    H129152   2.775   4.564   3.112  0.0566 -0.2359  0.1077
 2579TIP3    H229153   2.630   4.609   3.109 -0.1085 -0.6032  1.5881
 2580TIP3   OH229154   5.220   1.109   2.138  0.3615 -0.1223  0.2349
 2580TIP3    H129155   5.139   1.144   2.176  0.4211  0.7283 -0.4197
 2580TIP3    H229156   5.217   1.135   2.046  1.3940 -0.0609  0.2131
 2581TIP3   OH229157   0.052   6.704   3.911 -0.5309 -0.3420 -0.2508
 2581TIP3    H129158  -0.028   6.655   3.932 -1.4500  0.2255 -2.2110
 2581TIP3    H229159   0.039   6.789   3.952 -0.4553 -0.5831  0.2879
 2582TIP3   OH229160   2.409   6.574   4.265  0.3301  0.1276 -0.3787
 2582TIP3    H129161   2.425   6.543   4.176  0.0474 -3.0918  0.5501
 2582TIP3    H229162   2.494   6.572   4.307  0.2861  0.5453 -0.2639
 2583TIP3   OH229163   5.847   0.835   3.110 -0.3369  0.2104  0.7109
 2583TIP3    H129164   5.821   0.913   3.159  2.5289  0.1541  2.5630
 2583TIP3    H229165   5.879   0.868   3.026 -0.6983  0.8282  0.8114
 2584TIP3   OH229166   2.295   5.353  11.799 -0.1039  0.1031  0.1551
 2584TIP3    H129167   2.286   5.448  11.792 -0.0885  0.0787 -0.2089
 2584TIP3    H229168   2.205   5.320  11.802 -0.1125  0.1033 -0.0891
 2585TIP3   OH229169   4.249   2.872   6.027 -0.3133 -0.0170  0.3770
 2585TIP3    H129170   4.184   2.932   5.990 -0.3102 -1.0395 -1.3772
 2585TIP3    H229171   4.310   2.856   5.955  1.4657  0.3011  1.7600
 2586TIP3   OH229172   4.950   0.175  11.181 -0.2505 -0.2970 -0.1689
 2586TIP3    H129173   4.983   0.135  11.261 -0.2943 -0.7331 -0.3667
 2586TIP3    H229174   5.026   0.221  11.144 -0.5806  1.2175  0.9004
 2587TIP3   OH229175   5.122   4.721  14.305 -0.4442 -0.5821  0.6238
 2587TIP3    H129176   5.075   4.746  14.225 -1.3284  0.1473  1.3353
 2587TIP3    H229177   5.077   4.770  14.375  1.0181 -0.3222  1.4211
 2588TIP3   OH229178   3.787   1.308   4.278 -0.1304  0.0731  0.5613
 2588TIP3    H129179   3.761   1.278   4.190 -0.3970  0.0335  0.6504
 2588TIP3    H229180   3.844   1.383   4.262  1.6005 -1.2411  0.2895
 2589TIP3   OH229181   4.382   3.635   5.289 -0.0656 -0.1921  0.1328
 2589TIP3    H129182   4.304   3.631   5.233  0.7789  0.7588 -1.1774
 2589TIP3    H229183   4.436   3.561   5.259  0.5591  0.5425 -0.6401
 2590TIP3   OH229184   0.586   2.764  16.317 -0.8910 -0.2176 -0.2711
 2590TIP3    H129185   0.641   2.722  16.252 -0.8219  0.4831 -0.6694
 2590TIP3    H229186   0.634   2.755  16.399 -0.3793  0.0185 -0.5436
 2591TIP3   OH229187   4.896   2.963  12.416  0.0543  0.3388  0.8612
 2591TIP3    H129188   4.901   2.968  12.512  0.2661  2.1072  0.7874
 2591TIP3    H229189   4.937   2.879  12.395  0.1732 -0.0005  2.2999
 2592TIP3   OH229190   2.211   2.819   0.936  0.0058 -0.3599 -0.3343
 2592TIP3    H129191   2.119   2.844   0.921 -0.1341  0.2201  1.3490
 2592TIP3    H229192   2.208   2.726   0.955 -0.1256 -0.5179 -1.0929
 2593TIP3   OH229193   0.298   2.195  14.017 -0.4222 -0.0334  0.4294
 2593TIP3    H129194   0.231   2.183  13.950 -0.6000  1.3858  0.3236
 2593TIP3    H229195   0.254   2.246  14.085  0.4729  0.6945  0.4767
 2594TIP3   OH229196   1.406   2.279   2.723  0.0057 -0.1112  0.0271
 2594TIP3    H129197   1.387   2.189   2.749  1.0507 -0.1550  0.6986
 2594TIP3    H229198   1.322   2.315   2.697 -0.4802 -1.1790  0.0853
 2595TIP3   OH229199   4.418   6.740   2.320 -0.4495  0.1341 -0.2105
 2595TIP3    H129200   4.425   6.712   2.229  2.4444  0.7155 -0.2599
 2595TIP3    H229201   4.440   6.662   2.371  1.0723  0.5639 -0.1573
 2596TIP3   OH229202   2.956   4.271  17.083 -0.0099  0.2501 -0.0597
 2596TIP3    H129203   2.914   4.252  16.999  1.7636  0.5844 -1.0752
 2596TIP3    H229204   2.885   4.266  17.147 -1.0881 -1.8381 -1.3062
 2597TIP3   OH229205   5.048   0.625  13.421 -0.2636  0.3262 -0.1721
 2597TIP3    H129206   5.016   0.691  13.483 -1.2147  0.5380 -0.8661
 2597TIP3    H229207   5.031   0.541  13.463 -1.2880  0.4561 -0.3083
 2598TIP3   OH229208   6.103   0.843  12.736 -0.2448 -0.4371 -0.2545
 2598TIP3    H129209   6.058   0.864  12.653 -0.0224  1.6414  0.0783
 2598TIP3    H229210   6.157   0.920  12.753  0.4530 -1.2415  1.3545
 2599TIP3   OH229211   4.429   1.242   2.648  0.1346  0.2935 -0.0559
 2599TIP3    H129212   4.463   1.171   2.703  2.8154  1.8345  0.4521
 2599TIP3    H229213   4.469   1.226   2.562  0.3146  0.8906 -0.0847
 2600TIP3   OH229214   6.015   2.065  15.359  0.5852 -0.3814 -0.0596
 2600TIP3    H129215   6.087   2.039  15.415  2.1404 -0.6380 -2.0669
 2600TIP3    H229216   5.964   1.985  15.346  1.1142 -0.6831 -0.2724
 2601TIP3   OH229217   6.250   4.583  12.265  0.2276  0.1618 -0.1126
 2601TIP3    H129218   6.295   4.657  12.225 -2.8411  3.5474  2.0453
 2601TIP3    H229219   6.273   4.588  12.358 -1.3996 -0.4528  0.3675
 2602TIP3   OH229220   6.346   6.350   4.324 -0.3353  0.2327  0.5925
 2602TIP3    H129221   6.266   6.344   4.271 -0.4182  1.3802  0.5588
 2602TIP3    H229222   6.402   6.411   4.276  0.9278 -1.1812  0.1929
 2603TIP3   OH229223   1.975   3.048  11.017  0.4315 -0.6531  0.6544
 2603TIP3    H129224   2.036   3.005  10.956  0.6454 -0.2697  0.5995
 2603TIP3    H229225   1.897   2.992  11.015  0.3621 -0.5389 -0.1241
 2604TIP3   OH229226   0.145   5.004  15.457  0.1835  0.9237  0.0987
 2604TIP3    H129227   0.095   4.940  15.506  0.6876  1.7000  1.6752
 2604TIP3    H229228   0.090   5.083  15.457 -0.2323  0.6813 -1.4402
 2605TIP3   OH229229   1.645   5.777   5.781 -0.5059  0.0004  0.3465
 2605TIP3    H129230   1.657   5.826   5.700  1.4498  2.1672  1.7999
 2605TIP3    H229231   1.567   5.817   5.821  0.0867  0.8047  0.7301
 2606TIP3   OH229232   0.830   6.280  10.954 -0.8704 -0.0970  0.4116
 2606TIP3    H129233   0.854   6.203  11.006  1.4290 -0.2301 -0.7387
 2606TIP3    H229234   0.900   6.343  10.970 -0.8487  0.3851 -1.3984
 2607TIP3   OH229235   0.969   3.302  13.787 -0.4457 -0.2129  0.5338
 2607TIP3    H129236   1.017   3.335  13.863 -0.5048  0.9229  0.1030
 2607TIP3    H229237   1.037   3.267  13.730 -0.4884 -1.9525  1.5059
 2608TIP3   OH229238   5.031   4.297   0.785 -0.2118  0.5210 -0.3254
 2608TIP3    H129239   5.117   4.333   0.763 -0.2318  0.8077  0.0502
 2608TIP3    H229240   5.036   4.205   0.759  1.0102 -0.0745  1.7782
 2609TIP3   OH229241   5.036   5.425  12.397  0.0855  0.3557  0.5314
 2609TIP3    H129242   4.960   5.417  12.339 -1.1258  1.0018  1.9789
 2609TIP3    H229243   5.064   5.516  12.386  0.2768  0.2918  0.4792
 2610TIP3   OH229244   0.807   6.353   5.969  0.2860  0.3394  0.2204
 2610TIP3    H129245   0.763   6.346   6.054  0.0460 -0.6658  0.0229
 2610TIP3    H229246   0.899   6.370   5.992 -0.0641  1.8191  0.6389
 2611TIP3   OH229247   6.079   2.560  11.875 -0.1115 -0.3061 -0.1891
 2611TIP3    H129248   6.025   2.558  11.954 -1.5821  0.2161 -1.1172
 2611TIP3    H229249   6.169   2.550  11.906 -0.7982 -2.6916  1.3361
 2612TIP3   OH229250   4.077   3.600   4.486 -0.1756  0.0633  0.0027
 2612TIP3    H129251   4.131   3.660   4.434  0.0242 -0.0622  0.0634
 2612TIP3    H229252   4.102   3.618   4.577 -2.2252  1.9895  0.2919
 2613TIP3   OH229253   2.589   0.076  15.004  0.7057 -0.5104  0.3148
 2613TIP3    H129254   2.648   0.128  15.058 -0.0026 -0.8252  1.4181
 2613TIP3    H229255   2.636  -0.005  14.986  2.0257  0.6367 -1.8324
 2614TIP3   OH229256   2.329   5.941  15.399 -0.7133  0.4176 -0.4987
 2614TIP3    H129257   2.254   5.977  15.445 -0.3103  2.0990 -1.0757
 2614TIP3    H229258   2.405   5.984  15.438 -0.2318  0.4442 -1.4173
 2615TIP3   OH229259   0.133   3.181  16.697 -0.5522 -0.2068 -0.0748
 2615TIP3    H129260   0.164   3.134  16.619  1.6720  0.1739  0.5070
 2615TIP3    H229261   0.153   3.273  16.680  0.2132 -0.1481  1.0199
 2616TIP3   OH229262   6.033   4.046  16.372 -0.3187 -0.1206 -0.4208
 2616TIP3    H129263   6.056   4.066  16.282 -1.8269 -0.4898 -0.9264
 2616TIP3    H229264   6.084   3.968  16.393  1.4029  0.9940 -0.3135
 2617TIP3   OH229265   5.131   4.507  13.980 -0.2542  0.2725 -0.1421
 2617TIP3    H129266   5.186   4.434  13.950  2.4104  1.8926  0.5183
 2617TIP3    H229267   5.091   4.474  14.061  0.8001 -0.5069  0.0875
 2618TIP3   OH229268   4.095   5.788   0.949 -0.4966  0.0608 -0.2961
 2618TIP3    H129269   4.106   5.849   0.876 -0.4756  1.4032  0.7848
 2618TIP3    H229270   4.114   5.840   1.027 -0.6043 -1.3086  0.6904
 2619TIP3   OH229271   2.901   5.306  15.150 -0.2201 -0.4240 -0.4021
 2619TIP3    H129272   2.887   5.216  15.180  2.2790 -1.5171 -2.1800
 2619TIP3    H229273   2.989   5.328  15.180 -0.1616  0.8073 -1.3998
 2620TIP3   OH229274   4.076   2.764  15.145  0.3139 -0.0617  0.3455
 2620TIP3    H129275   4.147   2.828  15.151  1.4092 -1.2659  0.9938
 2620TIP3    H229276   4.013   2.791  15.211  0.9126  0.1944  0.8269
 2621TIP3   OH229277   6.597   3.496  13.637 -0.2329  0.6335  0.4141
 2621TIP3    H129278   6.586   3.490  13.732  0.0692 -1.7510  0.3402
 2621TIP3    H229279   6.689   3.474  13.622  0.4897  3.6162 -0.3100
 2622TIP3   OH229280   2.923   2.016   5.708 -0.2460 -0.4635 -0.6321
 2622TIP3    H129281   3.000   2.069   5.726  3.0955 -4.1225 -2.4288
 2622TIP3    H229282   2.921   1.952   5.779 -1.0394 -0.9386 -1.0642
 2623TIP3   OH229283   2.215   6.232   1.681  0.0229 -0.2827  0.7713
 2623TIP3    H129284   2.188   6.266   1.766 -0.4724 -1.5506  1.1436
 2623TIP3    H229285   2.247   6.143   1.699  1.3452 -0.0288 -0.1522
 2624TIP3   OH229286   0.725   2.109   3.556 -0.3807 -0.4754  0.0304
 2624TIP3    H129287   0.729   2.019   3.589  0.0501 -0.1501  0.9110
 2624TIP3    H229288   0.708   2.162   3.634  0.9620  0.3525 -0.2095
 2625TIP3   OH229289   1.312   2.268   1.869  0.0710 -0.0535  0.3118
 2625TIP3    H129290   1.253   2.328   1.824 -1.2883  0.7644  2.9738
 2625TIP3    H229291   1.399   2.305   1.857 -0.2585  0.2789 -1.3034
 2626TIP3   OH229292   5.108   4.305  10.999  0.0687 -0.8344 -0.1966
 2626TIP3    H129293   5.062   4.368  10.943 -0.3900  0.8296  1.9159
 2626TIP3    H229294   5.041   4.239  11.021 -0.8616  0.5432  1.3236
 2627TIP3   OH229295   4.925   3.267   1.826  0.3300 -0.0274  0.2529
 2627TIP3    H129296   4.913   3.357   1.794  0.1189  0.4963  1.7479
 2627TIP3    H229297   5.012   3.267   1.866  0.7716 -0.7958 -0.6717
 2628TIP3   OH229298   1.231   3.590   2.866  0.0334 -0.0771  0.5985
 2628TIP3    H129299   1.279   3.542   2.933  0.8514  0.5305  0.4627
 2628TIP3    H229300   1.288   3.585   2.788 -0.7671 -0.5295  0.0306
 2629TIP3   OH229301   2.945   1.262  14.010 -0.5220 -0.1503  0.0904
 2629TIP3    H129302   3.015   1.319  13.977 -1.3789  0.9611  0.1031
 2629TIP3    H229303   2.864   1.305  13.979 -1.2050 -1.1551  0.4579
 2630TIP3   OH229304   5.551   4.645   5.584 -0.7450  0.2043  0.1693
 2630TIP3    H129305   5.589   4.595   5.656 -0.1274  0.2171 -0.1449
 2630TIP3    H229306   5.458   4.621   5.585 -0.8192  0.4919  1.2059
 2631TIP3   OH229307   2.436   1.656  13.101  0.1204 -0.1742 -0.4070
 2631TIP3    H129308   2.352   1.677  13.060 -1.2701 -2.5803  0.9375
 2631TIP3    H229309   2.412   1.617  13.186  2.4141 -3.0910 -0.9325
 2632TIP3   OH229310   6.639   6.513  15.694  0.6600  0.0005 -0.4344
 2632TIP3    H129311   6.548   6.508  15.665 -0.0483  1.6487  1.2751
 2632TIP3    H229312   6.640   6.466  15.777  1.7568 -1.3417 -1.1787
 2633TIP3   OH229313   1.772   4.953   5.915  0.1803 -0.0270 -0.3077
 2633TIP3    H129314   1.742   4.877   5.964  0.1005  0.0368 -0.2561
 2633TIP3    H229315   1.694   4.983   5.867  0.1853  0.0831 -0.2476
 2634TIP3   OH229316   0.077   5.540   0.403  0.2160  0.3359 -0.2272
 2634TIP3    H129317   0.140   5.583   0.461  1.3267 -0.5995 -0.7017
 2634TIP3    H229318   0.081   5.590   0.321  0.2991  0.3186 -0.2339
 2635TIP3   OH229319   3.464   3.288  11.533  0.2357 -0.1759  0.1349
 2635TIP3    H129320   3.460   3.201  11.494  1.3815  0.0450 -0.5413
 2635TIP3    H229321   3.375   3.307  11.560 -0.0885 -1.4250 -0.0071
 2636TIP3   OH229322   3.239   2.835   1.170 -0.5097 -0.2997 -0.7592
 2636TIP3    H129323   3.311   2.772   1.161  0.8709  1.2884 -1.3819
 2636TIP3    H229324   3.283   2.920   1.176 -2.0713  0.4216  3.8843
 2637TIP3   OH229325   5.444   6.745   4.012  0.9807 -0.0980  0.2968
 2637TIP3    H129326   5.497   6.821   4.035  1.8255 -0.6565  0.2616
 2637TIP3    H229327   5.442   6.745   3.916 -0.6617  0.9643  0.2950
 2638TIP3   OH229328   3.399   3.177  14.317 -0.0659  0.3121  0.7691
 2638TIP3    H129329   3.431   3.166  14.407  0.3652  0.9257  0.6959
 2638TIP3    H229330   3.443   3.108  14.267  0.2666  0.4352  0.8888
 2639TIP3   OH229331   0.324   3.659  10.412 -0.2452 -0.4007 -0.0436
 2639TIP3    H129332   0.380   3.668  10.489 -2.9474  2.0895  1.8644
 2639TIP3    H229333   0.341   3.738  10.360 -0.1352 -0.9163 -0.8141
 2640TIP3   OH229334   2.736   4.911  16.458 -0.3625 -0.0503  0.2579
 2640TIP3    H129335   2.765   4.879  16.372 -1.4628  1.2600 -0.6546
 2640TIP3    H229336   2.770   5.001  16.461 -1.6445  0.4462  0.4916
 2641TIP3   OH229337   4.804   2.147  11.362 -0.5651  0.1638 -0.0011
 2641TIP3    H129338   4.824   2.238  11.341  0.7526  0.0762  0.7183
 2641TIP3    H229339   4.822   2.099  11.282  0.5285  0.3275  0.1216
 2642TIP3   OH229340   5.670   0.721   6.094  0.1080 -0.7137  0.0688
 2642TIP3    H129341   5.670   0.636   6.138  2.2988  0.5798  2.8701
 2642TIP3    H229342   5.621   0.779   6.152  0.0288  0.3337 -0.9891
 2643TIP3   OH229343   3.886   6.146  14.457  0.2741  0.4048  0.4636
 2643TIP3    H129344   3.920   6.098  14.533 -0.9727 -1.4490 -0.0881
 2643TIP3    H229345   3.848   6.226  14.495 -0.2758 -0.4591  1.8087
 2644TIP3   OH229346   0.574   6.440  13.029  0.0848 -0.0863  0.0846
 2644TIP3    H129347   0.660   6.467  13.063  0.9280 -1.4036 -0.8949
 2644TIP3    H229348   0.533   6.394  13.103  0.9238 -0.8904  0.0725
 2645TIP3   OH229349   4.070   1.943  15.108  0.1003 -0.8924  0.1074
 2645TIP3    H129350   4.016   2.017  15.082  0.2649 -0.3739  1.1731
 2645TIP3    H229351   4.010   1.883  15.152 -0.3695 -2.2199 -2.2125
 2646TIP3   OH229352   1.660   4.142   1.637  0.1862  0.0697  0.4371
 2646TIP3    H129353   1.630   4.121   1.726  1.2674 -0.3286  0.7334
 2646TIP3    H229354   1.736   4.085   1.624  0.7060  0.9098 -0.3215
 2647TIP3   OH229355   4.906   6.039   6.341 -0.1392 -0.4594  0.3852
 2647TIP3    H129356   4.991   5.995   6.338  1.0227  1.4623  2.6109
 2647TIP3    H229357   4.870   6.017   6.426 -1.2649 -0.1218  0.0185
 2648TIP3   OH229358   1.387   6.241  17.240 -0.0980 -0.1409  0.1182
 2648TIP3    H129359   1.474   6.204  17.249 -0.2809 -0.1095  3.0685
 2648TIP3    H229360   1.395   6.330  17.273 -0.9413  0.4223 -1.1088
 2649TIP3   OH229361   0.208   6.164  14.269 -0.0108 -0.0779 -0.1403
 2649TIP3    H129362   0.135   6.132  14.216 -1.7622  1.0562  1.4582
 2649TIP3    H229363   0.281   6.106  14.247 -1.7032 -2.0430 -0.8962
 2650TIP3   OH229364   4.398   0.381   4.876 -0.2211 -0.4070 -0.3278
 2650TIP3    H129365   4.421   0.441   4.948  0.0891 -0.7552 -0.1309
 2650TIP3    H229366   4.433   0.423   4.798 -0.7534  0.0825 -0.3087
 2651TIP3   OH229367   5.565   1.662   5.195  0.1129 -0.0281  0.4692
 2651TIP3    H129368   5.511   1.681   5.118  0.1744  1.3362  0.7561
 2651TIP3    H229369   5.652   1.645   5.160  0.1200  0.4999  0.2320
 2652TIP3   OH229370   1.568   3.615   5.217  0.4000  0.1784  0.4347
 2652TIP3    H129371   1.643   3.622   5.158  0.3366  0.3278  0.3701
 2652TIP3    H229372   1.568   3.698   5.265 -0.4069  0.6849 -0.3906
 2653TIP3   OH229373   6.424   6.483   5.597  0.3411 -0.3968  0.3093
 2653TIP3    H129374   6.347   6.488   5.541  1.4595 -1.6173 -1.4227
 2653TIP3    H229375   6.389   6.475   5.686 -1.4711  2.3897 -0.0262
 2654TIP3   OH229376   3.600   4.520   2.487  0.9665  0.2473 -0.2937
 2654TIP3    H129377   3.540   4.513   2.561  1.2539 -0.9796 -0.1610
 2654TIP3    H229378   3.559   4.585   2.430 -0.9431 -1.1423 -0.6009
 2655TIP3   OH229379   6.594   1.726  13.304 -0.3565  0.2529  0.2939
 2655TIP3    H129380   6.558   1.787  13.368 -0.9053  0.5312 -0.2655
 2655TIP3    H229381   6.521   1.670  13.280 -0.3583  0.6308 -0.6314
 2656TIP3   OH229382   5.227   4.458   3.735 -0.0335  0.2359  0.1387
 2656TIP3    H129383   5.318   4.478   3.714 -0.1279  0.5416  0.0177
 2656TIP3    H229384   5.178   4.532   3.701 -0.2201  0.6106  1.1623
 2657TIP3   OH229385   5.075   3.794   3.053  0.6141 -0.3115  0.7289
 2657TIP3    H129386   5.115   3.844   3.124  0.2897  0.5382  0.3249
 2657TIP3    H229387   5.005   3.744   3.095  0.8916 -0.3741  1.1224
 2658TIP3   OH229388   3.578   1.296  16.018 -0.0158 -0.2357 -0.3003
 2658TIP3    H129389   3.486   1.321  16.025 -0.4216 -1.7215 -0.0416
 2658TIP3    H229390   3.602   1.316  15.928  0.1917  2.5572  0.2720
 2659TIP3   OH229391   2.516   5.470  16.046  0.0115 -0.0093  0.5129
 2659TIP3    H129392   2.523   5.427  15.961  1.5568  1.7949 -0.3496
 2659TIP3    H229393   2.440   5.526  16.039 -0.0060 -0.0452  0.4158
 2660TIP3   OH229394   4.848   0.298  13.831  0.9276  0.2841  0.0765
 2660TIP3    H129395   4.937   0.333  13.824  1.1095 -0.5071 -2.7007
 2660TIP3    H229396   4.859   0.212  13.872  1.4602  0.1896 -0.2509
 2661TIP3   OH229397   1.944   3.513  15.301  0.1468 -0.1756  0.2378
 2661TIP3    H129398   1.856   3.552  15.306  0.8735  1.5394  0.5913
 2661TIP3    H229399   2.001   3.578  15.343  1.6688 -0.9816 -0.4919
 2662TIP3   OH229400   0.939   2.245  14.187  0.8888 -0.0051  0.3672
 2662TIP3    H129401   0.921   2.221  14.096  2.3877  1.1054 -0.2687
 2662TIP3    H229402   1.024   2.205  14.206 -0.6460 -2.6002  2.2675
 2663TIP3   OH229403   3.798   5.251  12.852 -0.1873 -0.3538  0.0221
 2663TIP3    H129404   3.727   5.195  12.822 -0.6175 -0.3042  0.9265
 2663TIP3    H229405   3.755   5.329  12.886  0.3652  0.1625 -0.4228
 2664TIP3   OH229406   2.953   1.535  13.314  0.2746  0.5668 -0.8731
 2664TIP3    H129407   2.861   1.553  13.297 -0.0125 -0.1826 -0.2078
 2664TIP3    H229408   2.986   1.499  13.232  0.1269  1.3706 -1.2917
 2665TIP3   OH229409   6.741   6.087   2.568 -0.6554  0.1555  0.2300
 2665TIP3    H129410   6.748   6.044   2.653  1.1748  0.5234  0.3059
 2665TIP3    H229411   6.653   6.126   2.568 -0.9699 -0.4899  1.6267
 2666TIP3   OH229412   5.691   6.301   2.548  0.4183 -0.1884 -0.3902
 2666TIP3    H129413   5.660   6.235   2.486 -0.1286  0.1328 -0.4648
 2666TIP3    H229414   5.739   6.251   2.614  0.1932 -0.6386 -0.5621
 2667TIP3   OH229415   3.662   5.743   1.057 -0.3266 -0.0886 -0.1848
 2667TIP3    H129416   3.675   5.781   0.971  0.4032 -0.4995 -0.2630
 2667TIP3    H229417   3.731   5.677   1.065 -0.4198 -0.0914  0.6894
 2668TIP3   OH229418   4.434   0.072  11.779 -0.2826  0.0909 -0.0122
 2668TIP3    H129419   4.518   0.083  11.823  0.0813 -0.7797 -0.4761
 2668TIP3    H229420   4.376   0.037  11.847  0.4327 -1.8127 -0.3198
 2669TIP3   OH229421   0.672   5.505  12.781 -0.1868  0.5859 -0.3242
 2669TIP3    H129422   0.689   5.428  12.728  2.7908  0.9088  0.0344
 2669TIP3    H229423   0.620   5.562  12.724 -1.7797 -1.2788 -0.8515
 2670TIP3   OH229424   3.822   1.012   2.388 -0.0127  0.6525  0.3907
 2670TIP3    H129425   3.822   1.034   2.481  1.0440 -1.8187  1.0490
 2670TIP3    H229426   3.907   1.042   2.356  0.7769 -0.9362  0.9158
 2671TIP3   OH229427   1.641   2.601  14.817 -0.1589  0.0238  0.1500
 2671TIP3    H129428   1.729   2.603  14.854 -0.4508 -0.3822  0.8946
 2671TIP3    H229429   1.635   2.515  14.775 -0.7204 -0.6313  1.4823
 2672TIP3   OH229430   6.770   2.424  12.898 -0.4881 -0.2259  0.2140
 2672TIP3    H129431   6.785   2.489  12.828  0.0643 -0.8154 -0.2253
 2672TIP3    H229432   6.855   2.381  12.910 -0.6526 -0.3387  1.0505
 2673TIP3   OH229433   1.782   1.257   2.117 -1.1591  0.2604 -0.6039
 2673TIP3    H129434   1.870   1.294   2.114 -0.5856 -0.8180  1.2948
 2673TIP3    H229435   1.776   1.203   2.038 -0.4579  1.0158 -1.1907
 2674TIP3   OH229436   1.857   4.577  14.504  0.3617  0.2470  0.1348
 2674TIP3    H129437   1.822   4.588  14.415 -0.8514 -0.3540  0.5145
 2674TIP3    H229438   1.864   4.482  14.515 -0.1447  0.2963  0.9244
 2675TIP3   OH229439   5.204   0.442  11.684  0.1227  0.2735 -0.0161
 2675TIP3    H129440   5.294   0.434  11.716 -0.5547  0.4057  2.0352
 2675TIP3    H229441   5.206   0.403  11.596  1.9567 -0.6255  0.3840
 2676TIP3   OH229442   3.261   1.908  10.859 -0.7654 -0.4474 -0.6357
 2676TIP3    H129443   3.182   1.927  10.808 -0.6612 -1.6405 -1.2820
 2676TIP3    H229444   3.318   1.983  10.843 -1.4289  0.0289 -0.8482
 2677TIP3   OH229445   3.482   5.642  13.805  0.0725 -0.1959 -0.6359
 2677TIP3    H129446   3.558   5.635  13.747  1.0662  0.9772  0.4627
 2677TIP3    H229447   3.486   5.732  13.838  0.2931 -1.1813  2.2454
 2678TIP3   OH229448   0.005   4.409   1.786 -0.5771  0.5533  0.1705
 2678TIP3    H129449   0.056   4.488   1.804  0.6881 -0.2398  0.2116
 2678TIP3    H229450   0.007   4.400   1.691 -0.9180  0.6995  0.1501
 2679TIP3   OH229451   3.272   5.896   0.416  0.2353  0.7088  0.0898
 2679TIP3    H129452   3.319   5.933   0.491  0.6408 -0.7943  0.6255
 2679TIP3    H229453   3.196   5.953   0.405  0.0438  0.8566  1.8044
 2680TIP3   OH229454   1.481   2.700  12.709 -0.2144 -0.2059  0.3278
 2680TIP3    H129455   1.543   2.636  12.745  0.5695 -0.6947 -1.7254
 2680TIP3    H229456   1.397   2.655  12.712  0.2292 -1.1388 -0.5433
 2681TIP3   OH229457   5.280   5.396  11.790 -0.0860  0.3076 -0.2225
 2681TIP3    H129458   5.223   5.335  11.743  0.3590  0.7412 -1.3705
 2681TIP3    H229459   5.220   5.460  11.827 -0.4371  0.0946 -0.4081
 2682TIP3   OH229460   2.389   1.745  16.811  0.0674  0.2395 -0.2199
 2682TIP3    H129461   2.459   1.708  16.865 -0.2238  0.9530  0.6683
 2682TIP3    H229462   2.310   1.737  16.864 -0.2492  0.8514 -0.5878
 2683TIP3   OH229463   1.532   1.432   2.096 -0.2108 -0.5449 -0.5071
 2683TIP3    H129464   1.465   1.443   2.028  1.3247 -1.5556 -2.2695
 2683TIP3    H229465   1.615   1.436   2.049  0.8900 -2.3292  1.1441
 2684TIP3   OH229466   0.925   4.383   4.220 -0.3288  0.4147 -0.4028
 2684TIP3    H129467   0.974   4.398   4.301  0.8852  0.5944 -1.1445
 2684TIP3    H229468   0.959   4.449   4.160  0.0638 -0.8547 -1.6078
 2685TIP3   OH229469   0.064   4.510  16.036 -0.2139 -0.0732  0.0120
 2685TIP3    H129470   0.129   4.444  16.058  0.6306  0.3916 -1.0274
 2685TIP3    H229471   0.041   4.549  16.120  0.0945 -0.9192  0.5068
 2686TIP3   OH229472   2.403   2.181  11.042  0.2883  0.4668  0.2992
 2686TIP3    H129473   2.320   2.229  11.045 -0.7668 -1.0965 -1.2538
 2686TIP3    H229474   2.420   2.169  10.949  0.9042 -1.4102  0.6048
 2687TIP3   OH229475   6.408   3.881   3.727 -0.1002  0.0573 -0.4083
 2687TIP3    H129476   6.449   3.798   3.748 -2.0847 -0.6741  0.9081
 2687TIP3    H229477   6.353   3.862   3.651 -0.7260  0.0819  0.0277
 2688TIP3   OH229478   0.552   1.874  12.311 -0.0197  0.4949  0.6558
 2688TIP3    H129479   0.457   1.861  12.307  0.2209 -1.4265 -1.9779
 2688TIP3    H229480   0.588   1.786  12.319  1.5371  0.8624 -1.2939
 2689TIP3   OH229481   5.222   6.381  12.841  0.2988 -0.5803  0.6551
 2689TIP3    H129482   5.295   6.363  12.781 -1.5747  0.2754 -2.0331
 2689TIP3    H229483   5.187   6.294  12.862  0.0628 -0.8421 -0.7429
 2690TIP3   OH229484   1.146   4.194  13.414  0.1900  0.3439  0.0673
 2690TIP3    H129485   1.188   4.270  13.454  1.0854 -0.3445  0.5020
 2690TIP3    H229486   1.098   4.152  13.486  0.0555  0.2656 -0.0678
 2691TIP3   OH229487   0.478   6.019  14.746 -0.3228 -0.5329 -0.5633
 2691TIP3    H129488   0.420   6.051  14.814 -1.9734 -1.0059 -1.6801
 2691TIP3    H229489   0.548   6.084  14.741 -2.5051  1.9411 -1.4161
 2692TIP3   OH229490   4.485   1.500  17.139 -0.0631 -0.0533  0.3823
 2692TIP3    H129491   4.554   1.566  17.135  1.1031 -1.2744 -1.6859
 2692TIP3    H229492   4.404   1.549  17.146  0.8671  1.5206  0.5075
 2693TIP3   OH229493   5.664   3.207  16.497  0.2317 -0.2112  0.7122
 2693TIP3    H129494   5.693   3.272  16.560  2.7287  1.2367 -1.7230
 2693TIP3    H229495   5.656   3.254  16.415  2.8263 -2.9622 -1.3494
 2694TIP3   OH229496   5.418   5.974  12.405 -0.2234 -0.2324 -0.7088
 2694TIP3    H129497   5.405   5.890  12.449  1.5515 -0.5217 -0.6762
 2694TIP3    H229498   5.395   5.956  12.314  0.6511 -0.9203 -0.8101
 2695TIP3   OH229499   3.200   6.433  11.892  0.6208  0.1054  0.0957
 2695TIP3    H129500   3.110   6.437  11.860  0.0082 -1.4139  1.4745
 2695TIP3    H229501   3.243   6.370  11.834  0.8012  0.7956 -0.5340
 2696TIP3   OH229502   5.141   2.316  12.165  0.4392  0.7670 -0.9553
 2696TIP3    H129503   5.185   2.332  12.081 -0.5911  0.3430 -1.5951
 2696TIP3    H229504   5.083   2.242  12.148  1.7292 -0.6877  0.7140
 2697TIP3   OH229505   5.041   1.186  14.998  0.1959 -0.1146 -0.0380
 2697TIP3    H129506   4.976   1.137  15.048 -1.3419  0.8572 -0.9967
 2697TIP3    H229507   5.019   1.278  15.013  2.1135  0.2890  0.5685
 2698TIP3   OH229508   5.917   6.382   3.991 -0.3507 -0.2005  0.7027
 2698TIP3    H129509   5.939   6.333   4.070  0.3715 -0.4713  0.3399
 2698TIP3    H229510   5.899   6.470   4.021  0.1796 -0.2406  1.1428
 2699TIP3   OH229511   5.569   2.272   0.918 -0.3427  0.0715  0.5180
 2699TIP3    H129512   5.533   2.277   1.007  0.6123  0.9505  0.8840
 2699TIP3    H229513   5.621   2.353   0.910  0.2387 -0.3986 -0.5449
 2700TIP3   OH229514   1.126   5.192  15.776  0.2421  0.1900  0.2542
 2700TIP3    H129515   1.198   5.247  15.744 -0.1220 -0.6377 -2.2072
 2700TIP3    H229516   1.047   5.231  15.741 -0.2819 -0.3493  0.7948
 2701TIP3   OH229517   6.076   5.683   1.441 -0.0534  0.2012 -0.0786
 2701TIP3    H129518   6.170   5.689   1.455 -0.0475 -1.0137  0.5243
 2701TIP3    H229519   6.045   5.621   1.506 -1.5736  1.8755  0.9032
 2702TIP3   OH229520   5.516   2.850  14.395 -0.0471  0.0495 -0.1998
 2702TIP3    H129521   5.537   2.918  14.330 -1.2410 -0.0410 -0.6977
 2702TIP3    H229522   5.430   2.874  14.428 -0.0344 -0.6745  0.3699
 2703TIP3   OH229523   0.231   1.918   1.171  0.1910  0.0774 -0.4617
 2703TIP3    H129524   0.161   1.922   1.236 -0.7343  0.2972 -1.4490
 2703TIP3    H229525   0.217   1.834   1.127 -0.0465  0.5373 -1.2897
 2704TIP3   OH229526   6.702   5.408  15.149 -0.2026  0.0234  0.1461
 2704TIP3    H129527   6.726   5.320  15.178 -0.3644  0.1942  0.8096
 2704TIP3    H229528   6.784   5.457  15.153  0.2142 -0.4624 -1.6659
 2705TIP3   OH229529   4.906   1.772  12.676  0.0531  0.1870 -0.0007
 2705TIP3    H129530   4.859   1.757  12.758 -0.3943 -0.3999 -0.3549
 2705TIP3    H229531   4.845   1.743  12.608  0.3180  0.9207 -0.5570
 2706TIP3   OH229532   6.355   0.987   0.942  0.5201 -0.0627  0.2814
 2706TIP3    H129533   6.322   0.933   1.014  2.1207  0.2473  1.3122
 2706TIP3    H229534   6.335   1.077   0.970  2.3791  0.1569  1.0896
 2707TIP3   OH229535   3.976   4.916  14.335 -0.4889 -0.1475 -0.0213
 2707TIP3    H129536   3.888   4.905  14.370 -0.5556 -1.8642 -0.6517
 2707TIP3    H229537   3.995   4.834  14.290  0.9131  0.6942 -1.0670
 2708TIP3   OH229538   5.443   5.027   3.138  0.2537 -1.2496 -0.2865
 2708TIP3    H129539   5.388   4.950   3.151 -2.1574  0.5739  1.3461
 2708TIP3    H229540   5.515   5.016   3.200 -1.0206 -1.4352  1.2227
 2709TIP3   OH229541   4.283   3.621   4.063  0.0331 -0.5643 -0.3633
 2709TIP3    H129542   4.193   3.600   4.037 -0.2275  1.9056 -1.7639
 2709TIP3    H229543   4.335   3.550   4.025 -1.2369 -1.8818  0.2217
 2710TIP3   OH229544   4.892   0.444  15.190 -0.4176 -0.1582 -0.2564
 2710TIP3    H129545   4.910   0.456  15.097 -1.0618 -2.9462 -0.8398
 2710TIP3    H229546   4.965   0.391  15.223 -1.7565 -1.9710 -0.0186
 2711TIP3   OH229547   6.677   2.087  12.373  0.3621  0.0733  0.5301
 2711TIP3    H129548   6.678   2.182  12.369  1.0746  0.1055  1.1858
 2711TIP3    H229549   6.593   2.065  12.413  1.4837  0.6120  3.4950
 2712TIP3   OH229550   5.998   4.825   2.588 -0.0032 -0.4358 -0.0367
 2712TIP3    H129551   6.033   4.914   2.597 -1.0886  0.0788 -0.7358
 2712TIP3    H229552   5.989   4.812   2.494  0.7710 -1.5514  0.0271
 2713TIP3   OH229553   6.495   6.572   3.843  0.5251 -0.0377 -0.6353
 2713TIP3    H129554   6.528   6.484   3.862  0.2640 -0.1923 -0.9044
 2713TIP3    H229555   6.423   6.584   3.905  0.0119 -0.3400 -1.1713
 2714TIP3   OH229556   4.623   4.654   0.719 -0.1932  0.6641 -0.7966
 2714TIP3    H129557   4.621   4.618   0.631  1.4371 -1.7481  0.0605
 2714TIP3    H229558   4.713   4.687   0.729 -0.2209  0.4875  0.1052
 2715TIP3   OH229559   1.751   5.005  11.529 -0.0171  0.2518 -0.5111
 2715TIP3    H129560   1.827   5.022  11.584 -1.0258  2.8347  0.2139
 2715TIP3    H229561   1.730   5.089  11.489 -0.8122 -1.0200 -2.9656
 2716TIP3   OH229562   2.031   3.429  17.010 -0.0826  0.1701  0.0361
 2716TIP3    H129563   2.077   3.367  17.067 -0.3562 -0.3871 -0.3461
 2716TIP3    H229564   1.957   3.459  17.064  0.0244  0.1324  0.2060
 2717TIP3   OH229565   3.661   5.113  10.792 -0.4326 -0.0420  0.3616
 2717TIP3    H129566   3.632   5.023  10.801 -0.8365  0.1459  1.0312
 2717TIP3    H229567   3.586   5.160  10.757 -0.4887  0.1786  0.7621
 2718TIP3   OH229568   4.156   4.056  15.212  0.0666  0.2676  0.1521
 2718TIP3    H129569   4.237   4.098  15.183 -0.0890  0.7340  0.3765
 2718TIP3    H229570   4.165   3.964  15.185  0.2267  0.5324 -0.7410
 2719TIP3   OH229571   0.777   0.972  13.268  0.0763  0.1738  0.4232
 2719TIP3    H129572   0.812   0.903  13.211 -0.0929 -1.6979  2.4428
 2719TIP3    H229573   0.737   0.925  13.341 -0.3827  2.4268  1.7266
 2720TIP3   OH229574   5.831   4.715   5.734  0.0272 -0.7492  0.3269
 2720TIP3    H129575   5.864   4.662   5.806  0.7833 -0.2463  0.3627
 2720TIP3    H229576   5.861   4.804   5.754 -1.5921 -0.2144  0.4946
 2721TIP3   OH229577   4.485   0.773  10.288  0.3853 -0.2632  0.5205
 2721TIP3    H129578   4.515   0.728  10.367  0.9079  0.3109  0.6564
 2721TIP3    H229579   4.478   0.865  10.314 -1.8225 -0.3915  0.5927
 2722TIP3   OH229580   2.716   4.781   5.446  0.2353  0.2090 -0.1806
 2722TIP3    H129581   2.653   4.726   5.491  0.2717  1.2479  1.2072
 2722TIP3    H229582   2.782   4.801   5.512  0.0390  2.1941 -0.5181
 2723TIP3   OH229583   4.400   1.271  15.950  0.4719  1.0509 -0.0163
 2723TIP3    H129584   4.386   1.280  16.045 -0.9587  1.7699 -0.2683
 2723TIP3    H229585   4.443   1.186  15.941 -1.9080 -0.3923  1.1002
 2724TIP3   OH229586   6.374   6.771   1.941  0.3305 -0.2779 -0.1020
 2724TIP3    H129587   6.397   6.705   2.007 -1.4697 -1.1401 -0.2829
 2724TIP3    H229588   6.341   6.845   1.991  0.0017 -0.4983  0.0091
 2725TIP3   OH229589   3.339   3.735  16.822  0.0909 -0.8190 -0.2926
 2725TIP3    H129590   3.274   3.669  16.846 -2.2543  1.1797 -0.7185
 2725TIP3    H229591   3.355   3.721  16.729 -1.7478  0.1976 -0.8169
 2726TIP3   OH229592   4.404   2.084   0.709  0.0578  0.2018 -0.0038
 2726TIP3    H129593   4.372   2.120   0.792 -1.4485  0.7778 -0.7844
 2726TIP3    H229594   4.402   1.989   0.722 -0.3022  0.2817  0.5826
 2727TIP3   OH229595   4.905   2.768  11.048  0.2250  0.1212  0.1735
 2727TIP3    H129596   4.930   2.840  11.106 -1.1994  0.7202  0.0718
 2727TIP3    H229597   4.959   2.694  11.077 -0.6003  0.3255  2.4234
 2728TIP3   OH229598   4.500   3.480  16.831  0.2059 -0.1639 -0.9089
 2728TIP3    H129599   4.544   3.428  16.764  1.8430  1.0546 -0.8493
 2728TIP3    H229600   4.462   3.554  16.784  1.4603  0.7593 -0.5440
 2729TIP3   OH229601   0.947   3.801  16.147  0.5021  0.0061 -0.4646
 2729TIP3    H129602   0.875   3.863  16.153  1.7047  1.6303 -1.8213
 2729TIP3    H229603   0.997   3.814  16.227 -0.6559 -1.1430  0.4913
 2730TIP3   OH229604   2.367   1.539  16.375  0.1912 -0.1825 -0.1523
 2730TIP3    H129605   2.459   1.520  16.358  0.3135  0.8610 -0.7427
 2730TIP3    H229606   2.333   1.571  16.291 -1.0420 -1.7304 -0.2821
 2731TIP3   OH229607   0.363   1.287   3.580 -0.0174 -0.1779 -0.3883
 2731TIP3    H129608   0.342   1.254   3.668 -1.1767 -1.0300 -0.9545
 2731TIP3    H229609   0.390   1.378   3.594 -1.6099  0.1633  0.7184
 2732TIP3   OH229610   3.902   0.727   3.863  0.0404  0.0285  0.0609
 2732TIP3    H129611   3.910   0.647   3.812 -0.3450  0.3791 -0.5766
 2732TIP3    H229612   3.902   0.699   3.954  0.2484 -0.6592 -0.1512
 2733TIP3   OH229613   0.686   5.678   3.816 -0.0028 -0.2416 -0.0880
 2733TIP3    H129614   0.622   5.673   3.887  0.7072  0.0359  0.5916
 2733TIP3    H229615   0.710   5.587   3.799  0.1219 -0.2832  0.3084
 2734TIP3   OH229616   0.170   4.132   5.331 -0.2733  0.5704 -0.3647
 2734TIP3    H129617   0.102   4.094   5.276 -2.3373  0.3623  2.1519
 2734TIP3    H229618   0.127   4.203   5.379  1.2152  0.3845  1.4015
 2735TIP3   OH229619   0.827   2.075   0.483  0.2344 -0.2061  0.0853
 2735TIP3    H129620   0.732   2.062   0.489 -0.0454  0.8140 -1.5090
 2735TIP3    H229621   0.841   2.102   0.393  2.2038 -1.4255 -0.0097
 2736TIP3   OH229622   6.265   4.204   1.299  0.4291 -0.5008  1.1166
 2736TIP3    H129623   6.180   4.167   1.276  0.4289  0.2008 -0.0954
 2736TIP3    H229624   6.294   4.152   1.374 -0.2337 -1.9420  0.4119
 2737TIP3   OH229625   6.226   4.809  12.994 -0.3935  0.0990  0.1648
 2737TIP3    H129626   6.292   4.790  13.060 -0.3828 -0.3580  0.0312
 2737TIP3    H229627   6.176   4.727  12.986 -0.5260  0.2162 -0.2398
 2738TIP3   OH229628   4.879   1.784   4.578 -0.5552 -0.0121 -0.1983
 2738TIP3    H129629   4.808   1.813   4.636 -0.9897  0.8645 -1.1473
 2738TIP3    H229630   4.834   1.745   4.503  0.0047 -1.0738  0.0017
 2739TIP3   OH229631   3.620   1.466  12.106  0.2698 -0.4555  0.6825
 2739TIP3    H129632   3.531   1.494  12.085  0.3972  1.1104  2.0360
 2739TIP3    H229633   3.667   1.472  12.022 -0.4317  0.6493  0.3472
 2740TIP3   OH229634   2.139   1.585   0.169 -0.1488 -0.3205 -0.2879
 2740TIP3    H129635   2.213   1.642   0.147 -1.1320  1.8518  1.5450
 2740TIP3    H229636   2.114   1.543   0.087  0.7248  1.8480 -1.7419
 2741TIP3   OH229637   0.519   0.676  16.295 -0.7732 -0.5287 -0.3539
 2741TIP3    H129638   0.446   0.662  16.355 -1.2077 -0.7854 -0.9206
 2741TIP3    H229639   0.510   0.767  16.267  0.5314  0.1719  1.3717
 2742TIP3   OH229640   2.125   2.303   2.873 -0.1319 -0.0489  0.2093
 2742TIP3    H129641   2.042   2.347   2.888 -0.2382 -0.5163  1.0953
 2742TIP3    H229642   2.174   2.362   2.816 -1.8178 -0.6482 -2.0209
 2743TIP3   OH229643   2.189   1.303  16.535 -0.3819 -0.7689  1.1183
 2743TIP3    H129644   2.285   1.311  16.532 -0.4731  0.2047  0.5329
 2743TIP3    H229645   2.170   1.275  16.624  0.5063 -1.8158  1.0020
 2744TIP3   OH229646   5.856   3.703  13.407 -0.0366  0.0456  0.1047
 2744TIP3    H129647   5.946   3.734  13.398 -0.3623  1.3382  0.9782
 2744TIP3    H229648   5.828   3.683  13.318  1.0892 -0.3163 -0.1808
 2745TIP3   OH229649   0.075   0.609   2.879  0.3965 -0.6399  0.1083
 2745TIP3    H129650   0.093   0.532   2.933  0.3003 -0.2135  0.7594
 2745TIP3    H229651  -0.020   0.615   2.876  0.3933 -0.8529 -0.3977
 2746TIP3   OH229652   6.251   3.986   1.908  0.5625  0.3888  0.2498
 2746TIP3    H129653   6.280   4.078   1.906  3.5315 -0.3952  1.9074
 2746TIP3    H229654   6.332   3.935   1.904 -0.9805 -2.2028 -0.2683
 2747TIP3   OH229655   6.248   5.071   1.120  0.0349  0.6417 -0.2275
 2747TIP3    H129656   6.181   5.134   1.146  0.6087  1.3993 -0.5371
 2747TIP3    H229657   6.241   5.000   1.183 -0.1604  1.3422  0.5534
 2748TIP3   OH229658   1.624   5.742   0.992 -0.3119 -0.1926  0.2505
 2748TIP3    H129659   1.692   5.808   1.001 -1.8365  1.2285  2.2784
 2748TIP3    H229660   1.542   5.788   1.009 -1.4522 -2.5774  1.9774
 2749TIP3   OH229661   0.300   6.285   5.714 -0.0068 -0.1202  0.4867
 2749TIP3    H129662   0.362   6.235   5.661 -0.8179  0.0405 -0.6393
 2749TIP3    H229663   0.269   6.222   5.780  1.0359 -0.3123  0.8106
 2750TIP3   OH229664   6.141   2.437   4.716 -0.2490 -0.4981 -0.3963
 2750TIP3    H129665   6.213   2.397   4.764 -0.3130 -1.6814 -1.2272
 2750TIP3    H229666   6.102   2.365   4.666 -1.1843  0.3664 -0.9724
 2751TIP3   OH229667   6.558   2.742   2.589  0.4186  0.2490  0.3986
 2751TIP3    H129668   6.512   2.756   2.506  0.0179 -2.1123  0.1534
 2751TIP3    H229669   6.647   2.772   2.572  0.0317  0.9455 -0.4862
 2752TIP3   OH229670   6.195   3.822  10.607 -0.2881 -0.4255  0.1172
 2752TIP3    H129671   6.263   3.867  10.657  0.8284 -1.8424 -0.0485
 2752TIP3    H229672   6.175   3.881  10.534 -0.2577  0.6280  0.9458
 2753TIP3   OH229673   3.007   4.096   6.156  0.4489 -0.0466 -0.4351
 2753TIP3    H129674   3.030   4.088   6.248  0.5984  0.5117 -0.4191
 2753TIP3    H229675   2.970   4.011   6.132  1.5405 -0.6113 -0.1726
 2754TIP3   OH229676   1.224   3.838   2.961 -0.3418 -0.5268  1.0046
 2754TIP3    H129677   1.311   3.858   2.995 -0.5124  2.4535  0.0244
 2754TIP3    H229678   1.228   3.746   2.935  2.8078 -0.2549  0.1871
 2755TIP3   OH229679   4.581   5.966   2.083 -0.2429 -0.4549  0.3037
 2755TIP3    H129680   4.554   5.881   2.117  1.6675 -0.6068  1.6024
 2755TIP3    H229681   4.502   6.020   2.086 -1.4629 -2.1264 -0.4641
 2756TIP3   OH229682   6.685   2.749   3.655  0.4705 -0.5230  0.1891
 2756TIP3    H129683   6.664   2.684   3.722 -0.2870 -0.9526 -0.4511
 2756TIP3    H229684   6.610   2.809   3.656  1.0821  0.2696  0.6563
 2757TIP3   OH229685   3.232   2.871   6.918  0.9119  0.4828 -0.5997
 2757TIP3    H129686   3.201   2.785   6.889 -0.9340  0.9685 -0.2136
 2757TIP3    H229687   3.153   2.925   6.919  1.2028  1.0689  3.2461
 2758TIP3   OH229688   3.404   4.813   4.241 -0.1512  0.2279 -0.1583
 2758TIP3    H129689   3.372   4.728   4.272 -2.4583  0.6357 -1.1985
 2758TIP3    H229690   3.381   4.874   4.311 -0.6831  0.3440 -0.4263
 2759TIP3   OH229691   0.432   4.381   0.174 -0.4699 -0.4571 -0.2501
 2759TIP3    H129692   0.497   4.451   0.175  2.4959 -2.9825 -0.9115
 2759TIP3    H229693   0.352   4.422   0.208  0.4007  3.7459 -2.5427
 2760TIP3   OH229694   6.259   2.204   0.419 -0.5335  0.6660  0.4670
 2760TIP3    H129695   6.168   2.231   0.406 -0.4982  0.0137 -1.5701
 2760TIP3    H229696   6.299   2.217   0.333  1.0293 -0.0348  1.0674
 2761TIP3   OH229697   5.794   5.375   2.522  0.8149  0.1297 -0.5687
 2761TIP3    H129698   5.797   5.466   2.552 -1.5628  0.3190 -0.7531
 2761TIP3    H229699   5.745   5.377   2.440  1.1770 -1.2649 -0.8585
 2762TIP3   OH229700   4.868   6.600  11.907 -0.2696 -0.7113  0.3321
 2762TIP3    H129701   4.921   6.529  11.943 -0.0798 -1.7124 -1.7679
 2762TIP3    H229702   4.778   6.577  11.929 -0.2176 -1.7021 -0.4213
 2763TIP3   OH229703   4.035   6.238  14.186 -0.1139  0.1837  0.4303
 2763TIP3    H129704   4.021   6.191  14.268  0.2420  1.1772  1.0673
 2763TIP3    H229705   4.105   6.300  14.205 -1.8820  2.3655  0.2078
 2764TIP3   OH229706   0.125   6.721   1.307 -0.0227  0.1401  0.2317
 2764TIP3    H129707   0.072   6.780   1.361 -0.3160  0.7164 -0.6720
 2764TIP3    H229708   0.215   6.743   1.328 -0.1362  0.3300  0.5183
 2765TIP3   OH229709   6.756   0.778  16.227 -0.3275  0.3115 -0.4227
 2765TIP3    H129710   6.804   0.798  16.147  1.8781  0.6839  0.9044
 2765TIP3    H229711   6.784   0.689  16.250 -2.1814 -0.4381 -0.8551
 2766TIP3   OH229712   0.610   1.917   5.023  0.1562 -0.3762  0.3766
 2766TIP3    H129713   0.614   1.856   4.949 -0.0143 -1.0199  0.8858
 2766TIP3    H229714   0.517   1.923   5.044  0.3329 -1.6037  1.6604
 2767TIP3   OH229715   3.301   3.120   1.154  0.2447  0.1418 -0.2150
 2767TIP3    H129716   3.344   3.173   1.086 -0.0774 -1.2699 -1.5845
 2767TIP3    H229717   3.224   3.171   1.179  1.7234  1.9185  1.0592
 2768TIP3   OH229718   5.844   1.809   6.647 -0.2786  0.2660 -0.0351
 2768TIP3    H129719   5.801   1.812   6.733 -1.5127  0.9704 -0.6390
 2768TIP3    H229720   5.778   1.843   6.587  0.9532  0.8091 -1.1132
 2769TIP3   OH229721   1.087   1.941  14.786  0.8258  0.6131  0.1514
 2769TIP3    H129722   1.060   1.993  14.711  0.0721  0.1717  0.1018
 2769TIP3    H229723   1.012   1.883  14.803  1.3866  0.0041  0.6024
 2770TIP3   OH229724   3.144   4.828   2.399  0.0128 -0.0533 -0.0967
 2770TIP3    H129725   3.052   4.828   2.426 -0.0581 -1.3833 -0.2873
 2770TIP3    H229726   3.159   4.917   2.368 -1.5482 -0.0996 -1.1403
 2771TIP3   OH229727   1.192   5.623  11.884  0.2297 -0.4578  0.0174
 2771TIP3    H129728   1.202   5.708  11.841  0.9323 -0.2367  0.5947
 2771TIP3    H229729   1.181   5.644  11.976 -0.3876 -0.9673  0.0669
 2772TIP3   OH229730   6.337   2.790  14.785  0.0705  0.1293  0.1790
 2772TIP3    H129731   6.408   2.748  14.833  0.2986  0.7445  0.3948
 2772TIP3    H229732   6.303   2.856  14.845 -1.0802 -0.5503  0.2972
 2773TIP3   OH229733   1.550   4.180   6.420 -0.2218  0.3332 -0.1174
 2773TIP3    H129734   1.557   4.272   6.445  0.3472  0.1922  0.2673
 2773TIP3    H229735   1.632   4.141   6.449 -1.3755 -0.8051  1.8418
 2774TIP3   OH229736   4.433   1.249  16.683  0.1517 -0.3817  0.1144
 2774TIP3    H129737   4.470   1.336  16.698  0.7228 -0.3238 -1.4919
 2774TIP3    H229738   4.419   1.214  16.771  0.3768  1.1295  0.7807
 2775TIP3   OH229739   3.816   4.945  17.187 -0.0686 -0.3995 -0.2496
 2775TIP3    H129740   3.728   4.912  17.205 -0.3151  0.8926  1.0634
 2775TIP3    H229741   3.870   4.909  17.257  0.8117 -2.3725 -1.8416
 2776TIP3   OH229742   6.403   2.757  15.055 -0.5239 -0.2252  0.2788
 2776TIP3    H129743   6.367   2.673  15.082 -1.2294  0.5447  1.9019
 2776TIP3    H229744   6.485   2.765  15.103 -0.3122 -0.1274 -0.0997
 2777TIP3   OH229745   4.779   2.736  11.587 -0.2527  0.0623 -0.2411
 2777TIP3    H129746   4.844   2.691  11.533 -0.7403 -0.8175 -0.0939
 2777TIP3    H229747   4.832   2.787  11.649  0.3035  0.4310 -0.9940
 2778TIP3   OH229748   6.347   5.086   4.498  0.1729 -0.0760  0.5172
 2778TIP3    H129749   6.324   5.133   4.418  0.6855 -0.0791  0.3642
 2778TIP3    H229750   6.270   5.032   4.516  1.0176 -2.1806 -1.5331
 2779TIP3   OH229751   5.856   4.467   6.307  0.3722 -0.2735 -0.0541
 2779TIP3    H129752   5.828   4.428   6.390 -2.9916  0.1896 -0.8345
 2779TIP3    H229753   5.848   4.397   6.243 -0.2906  0.2302 -0.5324
 2780TIP3   OH229754   5.282   1.866  11.024  0.3998 -0.0062 -0.1036
 2780TIP3    H129755   5.204   1.887  10.972  0.6837  0.9810 -0.1420
 2780TIP3    H229756   5.350   1.848  10.959  0.6280  0.7451 -0.0732
 2781TIP3   OH229757   0.332   5.740   1.746 -0.3319 -0.0089  0.2803
 2781TIP3    H129758   0.245   5.721   1.782  0.0458 -2.5609 -0.0378
 2781TIP3    H229759   0.387   5.757   1.822 -1.0193  1.4660  0.4920
 2782TIP3   OH229760   0.448   3.888  13.160 -0.1535 -0.2479 -0.2988
 2782TIP3    H129761   0.487   3.898  13.247 -1.5917  0.7594  0.2701
 2782TIP3    H229762   0.462   3.796  13.138  0.6799 -0.3955  0.7738
 2783TIP3   OH229763   5.973   0.167   1.594  0.6689  0.0709 -0.3318
 2783TIP3    H129764   5.981   0.132   1.505 -1.1851 -0.6866 -0.2575
 2783TIP3    H229765   6.035   0.117   1.646 -0.2003 -1.4545 -0.7032
 2784TIP3   OH229766   0.273   6.308   0.013 -0.2797  0.1546  0.6329
 2784TIP3    H129767   0.293   6.365  -0.061 -0.7109 -1.0153 -0.4122
 2784TIP3    H229768   0.187   6.272  -0.007  0.8889 -2.5582  0.1603
 2785TIP3   OH229769   6.574   5.999   4.661  0.4816 -0.8102  0.2203
 2785TIP3    H129770   6.522   5.970   4.737  0.5063 -0.0165  0.5537
 2785TIP3    H229771   6.592   6.092   4.679 -1.4104  0.0341 -1.8085
 2786TIP3   OH229772   3.718   4.670  14.826  0.0397 -0.2188  0.0478
 2786TIP3    H129773   3.726   4.625  14.910 -0.5625  0.9520  0.7677
 2786TIP3    H229774   3.791   4.639  14.774  0.7357 -0.5709  1.2083
 2787TIP3   OH229775   1.121   6.216   0.535 -0.2758 -0.6610 -0.3848
 2787TIP3    H129776   1.046   6.271   0.513 -0.2108 -0.0016  0.9160
 2787TIP3    H229777   1.085   6.127   0.540 -0.7739 -0.4776 -0.6834
 2788TIP3   OH229778   1.806   4.746   1.979 -0.4106  0.4175 -0.3884
 2788TIP3    H129779   1.751   4.688   2.032 -0.2251  1.9488  1.6114
 2788TIP3    H229780   1.894   4.736   2.016 -0.4251  2.1152  0.1851
 2789TIP3   OH229781   3.602   6.701  13.332 -0.0148  0.2497  0.1624
 2789TIP3    H129782   3.657   6.683  13.256 -0.3081 -1.0031  0.2173
 2789TIP3    H229783   3.513   6.711  13.296 -0.2305 -0.8146  0.3641
 2790TIP3   OH229784   2.974   6.490  15.892  0.1810  0.4447 -0.0513
 2790TIP3    H129785   3.055   6.472  15.939 -0.0349 -0.3686  0.0136
 2790TIP3    H229786   2.917   6.416  15.912  0.0322  0.1462 -1.4920
 2791TIP3   OH229787   2.599   4.044   1.982 -1.0929 -0.2595  0.2843
 2791TIP3    H129788   2.665   4.046   2.051 -1.1351 -0.7896  0.3407
 2791TIP3    H229789   2.636   4.099   1.912 -0.0361 -1.5062 -0.1776
 2792TIP3   OH229790   2.807   0.007  11.940 -0.0281  0.1939  0.5480
 2792TIP3    H129791   2.829   0.100  11.948  1.1478 -0.1140  1.1944
 2792TIP3    H229792   2.712   0.005  11.933 -0.0373  1.4730  0.0625
 2793TIP3   OH229793   0.684   5.189  16.259 -0.4807 -0.3029 -0.0162
 2793TIP3    H129794   0.626   5.252  16.215  0.7427  0.3978 -0.6926
 2793TIP3    H229795   0.772   5.224  16.245  0.0085  0.1791  3.3547
 2794TIP3   OH229796   4.899   2.641   3.886 -0.0401 -0.0119 -0.0188
 2794TIP3    H129797   4.955   2.594   3.825  0.9327  1.8264 -0.6201
 2794TIP3    H229798   4.952   2.651   3.965  0.1664  0.9704 -0.2728
 2795TIP3   OH229799   6.263   3.376   2.831  0.1251 -0.3172 -0.1611
 2795TIP3    H129800   6.271   3.412   2.742 -0.0070 -1.3059 -0.5824
 2795TIP3    H229801   6.343   3.325   2.844 -0.8737 -2.0976 -0.6289
 2796TIP3   OH229802   2.975   6.477   3.424 -0.6262  0.2536 -0.1880
 2796TIP3    H129803   3.040   6.529   3.471 -0.4536 -0.3020  0.2015
 2796TIP3    H229804   2.897   6.532   3.420 -0.3848  0.6118  0.0466
 2797TIP3   OH229805   1.047   6.047  14.894 -0.3585 -0.3665  0.2194
 2797TIP3    H129806   0.962   6.089  14.882 -1.9228 -3.0339  1.3783
 2797TIP3    H229807   1.070   6.014  14.807 -0.1697  0.8336 -0.2141
 2798TIP3   OH229808   4.150   0.272  14.708 -0.4756 -0.7246 -0.3843
 2798TIP3    H129809   4.240   0.269  14.740  0.0267  2.3066 -1.1722
 2798TIP3    H229810   4.102   0.315  14.779 -0.4388  1.2324 -1.4956
 2799TIP3   OH229811   2.093   4.533   1.532 -0.3093 -0.2823  0.8432
 2799TIP3    H129812   2.036   4.582   1.473  2.1253  0.5826 -0.9316
 2799TIP3    H229813   2.132   4.599   1.589  0.8896 -0.5004  0.2928
 2800TIP3   OH229814   6.423   6.696   0.784  0.3187  0.5669 -0.0279
 2800TIP3    H129815   6.472   6.684   0.865 -0.0783  1.5163  0.3676
 2800TIP3    H229816   6.332   6.706   0.812  0.2726  1.6919 -0.5141
 2801TIP3   OH229817   1.410   3.408   4.636  0.6853 -0.2946  1.3130
 2801TIP3    H129818   1.361   3.448   4.564  1.2402 -2.7067 -0.5689
 2801TIP3    H229819   1.467   3.478   4.667  1.1900  0.6228 -1.3571
 2802TIP3   OH229820   1.939   2.212   5.043 -0.3207  0.7605  0.1931
 2802TIP3    H129821   1.921   2.179   5.131  0.2379 -1.2540 -0.3978
 2802TIP3    H229822   1.854   2.218   5.001 -0.3527 -1.3508 -0.1220
 2803TIP3   OH229823   4.271   0.812   4.981  0.2079 -0.7156 -0.1874
 2803TIP3    H129824   4.314   0.864   4.913  0.8320 -1.2783 -0.2244
 2803TIP3    H229825   4.191   0.779   4.938 -1.3057  1.8514  0.4289
 2804TIP3   OH229826   0.079   4.239  14.893  0.1753  1.2015  0.4790
 2804TIP3    H129827   0.167   4.271  14.872  0.6372  0.5443  1.3254
 2804TIP3    H229828   0.087   4.143  14.890 -0.6154  1.1396  0.1578
 2805TIP3   OH229829   5.104   1.675  11.284 -0.1203  0.9896 -0.3190
 2805TIP3    H129830   5.170   1.744  11.270 -0.5928  1.8461  1.3518
 2805TIP3    H229831   5.028   1.705  11.234 -0.7451  2.3824  1.3695
 2806TIP3   OH229832   0.499   0.873  13.762 -0.0914 -0.2957  0.0940
 2806TIP3    H129833   0.440   0.816  13.812 -1.9326  2.0165  0.7570
 2806TIP3    H229834   0.536   0.932  13.827  0.0838  0.6307 -0.8231
 2807TIP3   OH229835   0.996   0.361   1.948  0.1361 -0.1418  0.0153
 2807TIP3    H129836   0.904   0.365   1.919 -0.4013 -1.3507  1.4294
 2807TIP3    H229837   0.997   0.409   2.030  1.3356  1.9749 -1.1467
 2808TIP3   OH229838   1.785   3.213   3.107  0.2865  0.3213 -0.0519
 2808TIP3    H129839   1.817   3.126   3.081 -1.4379 -0.2917 -0.2805
 2808TIP3    H229840   1.864   3.262   3.129  1.6696 -0.1264 -3.3464
 2809TIP3   OH229841   0.046   5.687   4.025 -0.3266  1.0078  0.0819
 2809TIP3    H129842   0.097   5.766   4.005  0.3444  0.9967  1.5864
 2809TIP3    H229843   0.106   5.615   4.006 -0.0990  0.9603  0.9361
 2810TIP3   OH229844   4.050   2.099   3.308 -0.0161  0.3932 -0.2128
 2810TIP3    H129845   4.005   2.128   3.229  1.6176  0.5913 -1.1125
 2810TIP3    H229846   4.033   2.005   3.313  0.5387  0.2196 -1.2862
 2811TIP3   OH229847   0.362   1.526   5.123 -0.0701 -0.7031 -0.2842
 2811TIP3    H129848   0.294   1.573   5.172 -1.5687 -0.6827 -2.2432
 2811TIP3    H229849   0.337   1.538   5.031  4.0042  1.4189 -1.3173
 2812TIP3   OH229850   4.439   4.663  16.861 -0.1849  0.2178 -0.0748
 2812TIP3    H129851   4.472   4.752  16.849 -0.6298  0.4926  0.6718
 2812TIP3    H229852   4.430   4.653  16.956 -4.1799  0.9005 -0.2096
 2813TIP3   OH229853   2.642   3.650  12.179 -0.0528 -0.6362 -1.3215
 2813TIP3    H129854   2.594   3.716  12.128 -1.5535 -0.1258  0.6395
 2813TIP3    H229855   2.654   3.691  12.265  1.7835 -1.7413 -1.0005
 2814TIP3   OH229856   1.271   5.551  12.610  0.7170 -0.0831  0.4255
 2814TIP3    H129857   1.186   5.592  12.599  0.0186 -1.6006 -0.0827
 2814TIP3    H229858   1.258   5.485  12.678  0.0561 -3.7464 -2.8614
 2815TIP3   OH229859   6.742   3.134   1.397  0.1114  0.1201 -0.1619
 2815TIP3    H129860   6.803   3.104   1.464 -0.1305  0.1926  0.0970
 2815TIP3    H229861   6.797   3.162   1.324  0.3413 -0.8914 -0.3836
 2816TIP3   OH229862   3.985   0.810   5.298 -0.0574  0.3918 -0.9396
 2816TIP3    H129863   3.956   0.902   5.301 -1.5506 -0.0861 -0.0204
 2816TIP3    H229864   3.911   0.763   5.260  0.4598 -0.5333 -0.8129
 2817TIP3   OH229865   6.732   6.323   1.477  0.2934 -0.3055  0.0410
 2817TIP3    H129866   6.749   6.255   1.542  0.3862 -1.6832 -1.3716
 2817TIP3    H229867   6.818   6.361   1.459  0.5564 -1.1214 -0.5179
 2818TIP3   OH229868   3.144   3.658   3.478  0.2882 -0.5029  0.0707
 2818TIP3    H129869   3.158   3.651   3.573 -4.4413 -0.9387  1.0154
 2818TIP3    H229870   3.104   3.574   3.454  1.0664 -0.2696 -2.2831
 2819TIP3   OH229871   5.507   5.695  13.730  0.0408 -0.2972  0.0834
 2819TIP3    H129872   5.508   5.631  13.801 -1.7265  0.9570  1.3152
 2819TIP3    H229873   5.560   5.768  13.763 -0.6508  0.2242  0.0537
 2820TIP3   OH229874   0.082   6.212  16.362  0.0352 -0.0274  0.0603
 2820TIP3    H129875   0.138   6.257  16.425  0.5573  0.2296 -0.5749
 2820TIP3    H229876   0.087   6.120  16.387  1.0603 -0.0582 -0.2251
 2821TIP3   OH229877   5.122   4.017   0.273 -0.7043  0.2365 -0.0154
 2821TIP3    H129878   5.151   3.946   0.215 -3.0784 -1.0414  0.2138
 2821TIP3    H229879   5.187   4.020   0.343 -0.6274 -1.8978  0.0720
 2822TIP3   OH229880   1.648   5.232   5.747  0.4134 -0.3376  0.1135
 2822TIP3    H129881   1.609   5.319   5.750 -0.5405 -0.7484  2.7527
 2822TIP3    H229882   1.730   5.242   5.796  0.6778 -0.7574 -0.2439
 2823TIP3   OH229883   5.819   0.357  15.316  0.3511  0.2277  0.4121
 2823TIP3    H129884   5.828   0.446  15.352  1.1528  0.3534 -0.0794
 2823TIP3    H229885   5.814   0.301  15.393  1.8129  0.5146  0.7420
 2824TIP3   OH229886   6.253   5.626  13.270  0.5303  0.4573 -0.1689
 2824TIP3    H129887   6.333   5.679  13.275 -0.1397  1.4216  1.0036
 2824TIP3    H229888   6.182   5.691  13.270 -0.2604 -0.3652 -1.6031
 2825TIP3   OH229889   3.992   0.044   4.969  0.3055  0.0478  0.2209
 2825TIP3    H129890   4.008   0.058   5.063  0.2485 -0.4831  0.3142
 2825TIP3    H229891   4.077   0.059   4.928  0.6022 -0.8213  0.4897
 2826TIP3   OH229892   4.506   6.569   5.813 -0.7441 -0.4692  0.1507
 2826TIP3    H129893   4.583   6.626   5.815 -0.4074 -0.9385  1.2560
 2826TIP3    H229894   4.533   6.490   5.860 -1.8255 -0.7419  0.3368
 2827TIP3   OH229895   6.513   6.081  15.404 -0.4708  0.4138 -0.6766
 2827TIP3    H129896   6.516   6.033  15.321 -0.6214  0.5799 -0.7788
 2827TIP3    H229897   6.475   6.166  15.382  0.9264  1.0579 -0.7281
 2828TIP3   OH229898   5.160   5.198   2.675 -0.5605 -0.1107 -0.2095
 2828TIP3    H129899   5.167   5.179   2.581 -1.4065  0.5630 -0.4209
 2828TIP3    H229900   5.118   5.120   2.712  0.9444 -0.9349 -0.1604
 2829TIP3   OH229901   1.231   4.448   5.445  0.4808  0.3585  0.0357
 2829TIP3    H129902   1.221   4.540   5.419  0.5802  0.5843  0.7883
 2829TIP3    H229903   1.144   4.411   5.435  0.1926  0.8171  0.7923
 2830TIP3   OH229904   5.346   0.592  12.234 -0.0331  0.3763  0.1758
 2830TIP3    H129905   5.385   0.668  12.277  0.5131  0.1521  0.0851
 2830TIP3    H229906   5.420   0.537  12.210 -0.4454 -0.5192  0.8588
 2831TIP3   OH229907   2.921   3.236  13.231 -0.2450 -0.0098  0.0423
 2831TIP3    H129908   3.001   3.288  13.231  0.6823 -1.0275  4.2277
 2831TIP3    H229909   2.853   3.296  13.260 -0.7626  0.4742 -2.0287
 2832TIP3   OH229910   5.225   0.509  17.133  0.0411 -0.1708  0.1591
 2832TIP3    H129911   5.131   0.492  17.133 -0.1216  0.6933  0.6992
 2832TIP3    H229912   5.233   0.603  17.149  1.0235 -0.4630  1.6584
 2833TIP3   OH229913   6.218   6.016   4.658 -0.3728  0.0458 -0.0249
 2833TIP3    H129914   6.291   5.994   4.717  0.0302  0.6853 -0.2661
 2833TIP3    H229915   6.245   6.099   4.617  0.1692 -1.2386 -2.4324
 2834TIP3   OH229916   3.153   5.573  16.499  0.1994 -0.4772 -0.6416
 2834TIP3    H129917   3.212   5.646  16.479  1.0674 -1.1797 -0.7460
 2834TIP3    H229918   3.065   5.608  16.486  0.5152  1.0335  0.9497
 2835TIP3   OH229919   6.266   1.351   0.022  0.1214 -0.2532 -0.2962
 2835TIP3    H129920   6.326   1.307  -0.039 -0.9671 -2.0170 -0.1466
 2835TIP3    H229921   6.187   1.368  -0.029  0.2878  1.0334 -0.1730
 2836TIP3   OH229922   1.597   0.798  15.974 -0.1824  0.0705  0.1584
 2836TIP3    H129923   1.583   0.749  15.893  0.4442  1.1797 -0.6461
 2836TIP3    H229924   1.555   0.882  15.959  1.0334  0.7562  0.4841
 2837TIP3   OH229925   1.508   2.670  13.162 -0.4488 -0.3303 -0.0743
 2837TIP3    H129926   1.423   2.654  13.120  0.1352 -1.5282 -0.8507
 2837TIP3    H229927   1.561   2.709  13.092  0.5282 -2.3280 -0.5340
 2838TIP3   OH229928   5.050   4.230   1.967  0.1582  0.0987  0.0306
 2838TIP3    H129929   4.996   4.234   2.046  1.1478 -0.6255  0.7623
 2838TIP3    H229930   5.135   4.200   1.997  1.5007  2.6975 -0.8151
 2839TIP3   OH229931   2.049   3.015  14.420 -0.1551 -0.2617 -0.3365
 2839TIP3    H129932   2.090   2.979  14.342 -0.1510 -0.7592 -0.1085
 2839TIP3    H229933   2.109   3.083  14.450  0.1978 -0.5665 -0.3553
 2840TIP3   OH229934   5.865   2.868  13.905  0.1015 -0.5939  0.4310
 2840TIP3    H129935   5.797   2.828  13.851 -0.0687 -1.4392  1.2532
 2840TIP3    H229936   5.838   2.960  13.913  0.4947 -0.2681 -1.4622
 2841TIP3   OH229937   6.008   3.346   1.918 -0.0636  0.1688  0.7782
 2841TIP3    H129938   5.947   3.299   1.975  0.0936 -1.4380 -0.2906
 2841TIP3    H229939   6.091   3.300   1.931 -0.2064 -0.7741 -1.2823
 2842TIP3   OH229940   5.737   4.609  12.909  0.3303  0.4853 -0.2655
 2842TIP3    H129941   5.798   4.679  12.933  0.2224  0.3360  0.4626
 2842TIP3    H229942   5.734   4.612  12.813 -0.5022  2.1960 -0.2313
 2843TIP3   OH229943   0.906   3.685  14.481 -0.1377  0.2655 -0.2253
 2843TIP3    H129944   0.878   3.646  14.398  1.0433 -1.2190  0.0354
 2843TIP3    H229945   0.833   3.669  14.541  0.0293 -0.9326 -0.3201
 2844TIP3   OH229946   2.240   3.833  11.350  0.4024 -0.5720  0.1013
 2844TIP3    H129947   2.168   3.866  11.406  1.4712  2.0077  0.1096
 2844TIP3    H229948   2.196   3.800  11.272 -0.8269  1.9324 -0.3667
 2845TIP3   OH229949   4.125   1.511  12.304 -0.1344 -0.0315 -0.6978
 2845TIP3    H129950   4.181   1.524  12.228  0.0717  0.1663 -0.5120
 2845TIP3    H229951   4.112   1.599  12.340  1.9174 -0.3419  1.0372
 2846TIP3   OH229952   3.315   3.750  14.307  0.2746  0.3853  0.3281
 2846TIP3    H129953   3.264   3.823  14.343  0.0116  0.9220 -1.0730
 2846TIP3    H229954   3.299   3.678  14.369 -0.7237  1.0649  0.9044
 2847TIP3   OH229955   5.449   3.275   0.701  0.0027 -0.6815 -0.2090
 2847TIP3    H129956   5.505   3.281   0.779  0.2187  0.1177 -0.4157
 2847TIP3    H229957   5.362   3.297   0.733  0.1892  0.2173 -0.2884
 2848TIP3   OH229958   5.554   6.473   1.792 -0.0376  0.0595  0.5784
 2848TIP3    H129959   5.568   6.502   1.882 -0.8546  1.2651  0.3476
 2848TIP3    H229960   5.559   6.377   1.796 -1.3521  0.0085  2.1589
 2849TIP3   OH229961   1.591   3.393  13.602 -0.0758  0.0031  1.1375
 2849TIP3    H129962   1.685   3.395  13.624  0.0704  1.0997  0.4557
 2849TIP3    H229963   1.559   3.313  13.644  0.9910  0.0399  2.0788
 2850TIP3   OH229964   3.852   6.360   5.033 -0.0057 -0.2368  0.3897
 2850TIP3    H129965   3.836   6.439   4.981  0.2712  0.0822  0.7829
 2850TIP3    H229966   3.917   6.387   5.098  0.1917 -0.8247  0.4455
 2851TIP3   OH229967   1.419   5.420  17.021 -0.3727 -0.1073  0.5571
 2851TIP3    H129968   1.353   5.364  17.063 -0.4356 -0.1564  0.3925
 2851TIP3    H229969   1.500   5.369  17.026 -1.0558 -1.8031 -2.6928
 2852TIP3   OH229970   0.002   0.832  16.711 -0.0748 -0.1230 -0.5460
 2852TIP3    H129971  -0.037   0.849  16.626  1.3085  0.2547 -1.1338
 2852TIP3    H229972   0.095   0.823  16.694  0.6244  2.5651  1.2177
 2853TIP3   OH229973   4.930   6.396   0.315  0.1011  0.2197 -0.3459
 2853TIP3    H129974   4.857   6.335   0.302  1.3129 -1.6099  0.9709
 2853TIP3    H229975   4.987   6.383   0.240 -0.3588  0.8355 -0.8103
 2854TIP3   OH229976   1.619   0.233   1.087  0.1955  0.2937 -0.0134
 2854TIP3    H129977   1.624   0.145   1.124  0.4182  0.5007  0.4656
 2854TIP3    H229978   1.529   0.260   1.101  0.7297  1.1723  2.3323
 2855TIP3   OH229979   0.438   3.103   6.528  0.2099 -0.1194 -0.2256
 2855TIP3    H129980   0.357   3.093   6.478 -0.0352 -1.4946  0.3895
 2855TIP3    H229981   0.508   3.082   6.465  0.1311  1.4580 -0.8617
 2856TIP3   OH229982   0.760   1.750  10.208 -0.3005  0.3200 -0.0209
 2856TIP3    H129983   0.794   1.757  10.297 -0.2001  2.7881 -0.2098
 2856TIP3    H229984   0.675   1.706  10.218  0.4784 -1.0142  1.0516
 2857TIP3   OH229985   2.239   6.289  11.141  0.0743  0.3794  0.4483
 2857TIP3    H129986   2.296   6.324  11.072  1.5428 -0.1742  1.3439
 2857TIP3    H229987   2.156   6.337  11.129  0.0246 -0.1828 -2.1090
 2858TIP3   OH229988   0.229   3.883  11.810 -0.4414 -0.7534 -0.7579
 2858TIP3    H129989   0.296   3.842  11.865  1.4422  0.6917 -1.8390
 2858TIP3    H229990   0.197   3.813  11.753 -0.2327 -1.5814  0.1225
 2859TIP3   OH229991   5.750   6.603  12.274 -0.1029 -0.9089  0.5656
 2859TIP3    H129992   5.799   6.685  12.278 -1.8849  0.2235  0.6053
 2859TIP3    H229993   5.795   6.544  12.334 -0.2683  0.9006  2.5715
 2860TIP3   OH229994   2.435   0.215   3.320 -0.3074 -0.0589 -0.0068
 2860TIP3    H129995   2.429   0.124   3.288  0.2171 -0.3411  0.6819
 2860TIP3    H229996   2.413   0.209   3.413 -0.7033  0.5922 -0.0536
 2861TIP3   OH229997   6.720   5.911   1.955 -0.2047  0.5667  0.4494
 2861TIP3    H129998   6.672   5.990   1.982 -0.2246  0.8358 -0.3586
 2861TIP3    H229999   6.759   5.879   2.036 -1.0326  0.8317  0.9738
 2862TIP3   OH230000   2.556   2.844  13.171 -0.2615 -0.1438 -0.1157
 2862TIP3    H130001   2.578   2.905  13.100 -0.4112  0.0290 -0.0139
 2862TIP3    H230002   2.620   2.863  13.239 -0.1606 -0.2621 -0.1774
 2863TIP3   OH230003   3.425   6.581  14.849  1.0742  0.6918  0.0253
 2863TIP3    H130004   3.385   6.504  14.810  0.1834  1.3906 -0.4684
 2863TIP3    H230005   3.441   6.556  14.940 -0.2203  0.2980  0.1627
 2864TIP3   OH230006   1.487   5.345   2.173 -0.1957 -0.0006  0.0607
 2864TIP3    H130007   1.391   5.347   2.173 -0.2390 -1.0342  0.9115
 2864TIP3    H230008   1.509   5.262   2.130  0.3611  0.6762 -1.0084
 2865TIP3   OH230009   0.947   2.438  15.317 -0.3992  0.4673  0.0448
 2865TIP3    H130010   1.020   2.500  15.321 -0.6402  0.9412 -1.8830
 2865TIP3    H230011   0.911   2.449  15.229 -1.2370 -1.5371  0.0797
 2866TIP3   OH230012   4.620   4.108   0.957 -0.0279 -0.0795  0.1793
 2866TIP3    H130013   4.684   4.045   0.991 -0.3784 -0.3406  0.3751
 2866TIP3    H230014   4.625   4.182   1.017  1.1842  0.5748 -0.6937
 2867TIP3   OH230015   1.914   2.772   0.684 -0.5560  0.0506 -0.3170
 2867TIP3    H130016   1.833   2.721   0.674 -0.7803  0.5531 -1.1212
 2867TIP3    H230017   1.908   2.840   0.617  0.9374 -0.4110 -0.9585
 2868TIP3   OH230018   0.484   1.751  15.521  0.2284 -0.0961 -0.0819
 2868TIP3    H130019   0.411   1.691  15.508 -2.0325  2.2974  0.7106
 2868TIP3    H230020   0.483   1.770  15.615  1.1595  0.8163 -0.2299
 2869TIP3   OH230021   4.206   3.131  17.125  0.5989  0.2794  0.2412
 2869TIP3    H130022   4.162   3.072  17.064 -0.2584  0.7588  0.3752
 2869TIP3    H230023   4.277   3.171  17.074 -0.5196  1.1858 -0.6609
 2870TIP3   OH230024   1.721   0.947  16.509 -0.5012 -0.0025  0.0303
 2870TIP3    H130025   1.635   0.979  16.537 -1.4726 -1.4634 -1.1389
 2870TIP3    H230026   1.715   0.944  16.414  0.4449 -1.1736 -0.0158
 2871TIP3   OH230027   4.648   3.984  14.964 -0.0101 -0.2954  0.4137
 2871TIP3    H130028   4.673   3.895  14.986 -1.0778 -0.4570  0.9962
 2871TIP3    H230029   4.566   3.976  14.916 -1.9826  0.5098  3.3814
 2872TIP3   OH230030   1.857   0.771   5.651 -0.3748 -0.0324 -0.1341
 2872TIP3    H130031   1.831   0.811   5.568 -0.1654 -1.8332 -1.1093
 2872TIP3    H230032   1.914   0.699   5.626  1.4891  0.7186  1.7083
 2873TIP3   OH230033   4.361   2.618  13.898 -0.1467 -0.0278 -0.4123
 2873TIP3    H130034   4.429   2.551  13.887 -0.7928 -1.0120  1.1898
 2873TIP3    H230035   4.407   2.694  13.933  0.2420 -0.4240 -0.0637
 2874TIP3   OH230036   5.559   6.151   2.345  0.5155 -0.0914  0.4323
 2874TIP3    H130037   5.562   6.179   2.253 -1.0807  2.9261  1.1657
 2874TIP3    H230038   5.466   6.139   2.363  0.5795  1.7273  2.2366
 2875TIP3   OH230039   1.961   1.952  13.315 -0.4992 -0.0028  0.3507
 2875TIP3    H130040   2.054   1.942  13.336 -0.3946  4.4166  3.2239
 2875TIP3    H230041   1.916   1.897  13.379  0.0766 -0.2897  0.5177
 2876TIP3   OH230042   0.974   0.239   0.873  0.1764  0.8427  0.1694
 2876TIP3    H130043   0.950   0.277   0.788 -0.8171  2.7673  1.2321
 2876TIP3    H230044   1.021   0.310   0.917  2.6313 -0.8696  0.4421
 2877TIP3   OH230045   6.261   4.753  15.799 -0.4303  0.6919 -0.9148
 2877TIP3    H130046   6.325   4.696  15.758 -2.6484 -0.9125 -2.3873
 2877TIP3    H230047   6.239   4.709  15.881  0.6802  1.5114 -0.1585
 2878TIP3   OH230048   1.231   2.730   2.284  0.1554 -0.1680 -0.2578
 2878TIP3    H130049   1.275   2.790   2.223  0.8222  0.2020  0.5650
 2878TIP3    H230050   1.178   2.674   2.228  1.4978 -0.4750 -1.2679
 2879TIP3   OH230051   3.511   2.494  13.961 -0.5985 -0.4403  0.5078
 2879TIP3    H130052   3.524   2.511  13.868  0.7320 -1.6530  0.4353
 2879TIP3    H230053   3.562   2.561  14.006  0.5759 -1.1798  0.3113
 2880TIP3   OH230054   4.316   1.287   0.802  0.0777  0.0988 -0.0866
 2880TIP3    H130055   4.350   1.204   0.837  0.6499 -0.0464 -0.9508
 2880TIP3    H230056   4.365   1.354   0.850  0.0567 -0.0771  0.1826
 2881TIP3   OH230057   2.846   3.578   3.153 -0.4255  0.2023  0.2426
 2881TIP3    H130058   2.874   3.665   3.180  0.4645  0.5164 -1.5161
 2881TIP3    H230059   2.772   3.594   3.095  0.3253 -0.1228 -0.8267
 2882TIP3   OH230060   5.029   6.589   3.187  1.0227 -0.4537 -0.1588
 2882TIP3    H130061   5.008   6.520   3.125  1.8597 -0.8620 -0.0031
 2882TIP3    H230062   4.967   6.659   3.167  0.2075 -1.2092 -0.3721
 2883TIP3   OH230063   2.980   1.319   1.162  0.1401  0.3836 -0.0275
 2883TIP3    H130064   3.008   1.228   1.158  0.8154  0.6176 -2.7742
 2883TIP3    H230065   2.981   1.348   1.071 -1.3387  2.7669  0.6283
 2884TIP3   OH230066   2.398   3.388  15.640 -0.5634  0.6824 -0.1918
 2884TIP3    H130067   2.361   3.313  15.595  0.0577  0.3409 -0.1540
 2884TIP3    H230068   2.333   3.457  15.631 -1.5151 -0.0962  0.4741
 2885TIP3   OH230069   6.200   1.227  14.930  0.2726  0.0319 -0.3639
 2885TIP3    H130070   6.170   1.269  15.010  1.5993  0.7989 -0.2353
 2885TIP3    H230071   6.145   1.150  14.921  0.3374 -0.2829  1.5052
 2886TIP3   OH230072   0.559   1.378   4.316 -0.4781 -0.0942 -0.0308
 2886TIP3    H130073   0.530   1.345   4.401 -0.6647 -0.3648 -0.2016
 2886TIP3    H230074   0.625   1.444   4.338  0.3786 -1.0298  0.2981
 2887TIP3   OH230075   5.549   6.771  13.287 -0.1562  0.1547  0.1520
 2887TIP3    H130076   5.604   6.701  13.322  0.0560  0.3512  0.2081
 2887TIP3    H230077   5.504   6.806  13.364  0.8459  1.0645  0.3399
 2888TIP3   OH230078   4.340   2.670  13.427 -0.0393  0.0261 -0.2813
 2888TIP3    H130079   4.332   2.585  13.385 -1.0963  0.3432 -0.7620
 2888TIP3    H230080   4.251   2.692  13.455  0.4717  0.2866  1.2165
 2889TIP3   OH230081   0.645   0.268   0.006 -0.1323  0.0849  0.1093
 2889TIP3    H130082   0.600   0.227  -0.068  1.1898  1.4680 -1.5622
 2889TIP3    H230083   0.713   0.206   0.032  1.0348  0.5912 -1.5639
 2890TIP3   OH230084   0.507   3.564  15.717 -0.3265 -0.6075  0.3564
 2890TIP3    H130085   0.476   3.496  15.659  1.3485 -1.2079  0.1037
 2890TIP3    H230086   0.602   3.553  15.719 -0.1490  0.7336  1.5412
 2891TIP3   OH230087   0.525   4.526   5.304  0.5819  1.1993 -0.0630
 2891TIP3    H130088   0.460   4.593   5.324 -0.4580  0.0198  0.6225
 2891TIP3    H230089   0.475   4.444   5.299  2.0850  0.1425  1.2213
 2892TIP3   OH230090   6.295   0.121  14.180  0.2945  0.2968  0.3189
 2892TIP3    H130091   6.287   0.151  14.271 -1.7016  1.4147 -0.1486
 2892TIP3    H230092   6.250   0.036  14.179 -1.4742  1.1720  0.0632
 2893TIP3   OH230093   1.911   4.323   4.576  0.5324 -0.8494 -0.4377
 2893TIP3    H130094   1.830   4.295   4.619  1.2069  1.0789  2.3516
 2893TIP3    H230095   1.968   4.246   4.582 -0.7388 -1.9476 -1.6615
 2894TIP3   OH230096   2.916   1.978   2.476  0.2522 -0.0087 -0.3519
 2894TIP3    H130097   2.824   1.956   2.464  0.3866 -1.4730  0.9718
 2894TIP3    H230098   2.963   1.898   2.456  1.1478  0.3776  0.1427
 2895TIP3   OH230099   6.047   5.783  15.386 -0.3087 -0.6459 -0.2179
 2895TIP3    H130100   6.121   5.792  15.447 -0.3237 -1.7597 -0.0267
 2895TIP3    H230101   6.066   5.703  15.337 -1.3061 -0.8392 -0.2989
 2896TIP3   OH230102   4.494   3.965  12.285  0.5874  0.9903 -0.0629
 2896TIP3    H130103   4.559   3.981  12.353 -0.7553 -0.5766  1.6759
 2896TIP3    H230104   4.534   3.898  12.229  1.9724  2.7656 -1.3224
 2897TIP3   OH230105   2.028   4.970   3.329 -0.1245  0.2098  0.1084
 2897TIP3    H130106   1.963   4.918   3.282 -0.0911  1.4310 -1.3481
 2897TIP3    H230107   1.976   5.031   3.382 -0.3648  2.7390 -2.7369
 2898TIP3   OH230108   0.033   4.262   4.967 -0.3305 -0.0998 -0.0719
 2898TIP3    H130109   0.122   4.236   4.943 -1.0689 -1.8845 -1.0542
 2898TIP3    H230110   0.020   4.346   4.924  0.1881 -0.8134 -1.7205
 2899TIP3   OH230111   5.995   5.959   6.051 -0.6919  0.3812 -0.4447
 2899TIP3    H130112   5.937   5.892   6.089 -0.3101 -0.4907 -1.3706
 2899TIP3    H230113   5.973   5.959   5.958 -0.5695  1.4432 -0.4821
 2900TIP3   OH230114   4.816   0.806  17.146  0.3573  0.1079 -0.2453
 2900TIP3    H130115   4.733   0.851  17.129 -0.3960 -0.5253  1.4386
 2900TIP3    H230116   4.882   0.875  17.144  0.2439  0.2829 -4.0677
 2901TIP3   OH230117   6.602   5.000   3.769 -0.4147 -0.6079  0.3598
 2901TIP3    H130118   6.563   5.076   3.812  0.6540 -0.6438  1.4626
 2901TIP3    H230119   6.551   4.925   3.800 -1.2171 -0.4013 -0.4183
 2902TIP3   OH230120   5.991   3.918   4.427 -0.1579  0.7461  0.4199
 2902TIP3    H130121   5.948   3.845   4.383  1.3465 -1.2268  2.0308
 2902TIP3    H230122   5.989   3.989   4.363 -2.3181 -0.4362 -0.9557
 2903TIP3   OH230123   1.144   5.892  14.129 -0.2466 -0.3108  0.0732
 2903TIP3    H130124   1.138   5.798  14.146 -0.1399 -0.6565 -1.6596
 2903TIP3    H230125   1.090   5.905  14.051 -0.5445  1.1385  0.4939
 2904TIP3   OH230126   3.802   5.316  16.094  0.5104  0.0998 -0.4933
 2904TIP3    H130127   3.811   5.227  16.130  1.0178  0.1067 -0.5979
 2904TIP3    H230128   3.717   5.345  16.125  0.3349 -0.4292 -0.4612
 2905TIP3   OH230129   2.390   0.207   4.746 -0.6580  0.1181 -0.7973
 2905TIP3    H130130   2.328   0.136   4.728 -0.5271  0.3420 -2.3163
 2905TIP3    H230131   2.442   0.214   4.666  0.6177  0.6587  0.0457
 2906TIP3   OH230132   2.741   1.544  16.669  0.0091  0.1128  0.7027
 2906TIP3    H130133   2.783   1.469  16.627 -2.1528 -0.5303 -0.4559
 2906TIP3    H230134   2.649   1.517  16.680 -0.7197  2.3937  0.7087
 2907TIP3   OH230135   3.629   4.786  15.365  0.5970 -0.5677  0.0465
 2907TIP3    H130136   3.557   4.806  15.425  1.6255 -1.3030  1.5900
 2907TIP3    H230137   3.605   4.701  15.328  0.0075 -0.1601 -0.5358
 2908TIP3   OH230138   2.021   2.986  16.998 -0.2492 -1.0240 -0.2799
 2908TIP3    H130139   2.030   2.930  17.075  0.9361  0.5237  0.7576
 2908TIP3    H230140   2.047   3.073  17.028 -1.0877 -0.0915 -2.0888
 2909TIP3   OH230141   3.013   4.034  16.192 -0.3008  0.4344  0.5452
 2909TIP3    H130142   3.102   4.000  16.194  0.0741  1.3849  0.4607
 2909TIP3    H230143   2.996   4.053  16.099 -1.8083 -2.7736  0.0191
 2910TIP3   OH230144   5.648   0.305   3.039 -0.2942  0.4039  0.3557
 2910TIP3    H130145   5.688   0.341   2.959 -0.9871  1.1618  0.3442
 2910TIP3    H230146   5.722   0.268   3.087  0.3210  1.0756 -0.0386
 2911TIP3   OH230147   0.787   0.494   3.176  0.1898  0.0741  0.3886
 2911TIP3    H130148   0.796   0.580   3.219  2.0576 -0.3549  0.9411
 2911TIP3    H230149   0.811   0.510   3.085 -1.2621  0.4716  0.0490
 2912TIP3   OH230150   6.703   3.410   3.268  0.7530 -0.1154  0.0329
 2912TIP3    H130151   6.670   3.345   3.206 -2.0040  1.0439  0.1467
 2912TIP3    H230152   6.793   3.428   3.240 -0.3865  0.4404 -3.7155
 2913TIP3   OH230153   1.121   4.704  14.976 -0.5540  0.1738  0.0492
 2913TIP3    H130154   1.191   4.642  14.954 -1.3579 -0.2751 -1.3837
 2913TIP3    H230155   1.156   4.756  15.048  0.7792 -0.8466  0.1718
 2914TIP3   OH230156   2.229   2.152  12.768  0.6733  0.2710 -0.4289
 2914TIP3    H130157   2.154   2.094  12.754 -0.4507  1.8615 -1.2558
 2914TIP3    H230158   2.250   2.141  12.861 -1.3693  0.6554  0.1401
 2915TIP3   OH230159   3.477   0.436   3.440  0.0331 -0.1737 -0.2964
 2915TIP3    H130160   3.532   0.371   3.396  0.9049 -0.0521  0.5788
 2915TIP3    H230161   3.520   0.519   3.424  0.8874 -0.2300  1.5231
 2916TIP3   OH230162   1.188   4.191  14.647  0.2821  0.4780 -0.0385
 2916TIP3    H130163   1.177   4.103  14.611  0.6517 -0.4042  1.9068
 2916TIP3    H230164   1.241   4.179  14.725  0.5923  2.4835  0.1034
 2917TIP3   OH230165   4.103   3.591   1.024 -0.3525 -0.4429 -0.1297
 2917TIP3    H130166   4.146   3.620   0.944 -2.9046 -1.1962 -1.9047
 2917TIP3    H230167   4.117   3.496   1.026  0.8313 -0.2711  1.0981
 2918TIP3   OH230168   2.476   2.423   0.209  0.1505  0.1438  0.3698
 2918TIP3    H130169   2.381   2.420   0.206  0.1485 -1.2008  0.9696
 2918TIP3    H230170   2.504   2.344   0.162  1.0524  1.5978 -1.6807
 2919TIP3   OH230171   1.533   4.839  17.103  0.7526  0.1270  0.1184
 2919TIP3    H130172   1.563   4.775  17.038  0.3612 -0.3652  0.4208
 2919TIP3    H230173   1.578   4.920  17.078 -1.0919  0.5733 -2.1833
 2920TIP3   OH230174   0.773   4.016   5.014  0.2932  0.0723  0.2866
 2920TIP3    H130175   0.738   4.098   4.980  0.2265  0.3814  1.0940
 2920TIP3    H230176   0.854   4.003   4.964  0.6051  0.9225  0.5525
 2921TIP3   OH230177   4.236   5.758  16.900  0.0045  0.2252 -0.0541
 2921TIP3    H130178   4.214   5.682  16.845  1.9994 -0.4434 -0.0227
 2921TIP3    H230179   4.327   5.778  16.876 -0.0357  1.7216  0.9763
 2922TIP3   OH230180   4.208   2.513  13.670  0.2045 -0.4323  0.0206
 2922TIP3    H130181   4.279   2.558  13.625  0.9248 -1.6282 -0.1040
 2922TIP3    H230182   4.227   2.526  13.763  2.1023 -2.8100  0.0825
 2923TIP3   OH230183   4.764   1.232  15.322  0.2434 -0.4261  0.4611
 2923TIP3    H130184   4.838   1.172  15.313  0.0125 -0.6848  0.2801
 2923TIP3    H230185   4.730   1.241  15.233  0.9432  0.8324  0.2934
 2924TIP3   OH230186   1.453   1.037  16.555  0.3754 -0.0510  0.7283
 2924TIP3    H130187   1.438   0.943  16.564 -0.4602 -0.0486 -0.3477
 2924TIP3    H230188   1.369   1.073  16.526  0.3132  1.2444  2.3638
 2925TIP3   OH230189   2.289   6.590  13.686  0.1411  0.1884  0.1377
 2925TIP3    H130190   2.356   6.522  13.673  0.7168  0.9736 -1.2183
 2925TIP3    H230191   2.218   6.564  13.627  0.6968  1.1517 -0.9988
 2926TIP3   OH230192   0.498   6.421  15.031 -0.2245  0.1084 -0.2167
 2926TIP3    H130193   0.500   6.325  15.037  0.8871  0.0826 -0.8090
 2926TIP3    H230194   0.512   6.450  15.122 -0.5439 -0.2821 -0.0379
 2927TIP3   OH230195   5.784   2.447  12.372 -0.0016  0.1632 -0.2185
 2927TIP3    H130196   5.702   2.427  12.327 -0.3716  0.2913  0.3927
 2927TIP3    H230197   5.789   2.543  12.371 -0.5400  0.2189  0.9291
 2928TIP3   OH230198   5.667   0.419  12.586 -0.3013 -0.6988  0.5377
 2928TIP3    H130199   5.607   0.494  12.584  2.0111  1.2448 -0.2904
 2928TIP3    H230200   5.623   0.352  12.533 -1.1078  1.1951 -1.3347
 2929TIP3   OH230201   1.437   3.903  11.296 -0.2687  0.7679  0.4488
 2929TIP3    H130202   1.346   3.873  11.291  0.0303 -0.1065 -0.0542
 2929TIP3    H230203   1.475   3.876  11.212  0.3657  1.4242  0.5212
 2930TIP3   OH230204   3.910   2.093   1.335  0.2630  0.1786 -0.1575
 2930TIP3    H130205   3.888   2.000   1.324 -0.1592  0.3260 -0.6006
 2930TIP3    H230206   4.000   2.093   1.367 -0.6374 -0.5001  2.7321
 2931TIP3   OH230207   2.290   0.148  14.394 -0.0863  0.0688  0.4089
 2931TIP3    H130208   2.206   0.159  14.440 -0.4818  0.3449 -0.3634
 2931TIP3    H230209   2.325   0.237  14.385  0.5518 -0.0937  1.1938
 2932TIP3   OH230210   2.107   0.358   2.954 -0.3669  0.3365 -0.8545
 2932TIP3    H130211   2.039   0.297   2.983 -0.7356  1.8939  1.7740
 2932TIP3    H230212   2.095   0.362   2.859 -1.2140 -2.5607 -0.9792
 2933TIP3   OH230213   2.819   1.192  11.888  0.8320  0.1562 -0.2277
 2933TIP3    H130214   2.774   1.116  11.924 -1.0881  1.4067  0.2075
 2933TIP3    H230215   2.895   1.156  11.842  2.0635 -1.7157  2.9752
 2934TIP3   OH230216   3.408   0.247  14.902  0.2269  0.2550  0.0225
 2934TIP3    H130217   3.494   0.207  14.891 -0.6762 -1.4500 -1.2075
 2934TIP3    H230218   3.373   0.209  14.983  1.5814  2.9005  2.0046
 2935TIP3   OH230219   1.571   5.573   1.192  0.2265  0.2528  0.9750
 2935TIP3    H130220   1.621   5.497   1.163 -0.7888  0.3744 -1.3655
 2935TIP3    H230221   1.587   5.639   1.124 -1.5734  0.9215  1.1371
 2936TIP3   OH230222   3.739   2.102   4.302 -0.1410  0.5472 -0.3787
 2936TIP3    H130223   3.694   2.019   4.316 -0.2708  0.6814  0.0291
 2936TIP3    H230224   3.720   2.153   4.381  1.3990  0.3028  0.1855
 2937TIP3   OH230225   3.292   2.474  14.688 -0.4997 -0.4217 -0.7365
 2937TIP3    H130226   3.236   2.400  14.663 -0.1081 -1.0274  0.1319
 2937TIP3    H230227   3.243   2.551  14.660 -1.9857 -0.9189  0.3750
 2938TIP3   OH230228   4.782   3.538  16.121  0.1201  0.1669  0.4566
 2938TIP3    H130229   4.773   3.454  16.075 -0.1896  0.9573 -1.0145
 2938TIP3    H230230   4.876   3.557  16.118  0.0902  0.2628  0.0273
 2939TIP3   OH230231   6.289   2.367   5.711 -0.6209  0.2120 -0.2111
 2939TIP3    H130232   6.305   2.428   5.783  1.6492  0.3611 -0.7538
 2939TIP3    H230233   6.334   2.287   5.737  0.9303  0.5209 -1.7413
 2940TIP3   OH230234   0.488   5.971  12.785 -0.5875 -0.2126  0.2432
 2940TIP3    H130235   0.521   6.005  12.868  0.6471  0.2655 -0.4220
 2940TIP3    H230236   0.485   6.048  12.728 -0.2908 -0.7558 -0.5033
 2941TIP3   OH230237   2.330   5.750   1.057  0.1671 -0.1489 -0.3900
 2941TIP3    H130238   2.321   5.713   0.969  1.1595  1.2741 -1.1352
 2941TIP3    H230239   2.353   5.675   1.112 -3.7305 -1.7196 -0.5993
 2942TIP3   OH230240   4.200   5.272  15.523  0.0036 -0.7181 -0.1464
 2942TIP3    H130241   4.269   5.285  15.458  0.6301  0.5025  0.7098
 2942TIP3    H230242   4.139   5.210  15.483  0.4580 -0.1245 -1.7993
 2943TIP3   OH230243   0.763   1.153  17.054 -0.0221  0.5234  0.4760
 2943TIP3    H130244   0.811   1.223  17.098 -0.7027  1.9264 -0.9190
 2943TIP3    H230245   0.698   1.198  16.999 -2.9261 -1.2451  2.1767
 2944TIP3   OH230246   6.435   1.930  12.185  0.7503  0.4713  0.4118
 2944TIP3    H130247   6.471   1.858  12.133  1.6318  1.8167 -0.9342
 2944TIP3    H230248   6.442   1.900  12.276 -0.5126 -1.8073 -0.1678
 2945TIP3   OH230249   2.960   2.611   1.472 -0.2335 -1.0986 -0.1083
 2945TIP3    H130250   3.055   2.623   1.481 -0.3810 -0.1136  0.2220
 2945TIP3    H230251   2.926   2.699   1.455 -1.2263 -1.2484  1.0013
 2946TIP3   OH230252   3.303   1.180  14.381 -0.1315  0.0238 -0.0802
 2946TIP3    H130253   3.269   1.208  14.466 -2.6661 -1.7398 -0.4080
 2946TIP3    H230254   3.226   1.150  14.333  1.2468  0.7363 -2.9534
 2947TIP3   OH230255   2.525   1.888   4.209 -0.1643  0.5376  0.6857
 2947TIP3    H130256   2.471   1.858   4.135 -0.2542  0.5416  0.7491
 2947TIP3    H230257   2.524   1.814   4.270 -2.8444  1.6629  2.2176
 2948TIP3   OH230258   4.934   0.973  13.196  0.4129 -0.2718  0.0598
 2948TIP3    H130259   4.924   0.940  13.107  0.5087 -0.1781  0.0143
 2948TIP3    H230260   4.875   0.919  13.248 -0.2990  0.2491 -0.1981
 2949TIP3   OH230261   4.857   4.919  12.613 -0.2499 -0.7838 -0.2020
 2949TIP3    H130262   4.854   4.908  12.518 -2.2407  1.0484 -0.4487
 2949TIP3    H230263   4.896   5.005  12.627  0.8800 -1.4077  0.7347
 2950TIP3   OH230264   0.921   2.620   4.291  0.2879  0.0536 -0.3340
 2950TIP3    H130265   0.860   2.607   4.219  1.4371  0.8703 -1.5080
 2950TIP3    H230266   0.895   2.704   4.330  0.0510 -0.0858 -0.1910
 2951TIP3   OH230267   6.639   4.775   1.891 -0.1898 -0.3248  0.4141
 2951TIP3    H130268   6.553   4.750   1.856  0.0370  0.9489 -1.1887
 2951TIP3    H230269   6.699   4.763   1.817  0.8058 -0.0851  1.1662
 2952TIP3   OH230270   1.143   1.705  12.074  0.4961  0.3037  0.0004
 2952TIP3    H130271   1.069   1.653  12.042 -0.1256  1.8879 -1.2614
 2952TIP3    H230272   1.112   1.796  12.071  1.0928  0.7432  3.2931
 2953TIP3   OH230273   4.039   2.201   3.908 -0.4141 -0.7300  0.2430
 2953TIP3    H130274   4.042   2.246   3.992 -1.9748 -0.5042  0.2208
 2953TIP3    H230275   4.022   2.109   3.931  0.1872 -0.8505  0.2067
 2954TIP3   OH230276   3.628   2.372   5.300 -0.2024  0.2035 -0.1841
 2954TIP3    H130277   3.642   2.311   5.228 -0.0091  0.8319 -0.6815
 2954TIP3    H230278   3.548   2.341   5.343 -0.0294 -0.4743 -0.3491
 2955TIP3   OH230279   1.547   6.591  13.643 -0.0932 -0.4506  0.0146
 2955TIP3    H130280   1.588   6.513  13.681 -0.2007 -0.7230 -0.4242
 2955TIP3    H230281   1.485   6.620  13.710 -0.3018 -0.9463  0.0415
 2956TIP3   OH230282   2.914   4.188  11.961  0.1396 -0.2490 -0.5635
 2956TIP3    H130283   2.858   4.246  11.909  0.6182  0.7184 -0.0193
 2956TIP3    H230284   2.866   4.104  11.963 -0.9478  0.3506 -0.6893
 2957TIP3   OH230285   3.674   0.950   5.611 -0.3163 -0.4938  0.2849
 2957TIP3    H130286   3.763   0.931   5.640  0.5380  1.4993 -0.7911
 2957TIP3    H230287   3.667   0.908   5.525 -1.0190 -2.0229  1.0641
 2958TIP3   OH230288   6.671   4.989  17.274 -0.7934  0.0633  0.0553
 2958TIP3    H130289   6.758   5.003  17.236 -0.7064  0.9339  0.5558
 2958TIP3    H230290   6.686   4.980  17.368 -0.9354 -2.7228 -0.0826
 2959TIP3   OH230291   4.469   3.649  14.944  0.0843 -0.1667  0.5443
 2959TIP3    H130292   4.513   3.641  14.859  2.1180 -1.8814  1.6387
 2959TIP3    H230293   4.521   3.594  15.002 -2.1047 -0.2243  2.5884
 2960TIP3   OH230294   2.429   0.960  17.249 -0.5705 -0.1426 -0.4968
 2960TIP3    H130295   2.441   1.018  17.174 -1.7763  0.2339 -0.4290
 2960TIP3    H230296   2.478   1.002  17.320 -2.0136  1.2443 -0.2542
 2961TIP3   OH230297   1.893   0.907  17.147  0.2845  0.1127 -0.7060
 2961TIP3    H130298   1.940   0.983  17.180  0.2641  0.2818 -1.0614
 2961TIP3    H230299   1.829   0.887  17.215 -2.2686  2.6771 -2.0788
 2962TIP3   OH230300   4.141   1.035   3.455 -0.1541  0.4054 -0.4484
 2962TIP3    H130301   4.141   1.122   3.494  1.1169  0.1619  0.1407
 2962TIP3    H230302   4.181   1.047   3.369  1.1659  0.2189  0.1221
 2963TIP3   OH230303   2.752   1.445   5.746  0.8226 -0.5925  0.1624
 2963TIP3    H130304   2.845   1.422   5.737  1.1811  0.9821 -0.4941
 2963TIP3    H230305   2.706   1.362   5.733  2.0830 -1.2156 -0.5696
 2964TIP3   OH230306   0.516   4.139  10.986 -0.1258 -0.3657 -0.3741
 2964TIP3    H130307   0.446   4.105  10.930 -0.5745 -0.7507  0.3991
 2964TIP3    H230308   0.513   4.234  10.973 -0.2216 -0.4518 -1.0018
 2965TIP3   OH230309   0.776   0.027  14.584  0.6148  0.2867  0.2030
 2965TIP3    H130310   0.761   0.107  14.634  1.1487  0.0215  0.8040
 2965TIP3    H230311   0.717   0.034  14.509 -0.0883  0.7656  0.7825
 2966TIP3   OH230312   1.380   6.643   5.456  0.0343  0.1778 -0.0011
 2966TIP3    H130313   1.314   6.647   5.386 -1.2393  0.4375  1.1663
 2966TIP3    H230314   1.374   6.729   5.499  1.7791  0.5363 -0.4109
 2967TIP3   OH230315   2.758   3.416  11.439  0.0816  0.2067  0.0319
 2967TIP3    H130316   2.777   3.502  11.403  0.2458  0.4878  0.7731
 2967TIP3    H230317   2.669   3.423  11.473  0.0129  0.0172 -0.1083
 2968TIP3   OH230318   2.232   2.873   2.558  0.2144  0.7149  0.3459
 2968TIP3    H130319   2.170   2.829   2.499  1.2357 -0.3119 -0.0103
 2968TIP3    H230320   2.301   2.905   2.500  0.2291  1.4863  0.7793
 2969TIP3   OH230321   5.176   3.574   0.671 -0.1937 -0.3674 -0.2454
 2969TIP3    H130322   5.232   3.548   0.598  0.9222  2.1778 -0.3821
 2969TIP3    H230323   5.208   3.523   0.745 -0.8288 -2.4065 -1.2878
 2970TIP3   OH230324   6.719   3.150   6.404 -0.6439 -0.3076 -0.0937
 2970TIP3    H130325   6.730   3.104   6.487 -1.9043 -0.5305 -0.0301
 2970TIP3    H230326   6.698   3.081   6.341  2.0731 -0.3835 -1.0293
 2971TIP3   OH230327   4.121   5.871  14.608 -0.5827 -0.0500 -0.5758
 2971TIP3    H130328   4.062   5.849  14.537 -0.6868 -0.7270 -0.2882
 2971TIP3    H230329   4.202   5.899  14.565 -0.5622 -0.6806 -0.9546
 2972TIP3   OH230330   0.722   3.612   1.354 -0.3198 -0.5446 -0.1657
 2972TIP3    H130331   0.721   3.609   1.258  0.7023  1.0624 -0.2704
 2972TIP3    H230332   0.809   3.646   1.376 -0.1475 -1.8779  1.3944
 2973TIP3   OH230333   3.463   4.078   4.350  0.3825 -0.3784  0.2510
 2973TIP3    H130334   3.384   4.037   4.384 -0.0375 -0.6713 -1.0199
 2973TIP3    H230335   3.527   4.071   4.422 -0.8042  0.1006  1.3878
 2974TIP3   OH230336   0.118   5.715  11.171  0.1012 -0.5598  0.1708
 2974TIP3    H130337   0.188   5.713  11.106 -0.4787 -0.0139 -0.4813
 2974TIP3    H230338   0.090   5.806  11.173  0.0368 -0.5907  1.1205
 2975TIP3   OH230339   1.362   5.631  16.122 -0.4408  0.7895  0.5270
 2975TIP3    H130340   1.393   5.569  16.189 -0.9556 -1.1052 -0.9167
 2975TIP3    H230341   1.425   5.703  16.126 -0.2100  0.5524  2.7330
 2976TIP3   OH230342   5.409   0.396   3.878 -0.1585  0.8796 -0.5812
 2976TIP3    H130343   5.467   0.433   3.811 -0.9742  1.6385 -0.8922
 2976TIP3    H230344   5.333   0.454   3.878 -0.9741 -0.1567 -0.2641
 2977TIP3   OH230345   1.814   0.126  11.269 -0.5790  0.7020 -0.2632
 2977TIP3    H130346   1.791   0.219  11.276 -2.1977  0.3751 -0.8193
 2977TIP3    H230347   1.736   0.085  11.233  0.7110 -0.6148 -1.7290
 2978TIP3   OH230348   1.970   0.180   2.622  0.1803 -0.7006  0.5032
 2978TIP3    H130349   1.923   0.173   2.540 -0.0458 -0.5834  0.6228
 2978TIP3    H230350   2.051   0.226   2.599 -1.4268  2.6748  0.9154
 2979TIP3   OH230351   1.621   3.635  15.899  0.1702  0.1975  0.1082
 2979TIP3    H130352   1.616   3.620  15.993  0.7348  0.5641  0.2064
 2979TIP3    H230353   1.538   3.677  15.876 -0.1611 -0.3128  0.3531
 2980TIP3   OH230354   0.421   3.501  14.513  0.0237 -0.1998 -0.1908
 2980TIP3    H130355   0.501   3.480  14.562 -0.1213 -1.3120 -0.4027
 2980TIP3    H230356   0.393   3.585  14.549  0.4534 -0.5231  0.9616
 2981TIP3   OH230357   3.605   5.737  14.195  0.1918 -0.1470  0.1720
 2981TIP3    H130358   3.605   5.668  14.129 -0.4945  0.3980 -0.4072
 2981TIP3    H230359   3.644   5.813  14.151 -0.2775  0.2229  0.3856
 2982TIP3   OH230360   1.819   4.387  13.410 -0.0077  0.1608  0.4089
 2982TIP3    H130361   1.748   4.353  13.355 -0.7153 -0.0020  1.4076
 2982TIP3    H230362   1.879   4.313  13.419  0.0604  0.1541 -0.0364
 2983TIP3   OH230363   4.909   0.837  13.884  0.4844 -0.1174  0.5951
 2983TIP3    H130364   4.992   0.814  13.924  0.0259 -0.9841  1.0660
 2983TIP3    H230365   4.847   0.771  13.916 -0.3274  0.3605  0.0518
 2984TIP3   OH230366   3.267   1.083   4.376 -0.3260  0.7265 -0.4885
 2984TIP3    H130367   3.247   1.045   4.462 -1.1683  0.1047 -0.9498
 2984TIP3    H230368   3.212   1.035   4.315  1.0955  0.3922 -1.5467
 2985TIP3   OH230369   1.944   5.520   0.197 -0.3150 -0.3898  0.6195
 2985TIP3    H130370   1.905   5.575   0.129  2.5246 -0.3649 -1.1545
 2985TIP3    H230371   1.927   5.430   0.167 -1.0813 -0.4243  1.1414
 2986TIP3   OH230372   3.095   1.516  16.831  0.7297 -0.0065 -0.0911
 2986TIP3    H130373   3.177   1.536  16.875  0.1516  2.3437  0.0840
 2986TIP3    H230374   3.032   1.579  16.868  0.0847  1.8101 -3.8409
 2987TIP3   OH230375   4.013   4.841  16.979 -0.4413  0.2571 -0.0346
 2987TIP3    H130376   3.930   4.864  17.022 -0.4299 -0.2610  0.2798
 2987TIP3    H230377   4.058   4.924  16.967 -0.8589  0.5076  0.1093
 2988TIP3   OH230378   1.993   2.187  16.851 -0.1686 -0.2813  0.0959
 2988TIP3    H130379   1.964   2.251  16.786  1.9890  2.5801  1.7187
 2988TIP3    H230380   1.912   2.146  16.881 -1.5059  0.4921 -2.1692
 2989TIP3   OH230381   1.942   4.522   2.777  0.8401  0.1649 -0.4163
 2989TIP3    H130382   1.900   4.572   2.708  2.9590 -0.2230 -2.0855
 2989TIP3    H230383   2.020   4.572   2.799  1.0332 -0.5376  0.5554
 2990TIP3   OH230384   4.438   6.121  15.458 -0.2416 -0.3728 -0.5017
 2990TIP3    H130385   4.424   6.028  15.439  0.4950 -0.6390  0.2251
 2990TIP3    H230386   4.497   6.150  15.388 -2.1264  0.0984 -1.9852
 2991TIP3   OH230387   0.100   0.153  16.083  0.4021 -0.1975 -0.2619
 2991TIP3    H130388   0.014   0.134  16.047  1.1959 -0.2435 -2.2150
 2991TIP3    H230389   0.098   0.115  16.171 -1.1469 -1.2824 -0.7351
 2992TIP3   OH230390   2.753   3.662  11.267  0.0347 -0.2672 -0.2349
 2992TIP3    H130391   2.687   3.728  11.288 -0.7334 -1.0986  0.0468
 2992TIP3    H230392   2.768   3.670  11.173  1.8685  2.0213  0.1653
 2993TIP3   OH230393   5.584   1.671  16.396 -0.1061  0.3859  0.4080
 2993TIP3    H130394   5.663   1.707  16.436 -0.0616  1.2150 -0.3805
 2993TIP3    H230395   5.528   1.747  16.382 -0.2951  0.0698 -0.6793
 2994TIP3   OH230396   6.715   1.267   0.578 -0.5645 -0.0372  1.0201
 2994TIP3    H130397   6.689   1.299   0.664 -1.0832  0.8398  0.5637
 2994TIP3    H230398   6.808   1.288   0.571 -0.7913  0.9989  0.9121
 2995TIP3   OH230399   5.367   5.638  16.713  0.5459 -0.4652  0.1055
 2995TIP3    H130400   5.355   5.630  16.807  0.5234  0.6021  0.1992
 2995TIP3    H230401   5.388   5.730  16.698 -1.5108 -0.1067 -1.1294
 2996TIP3   OH230402   5.486   0.837   0.108  0.0444  0.0593  0.0587
 2996TIP3    H130403   5.476   0.768   0.174 -0.5915 -0.2084 -0.3094
 2996TIP3    H230404   5.527   0.793   0.033 -0.1454  0.1330 -0.0884
 2997TIP3   OH230405   1.589   2.883  13.673 -0.3213 -0.1140 -0.1811
 2997TIP3    H130406   1.683   2.867  13.657  0.4603  1.4014  2.3438
 2997TIP3    H230407   1.569   2.828  13.750 -1.1411  0.5741  0.1074
 2998TIP3   OH230408   3.724   2.495  16.935  0.0417  0.0251 -0.1388
 2998TIP3    H130409   3.818   2.477  16.944 -0.2490 -1.2164  0.4913
 2998TIP3    H230410   3.713   2.512  16.841  1.1658  1.9209  0.0168
 2999TIP3   OH230411   3.854   5.846  12.202 -0.4925 -0.1820  0.3177
 2999TIP3    H130412   3.765   5.881  12.205 -0.2193  0.4608  1.4291
 2999TIP3    H230413   3.843   5.752  12.222 -0.8236  0.1322  1.7474
 3000TIP3   OH230414   2.165   6.429  15.395 -0.2394 -0.9500  0.5208
 3000TIP3    H130415   2.210   6.466  15.471 -0.5762 -1.2337  0.8564
 3000TIP3    H230416   2.184   6.491  15.324  0.8293 -1.1526  0.6108
 3001TIP3   OH230417   0.040   0.579  12.144  0.8874 -0.3364 -0.1149
 3001TIP3    H130418   0.068   0.648  12.204  0.2925 -0.0767 -0.1308
 3001TIP3    H230419  -0.027   0.620  12.090  0.7021 -0.8612 -0.2882
 3002TIP3   OH230420   2.843   6.088   2.653 -0.0297 -0.5919 -0.0772
 3002TIP3    H130421   2.862   6.079   2.559  1.6645 -1.4378  0.3091
 3002TIP3    H230422   2.817   6.000   2.681  0.1052 -0.4917  0.3683
 3003TIP3   OH230423   5.809   4.767   1.137 -0.2525  0.4608  0.0886
 3003TIP3    H130424   5.816   4.731   1.048  1.5052  0.9742 -0.0222
 3003TIP3    H230425   5.760   4.701   1.185 -0.9112 -0.0102 -1.1737
 3004TIP3   OH230426   3.037   6.123   3.849 -0.8773 -0.0327 -0.2363
 3004TIP3    H130427   3.082   6.083   3.924 -0.4929 -0.7274 -0.8313
 3004TIP3    H230428   3.011   6.050   3.794  0.4734  0.5256 -1.7083
 3005TIP3   OH230429   1.306   4.937   6.191  0.1502 -0.2916  0.1338
 3005TIP3    H130430   1.358   4.976   6.261 -1.2677  0.2088  0.9448
 3005TIP3    H230431   1.358   4.951   6.112  1.7230 -0.7633  1.0555
 3006TIP3   OH230432   4.630   4.902  11.434 -0.6273 -0.2439 -1.0585
 3006TIP3    H130433   4.710   4.865  11.397 -0.0353 -0.0782  0.0034
 3006TIP3    H230434   4.642   4.893  11.529 -1.3605  0.8303 -0.8522
 3007TIP3   OH230435   0.947   4.342   5.679  0.3419  0.1648  0.2893
 3007TIP3    H130436   1.034   4.304   5.692  0.6835  0.4441 -0.9727
 3007TIP3    H230437   0.943   4.359   5.585 -0.3900  1.8160  0.5933
 3008TIP3   OH230438   4.350   5.340   4.386  0.2913 -0.1487  0.2177
 3008TIP3    H130439   4.439   5.376   4.384  0.1668  0.2711  1.2622
 3008TIP3    H230440   4.360   5.255   4.429  0.4147 -0.8559 -1.1784
 3009TIP3   OH230441   1.256   2.155  14.889 -0.6879  0.4976  0.1052
 3009TIP3    H130442   1.214   2.239  14.901 -1.5370  0.1375 -0.3085
 3009TIP3    H230443   1.196   2.105  14.834  0.0301 -0.2082 -0.0611
 3010TIP3   OH230444   6.641   4.629   5.843  0.0909 -0.2978  0.1777
 3010TIP3    H130445   6.665   4.653   5.932  0.6928 -0.4408  0.0574
 3010TIP3    H230446   6.548   4.607   5.848  0.4364 -1.6741  1.0547
 3011TIP3   OH230447   2.442   3.781  11.546  0.0361  0.5189  0.4434
 3011TIP3    H130448   2.387   3.832  11.605 -1.4280 -0.9045  0.3976
 3011TIP3    H230449   2.392   3.778  11.464  0.1113 -0.8556  0.4194
 3012TIP3   OH230450   6.123   2.192  14.603  0.3594 -0.0762 -0.6245
 3012TIP3    H130451   6.106   2.103  14.572  2.2469 -0.4943 -0.5383
 3012TIP3    H230452   6.074   2.247  14.543 -0.8755 -1.1517 -0.6655
 3013TIP3   OH230453   4.312   4.508   2.683 -0.4519  0.3861  0.4504
 3013TIP3    H130454   4.270   4.439   2.631  1.2657  0.0884 -0.6450
 3013TIP3    H230455   4.358   4.562   2.618 -0.2942  1.4995  1.4596
 3014TIP3   OH230456   5.185   5.202   5.184  0.5324  0.7801  0.2260
 3014TIP3    H130457   5.232   5.134   5.137 -0.7305 -0.8888  1.2526
 3014TIP3    H230458   5.156   5.263   5.116 -1.6366 -1.7734 -1.3223
 3015TIP3   OH230459   6.329   2.047  15.334 -0.5623  0.4335  0.3651
 3015TIP3    H130460   6.301   1.955  15.332  0.2201  0.1951 -0.1250
 3015TIP3    H230461   6.373   2.061  15.250 -0.6376  1.2513  0.4504
 3016TIP3   OH230462   6.101   3.534  13.017 -0.4744  0.0223  0.1648
 3016TIP3    H130463   6.071   3.443  13.014 -0.8362  0.1061  0.9897
 3016TIP3    H230464   6.064   3.574  12.939 -0.7814 -0.4012  0.0924
 3017TIP3   OH230465   5.366   3.008   2.521  0.0782  0.4617  0.2793
 3017TIP3    H130466   5.345   2.926   2.566 -2.3736  1.3807  0.9773
 3017TIP3    H230467   5.391   3.068   2.592  0.8980  0.6189 -0.1272
 3018TIP3   OH230468   0.352   1.838   1.882  0.5822  0.3044 -0.6757
 3018TIP3    H130469   0.337   1.920   1.930  0.0295 -0.4670  0.4982
 3018TIP3    H230470   0.427   1.798   1.926 -0.9670 -1.2279  0.7095
 3019TIP3   OH230471   4.083   0.044   5.220  0.0944 -0.3488  0.3221
 3019TIP3    H130472   4.090   0.021   5.313  0.6829  0.1195  0.4035
 3019TIP3    H230473   4.116   0.134   5.215  4.5797 -1.7871 -0.9375
 3020TIP3   OH230474   6.502   5.273  11.163 -0.1713 -0.9320  0.0074
 3020TIP3    H130475   6.575   5.334  11.171 -0.3615 -0.8272  1.0779
 3020TIP3    H230476   6.457   5.299  11.083  0.0198  0.0409  0.2091
 3021TIP3   OH230477   0.634   6.528   0.298 -0.3597  0.3458  0.3272
 3021TIP3    H130478   0.617   6.434   0.302 -0.0549  0.2839  0.1636
 3021TIP3    H230479   0.690   6.546   0.373  1.5127 -0.0131 -0.9303
 3022TIP3   OH230480   5.300   3.485  15.569 -0.2278 -0.1740  0.3972
 3022TIP3    H130481   5.252   3.405  15.550 -0.8307  0.3685 -0.4279
 3022TIP3    H230482   5.270   3.548  15.503  1.9351  0.0700 -0.4553
 3023TIP3   OH230483   6.277   5.198   1.831 -0.2724  0.7974  0.0899
 3023TIP3    H130484   6.258   5.226   1.742 -0.1632  1.4437  0.2693
 3023TIP3    H230485   6.373   5.195   1.835 -0.2308 -1.7477 -0.5906
 3024TIP3   OH230486   1.214   4.737  16.967 -0.5699  0.1660  0.1596
 3024TIP3    H130487   1.190   4.661  16.915 -0.4913 -0.0429  0.4278
 3024TIP3    H230488   1.279   4.704  17.029  0.3495  0.7053 -0.5018
 3025TIP3   OH230489   1.344   3.456   2.430  0.1617 -0.0914  0.0523
 3025TIP3    H130490   1.411   3.413   2.377 -0.0087 -0.1119 -0.1495
 3025TIP3    H230491   1.372   3.443   2.521  0.2458 -0.4044 -0.0180
 3026TIP3   OH230492   4.772   4.309  13.707  0.4286  0.0053 -0.0265
 3026TIP3    H130493   4.785   4.246  13.778  0.8953 -0.3948 -0.4563
 3026TIP3    H230494   4.833   4.379  13.726 -1.6123  1.4618  1.6731
 3027TIP3   OH230495   5.809   6.650   4.240  0.3540  0.0431 -0.2528
 3027TIP3    H130496   5.879   6.643   4.305  1.4360 -0.0946 -1.4132
 3027TIP3    H230497   5.768   6.563   4.240  0.9384 -0.2325 -0.4161
 3028TIP3   OH230498   2.745   0.244  12.996 -0.5484 -0.4858  0.1764
 3028TIP3    H130499   2.793   0.327  12.990 -1.3191 -0.0441  0.0395
 3028TIP3    H230500   2.805   0.185  13.041  0.3205 -0.0880 -0.4339
 3029TIP3   OH230501   4.377   3.004   3.816  0.6527 -0.3998  0.1807
 3029TIP3    H130502   4.411   2.964   3.736  0.4136  0.8888 -0.5864
 3029TIP3    H230503   4.284   2.981   3.815  0.4619  0.3646 -0.3923
 3030TIP3   OH230504   1.489   0.814  15.312 -0.0923  0.0846 -0.3137
 3030TIP3    H130505   1.409   0.833  15.264  0.1922  1.1778 -0.3746
 3030TIP3    H230506   1.560   0.838  15.253  0.2787 -0.2085  0.0016
 3031TIP3   OH230507   1.620   1.471  10.834  0.6490 -0.5414 -0.2439
 3031TIP3    H130508   1.550   1.414  10.801 -0.1625 -0.5514  1.4125
 3031TIP3    H230509   1.683   1.411  10.872 -0.0880 -0.3988  1.2799
 3032TIP3   OH230510   2.151   4.899   5.449 -0.0677  0.6116  0.4383
 3032TIP3    H130511   2.097   4.931   5.376 -1.8694  0.9061  1.8332
 3032TIP3    H230512   2.112   4.814   5.471 -0.2206  1.0087  1.7364
 3033TIP3   OH230513   5.198   3.320  17.037  0.3408 -0.2666 -0.5764
 3033TIP3    H130514   5.161   3.295  16.952 -0.8094 -1.0207  0.1170
 3033TIP3    H230515   5.133   3.290  17.101  0.3747  1.7903  0.5035
 3034TIP3   OH230516   3.623   5.645  15.631  0.3657  0.2792 -0.0962
 3034TIP3    H130517   3.673   5.714  15.675 -0.6834  2.9721 -2.8060
 3034TIP3    H230518   3.565   5.692  15.571 -2.6020 -2.8539  0.0087
 3035TIP3   OH230519   6.537   0.395  13.598  0.3397 -0.3077  0.5756
 3035TIP3    H130520   6.520   0.309  13.636  0.3579 -0.9190 -0.7516
 3035TIP3    H230521   6.632   0.397  13.586  0.4254  0.1967  1.2469
 3036TIP3   OH230522   6.579   4.704  11.670  0.4184  0.5202 -0.1578
 3036TIP3    H130523   6.556   4.655  11.750 -0.8128 -2.1258 -1.9871
 3036TIP3    H230524   6.666   4.673  11.647  0.1485  0.1013 -0.6386
 3037TIP3   OH230525   5.540   6.743  14.169  0.0156  0.2049 -0.0655
 3037TIP3    H130526   5.588   6.784  14.097 -0.7300 -0.4496 -0.9599
 3037TIP3    H230527   5.593   6.668  14.194  0.4329  0.6137  0.2862
 3038TIP3   OH230528   0.205   4.390   4.485 -0.3053  0.0593  0.1785
 3038TIP3    H130529   0.117   4.424   4.470 -0.5868 -1.1670 -1.2022
 3038TIP3    H230530   0.258   4.467   4.505 -1.6544  0.8268  0.9443
 3039TIP3   OH230531   2.290   6.425   0.689  0.0945  0.1495 -0.0759
 3039TIP3    H130532   2.383   6.418   0.668  0.1390  1.7562 -0.6007
 3039TIP3    H230533   2.282   6.388   0.777  1.7729  2.4928  1.1802
 3040TIP3   OH230534   0.260   3.178  11.054  0.3366 -1.1791  0.1911
 3040TIP3    H130535   0.272   3.222  10.970 -0.0426 -0.7918  0.3341
 3040TIP3    H230536   0.349   3.162  11.086  0.4829 -1.3288 -0.2789
 3041TIP3   OH230537   5.403   1.085  12.011 -0.0254 -0.6305 -0.3465
 3041TIP3    H130538   5.358   1.107  12.093 -0.7728 -1.2169 -0.5814
 3041TIP3    H230539   5.343   1.024  11.967  0.3492 -0.2934 -1.3457
 3042TIP3   OH230540   6.748   5.270   4.792 -0.2248  0.0755 -0.5253
 3042TIP3    H130541   6.669   5.250   4.742 -1.4723  0.3511  1.2306
 3042TIP3    H230542   6.765   5.363   4.776 -0.1434 -0.0284 -1.0474
 3043TIP3   OH230543   0.652   2.401   6.318 -0.1816  0.1942 -0.0082
 3043TIP3    H130544   0.625   2.311   6.300 -0.0951 -0.0066  0.7964
 3043TIP3    H230545   0.747   2.395   6.334 -0.3712  0.2044  1.2655
 3044TIP3   OH230546   1.064   4.666   1.383  0.3856  0.1733 -0.1740
 3044TIP3    H130547   1.106   4.583   1.359  0.5884  0.0174  0.6933
 3044TIP3    H230548   1.116   4.732   1.337  1.5277 -0.0291  0.7566
 3045TIP3   OH230549   6.315   6.252  14.615  0.2105  0.4447 -0.2936
 3045TIP3    H130550   6.331   6.161  14.591  0.6058  0.6233 -0.7146
 3045TIP3    H230551   6.297   6.249  14.709 -0.4336 -0.1472 -0.4286
 3046TIP3   OH230552   3.404   2.644   5.628 -0.2628  0.4079 -0.0254
 3046TIP3    H130553   3.377   2.734   5.647  1.2268  0.5673  1.6123
 3046TIP3    H230554   3.499   2.645   5.637 -0.1276 -1.1616 -0.8648
 3047TIP3   OH230555   6.439   6.572  15.117 -0.1308  0.1615  0.2518
 3047TIP3    H130556   6.418   6.479  15.118  0.2505  0.0804  1.1214
 3047TIP3    H230557   6.378   6.610  15.053 -1.0551 -0.4958  0.7348
 3048TIP3   OH230558   0.192   5.577  12.705  0.3134 -0.6106 -0.0250
 3048TIP3    H130559   0.169   5.665  12.733  0.1312 -1.3686  2.5103
 3048TIP3    H230560   0.108   5.534  12.689  0.2678 -0.9488  1.0148
 3049TIP3   OH230561   3.117   5.383   3.658  0.2748  0.2151  0.4903
 3049TIP3    H130562   3.056   5.453   3.635 -0.0358 -0.1739  0.1036
 3049TIP3    H230563   3.183   5.385   3.588 -0.1951 -0.4144  0.0247
 3050TIP3   OH230564   5.267   3.904   0.984 -0.2463 -0.5217  0.1531
 3050TIP3    H130565   5.351   3.939   1.015  0.3876 -0.6449 -1.3479
 3050TIP3    H230566   5.273   3.810   1.000 -0.0070 -0.5575 -0.1354
 3051TIP3   OH230567   4.396   0.163   0.356 -0.3517 -0.1348 -0.2586
 3051TIP3    H130568   4.375   0.204   0.440  1.8666 -1.6690  1.1658
 3051TIP3    H230569   4.476   0.206   0.327  0.7340 -1.7906  0.1259
 3052TIP3   OH230570   6.322   1.246   5.827 -0.8204 -0.5439  0.1477
 3052TIP3    H130571   6.396   1.211   5.876  0.2209  0.2432 -0.7896
 3052TIP3    H230572   6.359   1.269   5.741 -1.8495  1.0485  0.0792
 3053TIP3   OH230573   1.392   3.181   5.383  0.0157 -0.1120 -0.6339
 3053TIP3    H130574   1.428   3.123   5.450  0.8561  0.9712 -0.1143
 3053TIP3    H230575   1.297   3.182   5.400  0.0413 -0.9547 -0.3799
 3054TIP3   OH230576   4.923   1.826  13.251  0.0714  0.0569 -0.1173
 3054TIP3    H130577   4.829   1.838  13.253  0.1479  0.5989  2.2437
 3054TIP3    H230578   4.960   1.912  13.267  0.9125 -0.5243  1.2389
 3055TIP3   OH230579   2.476   5.306  14.630 -0.5090 -0.2109  0.9823
 3055TIP3    H130580   2.434   5.230  14.670 -1.0348  0.1406  1.1133
 3055TIP3    H230581   2.535   5.269  14.564 -2.3768 -0.6682 -0.5201
 3056TIP3   OH230582   5.892   4.016   1.794 -0.4046 -0.2580  0.0896
 3056TIP3    H130583   5.965   4.015   1.732 -1.9111 -0.9491 -1.7458
 3056TIP3    H230584   5.860   3.925   1.795 -0.9012 -0.0919  1.3146
 3057TIP3   OH230585   1.419   6.548   3.069  0.4771  0.3804  0.5681
 3057TIP3    H130586   1.397   6.588   3.153  1.7354  0.8644  0.6880
 3057TIP3    H230587   1.440   6.622   3.012 -3.3481  0.3746 -1.2066
 3058TIP3   OH230588   3.797   3.641   4.800  0.4810 -0.1159  0.5338
 3058TIP3    H130589   3.775   3.687   4.719  1.7082 -1.1458 -0.4327
 3058TIP3    H230590   3.712   3.617   4.838 -0.1168  0.2268 -0.5471
 3059TIP3   OH230591   2.208   0.600  13.261  0.3882  0.4273  0.0853
 3059TIP3    H130592   2.178   0.596  13.170 -1.3726 -0.5090  0.6533
 3059TIP3    H230593   2.251   0.516  13.276 -1.2469 -0.3603  0.6800
 3060TIP3   OH230594   5.677   2.549   0.117  0.6644  0.3417 -0.3056
 3060TIP3    H130595   5.633   2.509   0.042  0.9238 -0.0955 -0.2265
 3060TIP3    H230596   5.640   2.504   0.193  1.6142 -0.4024 -0.2637
 3061TIP3   OH230597   1.257   3.950  16.869 -0.7089 -0.0311  0.3048
 3061TIP3    H130598   1.195   3.877  16.865 -0.1454 -0.4878 -0.5279
 3061TIP3    H230599   1.339   3.911  16.900 -0.6039  0.3946  0.5722
 3062TIP3   OH230600   5.679   2.237  11.629 -0.2930  0.2329 -0.0031
 3062TIP3    H130601   5.700   2.167  11.567  5.5816 -0.1108  1.8548
 3062TIP3    H230602   5.718   2.316  11.590  0.1718  0.7706  1.4890
 3063TIP3   OH230603   3.796   0.384  13.174 -0.4927  0.2207 -0.0032
 3063TIP3    H130604   3.702   0.378  13.193 -0.7203  0.1834 -1.0800
 3063TIP3    H230605   3.839   0.363  13.257 -1.4397  1.4302  0.8373
 3064TIP3   OH230606   5.058   1.263  16.101 -0.3383 -0.1264 -0.1774
 3064TIP3    H130607   4.967   1.265  16.070 -0.5179  0.6846  0.3577
 3064TIP3    H230608   5.105   1.316  16.037 -0.0767 -1.2148 -0.9101
 3065TIP3   OH230609   3.364   3.403   5.052  0.0756  0.2016 -0.2216
 3065TIP3    H130610   3.272   3.426   5.041 -0.1731 -0.7494 -0.2382
 3065TIP3    H230611   3.366   3.353   5.134  0.5941  0.2821 -0.1836
 3066TIP3   OH230612   3.694   2.247   5.048  0.2266 -0.5752  0.4317
 3066TIP3    H130613   3.673   2.241   4.955  1.2490 -0.1110  0.1630
 3066TIP3    H230614   3.760   2.316   5.053  1.8842 -2.1497  1.2052
 3067TIP3   OH230615   2.425   4.195  16.879 -0.5469 -0.1507  0.0785
 3067TIP3    H130616   2.485   4.126  16.851  1.0015  0.9381  0.5980
 3067TIP3    H230617   2.481   4.262  16.919 -1.6824  2.4338 -2.2656
 3068TIP3   OH230618   4.195   3.736   1.845 -0.3703 -0.2757  0.5749
 3068TIP3    H130619   4.219   3.824   1.873  0.1138 -0.5028  0.8916
 3068TIP3    H230620   4.101   3.740   1.829 -0.2671  0.4202  0.1216
 3069TIP3   OH230621   0.889   5.619  15.312  0.8205 -0.2714  0.2484
 3069TIP3    H130622   0.939   5.677  15.370 -1.0438  1.9734 -0.2292
 3069TIP3    H230623   0.859   5.677  15.241  0.7178 -2.3430 -1.5110
 3070TIP3   OH230624   5.562   4.227  14.765 -0.0631  0.4919 -0.1948
 3070TIP3    H130625   5.607   4.235  14.849 -1.0072  1.0396  0.2858
 3070TIP3    H230626   5.526   4.314  14.749  1.8260  0.9890 -2.2155
 3071TIP3   OH230627   2.864   2.814   3.789 -0.4577  0.0313  0.0487
 3071TIP3    H130628   2.940   2.821   3.846 -1.1357  0.2996  0.9386
 3071TIP3    H230629   2.870   2.726   3.752  0.1981 -0.0039  0.2206
 3072TIP3   OH230630   1.845   3.813   3.085 -0.3207 -0.0743 -0.2420
 3072TIP3    H130631   1.802   3.812   2.999 -0.6530 -0.7628 -0.0720
 3072TIP3    H230632   1.868   3.722   3.101  1.6231  0.3201 -0.5229
 3073TIP3   OH230633   2.398   3.411   6.140 -0.3752  0.0285 -0.5897
 3073TIP3    H130634   2.369   3.436   6.228 -0.9850  1.5279 -1.1916
 3073TIP3    H230635   2.369   3.321   6.130 -0.2372 -0.1901  0.7632
 3074TIP3   OH230636   0.725   0.091  17.077 -0.2056  0.3675 -0.2721
 3074TIP3    H130637   0.645   0.040  17.066  1.1952 -1.5542 -2.5907
 3074TIP3    H230638   0.712   0.168  17.022 -0.2012 -0.3014 -1.2308
 3075TIP3   OH230639   0.315   1.553  10.090  0.2821 -0.2543 -0.2761
 3075TIP3    H130640   0.266   1.471  10.085  2.1566 -1.4934  0.3620
 3075TIP3    H230641   0.253   1.616  10.126 -1.7525 -0.8832 -2.4119
 3076TIP3   OH230642   2.385   1.785   3.972 -0.4091  0.1014 -0.2122
 3076TIP3    H130643   2.432   1.702   3.964 -1.0330 -0.1836 -1.0839
 3076TIP3    H230644   2.404   1.832   3.891 -1.8949 -0.1822 -0.7672
 3077TIP3   OH230645   5.589   4.694   4.595 -0.6239  0.0924 -0.4255
 3077TIP3    H130646   5.578   4.677   4.502  0.5662 -1.0218 -0.3864
 3077TIP3    H230647   5.537   4.773   4.611 -1.7845 -0.3505 -1.7769
 3078TIP3   OH230648   6.017   6.054  13.873 -0.0395  0.0163  0.5038
 3078TIP3    H130649   6.071   6.003  13.813  1.0188  1.4146  0.2150
 3078TIP3    H230650   5.996   5.993  13.944  0.1723 -1.1461 -0.4005
 3079TIP3   OH230651   1.746   4.144  12.298 -0.7876  0.5874 -0.5066
 3079TIP3    H130652   1.695   4.070  12.333 -1.4790  1.3255  0.0722
 3079TIP3    H230653   1.725   4.217  12.356  1.0452  0.8889 -0.1638
 3080TIP3   OH230654   0.774   5.745  14.709  0.1351 -0.0425 -0.4323
 3080TIP3    H130655   0.697   5.769  14.657  0.4993  2.2718 -0.0158
 3080TIP3    H230656   0.845   5.738  14.645 -0.0760 -0.5636 -0.6171
 3081TIP3   OH230657   1.467   4.263  13.010 -0.3786  0.1441  0.2663
 3081TIP3    H130658   1.380   4.226  12.999  0.8926 -2.8905 -0.7438
 3081TIP3    H230659   1.493   4.293  12.922  0.6042 -1.6047 -0.0828
 3082TIP3   OH230660   0.276   2.343  11.037 -0.5983  0.2522 -0.8219
 3082TIP3    H130661   0.290   2.312  11.126 -0.1968 -1.0043 -1.3002
 3082TIP3    H230662   0.320   2.428  11.034  0.5450 -0.2907 -0.1828
 3083TIP3   OH230663   4.804   1.229  11.882 -0.6693  0.2780  0.0514
 3083TIP3    H130664   4.871   1.206  11.947 -0.7865  0.1926  0.1419
 3083TIP3    H230665   4.811   1.324  11.872  0.0097  0.1769 -0.5329
 3084TIP3   OH230666   1.213   3.643  12.934 -0.1934  0.2396  0.1533
 3084TIP3    H130667   1.154   3.714  12.958  0.7796  0.9998  0.3423
 3084TIP3    H230668   1.250   3.669  12.849  0.3647  0.0844  0.3453
 3085TIP3   OH230669   5.746   0.464  11.649 -0.8231 -0.1518  0.4467
 3085TIP3    H130670   5.830   0.477  11.692  0.7333 -2.4674 -1.6203
 3085TIP3    H230671   5.757   0.502  11.563 -1.7130 -0.8838 -0.0097
 3086TIP3   OH230672   4.693   1.342   4.848  0.2790  0.2863  0.3653
 3086TIP3    H130673   4.682   1.248   4.833 -1.0818  0.0824  2.2937
 3086TIP3    H230674   4.786   1.358   4.831  0.3967 -1.2395 -0.6667
 3087TIP3   OH230675   1.959   6.358   5.146 -0.1665 -0.4979 -0.2055
 3087TIP3    H130676   1.921   6.285   5.194 -0.4340 -1.2600 -1.5499
 3087TIP3    H230677   1.885   6.401   5.104  0.0967  0.0086 -0.1664
 3088TIP3   OH230678   0.285   2.093   0.965 -0.5376 -0.5121  0.1299
 3088TIP3    H130679   0.379   2.103   0.946 -0.3951 -0.7107  0.7112
 3088TIP3    H230680   0.282   2.030   1.037 -1.0241  0.5187  1.0363
 3089TIP3   OH230681   4.743   0.499  15.625  0.2064  0.1396 -0.1698
 3089TIP3    H130682   4.755   0.526  15.716  0.4675  0.4355 -0.2899
 3089TIP3    H230683   4.783   0.412  15.621 -1.6036 -0.7659  0.4764
 3090TIP3   OH230684   4.945   3.302  15.785 -0.4443 -0.3545  0.1511
 3090TIP3    H130685   5.035   3.270  15.784 -1.0389 -2.1674 -1.9006
 3090TIP3    H230686   4.939   3.361  15.710 -1.0374 -0.4920  0.0829
 3091TIP3   OH230687   5.447   4.272   4.522  0.1935 -0.4182 -0.2032
 3091TIP3    H130688   5.460   4.332   4.595  0.1561 -0.8754  0.1789
 3091TIP3    H230689   5.386   4.318   4.464  1.6300  0.7502 -0.8774
 3092TIP3   OH230690   4.909   4.522   3.098 -0.8327 -0.4968  0.6674
 3092TIP3    H130691   4.882   4.431   3.108 -0.9226 -0.2769  2.8934
 3092TIP3    H230692   4.828   4.568   3.075 -0.9475 -0.8369  0.3642
 3093TIP3   OH230693   1.492   4.655  11.544  0.3914  0.4007 -0.0536
 3093TIP3    H130694   1.456   4.656  11.632  1.7303  0.2200  0.5275
 3093TIP3    H230695   1.492   4.562  11.519  0.1751  0.4330 -0.1774
 3094TIP3   OH230696   5.116   0.172  10.709 -0.2370 -0.1040 -0.4621
 3094TIP3    H130697   5.115   0.078  10.696 -0.2246 -0.1908  0.1470
 3094TIP3    H230698   5.046   0.189  10.771 -1.0291  0.4364 -1.4648
 3095TIP3   OH230699   1.313   1.115   4.761 -0.6273  0.2851 -0.3070
 3095TIP3    H130700   1.249   1.133   4.830  1.0077 -0.3064  1.4900
 3095TIP3    H230701   1.361   1.197   4.751 -1.5652  0.7026 -1.5889
 3096TIP3   OH230702   1.369   3.729  11.568 -0.4422 -0.5606 -0.2114
 3096TIP3    H130703   1.284   3.771  11.567  1.0073  2.6930 -1.6950
 3096TIP3    H230704   1.425   3.787  11.619  1.1237 -2.0900 -0.0713
 3097TIP3   OH230705   2.356   0.196   5.218 -0.7748 -0.3160 -0.2483
 3097TIP3    H130706   2.394   0.282   5.200  0.1055 -1.2197 -3.3611
 3097TIP3    H230707   2.431   0.136   5.216 -1.5018 -1.3172  0.9318
 3098TIP3   OH230708   2.080   1.531  15.667 -0.2319 -0.0682 -0.8471
 3098TIP3    H130709   2.133   1.451  15.666 -1.3755 -0.8476 -1.4836
 3098TIP3    H230710   1.990   1.500  15.673 -0.6055  1.2803  2.1895
 3099TIP3   OH230711   1.066   1.838   5.029 -0.4003  0.3349  0.1738
 3099TIP3    H130712   1.138   1.886   5.069  2.2791 -1.7923 -1.7527
 3099TIP3    H230713   1.038   1.775   5.096  0.2213  0.5170  0.6044
 3100TIP3   OH230714   1.685   0.521   6.193  0.2490 -0.0520  0.3742
 3100TIP3    H130715   1.719   0.442   6.237 -1.2511 -0.5685  0.6719
 3100TIP3    H230716   1.716   0.513   6.103 -0.7008 -1.5407  0.1341
 3101TIP3   OH230717   1.484   6.448   1.674 -0.0526 -0.0241 -0.0324
 3101TIP3    H130718   1.443   6.511   1.615  0.1068  0.3746  0.2750
 3101TIP3    H230719   1.413   6.390   1.700 -0.4357  0.6599  0.4951
 3102TIP3   OH230720   6.550   6.348  14.269  0.0179  0.2300  0.1181
 3102TIP3    H130721   6.614   6.336  14.200 -0.3047 -0.6819 -0.0394
 3102TIP3    H230722   6.526   6.259  14.295 -0.8456  0.5577  0.4861
 3103TIP3   OH230723   1.742   2.152  10.766 -0.2302 -0.2217 -0.1332
 3103TIP3    H130724   1.827   2.192  10.785  0.9556 -1.8461 -1.6681
 3103TIP3    H230725   1.698   2.216  10.710 -0.0378  0.6412  0.6797
 3104TIP3   OH230726   5.626   4.705  12.410  0.1048  0.0313 -0.0382
 3104TIP3    H130727   5.658   4.666  12.491 -0.3971 -0.7129 -0.1846
 3104TIP3    H230728   5.683   4.780  12.395  1.0910 -0.6355  0.2678
 3105TIP3   OH230729   3.072   0.667   3.439 -0.8056  0.1828  0.0686
 3105TIP3    H130730   3.146   0.728   3.441  0.9299 -1.6201 -2.3762
 3105TIP3    H230731   3.059   0.643   3.531  0.9569  1.3532  0.6813
 3106TIP3   OH230732   4.900   1.069  14.717  0.3006 -0.7514 -0.4420
 3106TIP3    H130733   4.917   1.093  14.626  0.9979 -2.0642 -0.6915
 3106TIP3    H230734   4.949   0.987  14.729 -2.7098 -2.6429 -0.0042
 3107TIP3   OH230735   5.467   3.170   2.722 -0.1840  0.0382 -0.1840
 3107TIP3    H130736   5.435   3.255   2.752 -1.9338 -0.2005 -1.2482
 3107TIP3    H230737   5.562   3.182   2.712 -0.3851  1.8389 -0.2381
 3108TIP3   OH230738   3.930   1.932   5.351  0.3461  0.2182  0.4069
 3108TIP3    H130739   3.906   1.842   5.376 -1.2192  1.2165  2.8742
 3108TIP3    H230740   3.963   1.923   5.262 -0.5887 -2.6892  0.2149
 3109TIP3   OH230741   4.965   3.071  11.175  0.7818  0.0727 -0.1342
 3109TIP3    H130742   4.893   3.133  11.167  1.9015  1.3496 -0.6762
 3109TIP3    H230743   4.930   3.000  11.229 -0.8597  0.6665 -0.3697
 3110TIP3   OH230744   4.481   5.697   1.471  0.2407  0.3837 -0.2956
 3110TIP3    H130745   4.411   5.761   1.457 -2.0478 -2.0362 -0.7954
 3110TIP3    H230746   4.515   5.678   1.383  2.3666  2.2829  0.0250
 3111TIP3   OH230747   0.650   2.716   0.717  0.1643  0.7754 -0.3225
 3111TIP3    H130748   0.661   2.760   0.633  0.6476  0.6248 -0.3421
 3111TIP3    H230749   0.727   2.659   0.725  1.4316  2.6048  1.3219
 3112TIP3   OH230750   5.239   6.154   1.290  0.7175  0.0550  0.0277
 3112TIP3    H130751   5.262   6.113   1.207 -0.2796  0.0493 -0.2560
 3112TIP3    H230752   5.174   6.095   1.329 -0.5469  1.1908 -0.2698
 3113TIP3   OH230753   3.644   4.769   2.255  0.2650  0.0543 -0.0987
 3113TIP3    H130754   3.566   4.819   2.234  0.2878 -0.1656 -0.7429
 3113TIP3    H230755   3.716   4.819   2.216  0.4685  0.3249  0.6022
 3114TIP3   OH230756   2.038   5.854   2.128 -0.2965  0.2725 -0.0660
 3114TIP3    H130757   1.962   5.796   2.122  0.2360 -0.4461  0.0229
 3114TIP3    H230758   2.102   5.815   2.069 -0.4656  1.6281 -1.1954
 3115TIP3   OH230759   4.917   4.620  13.513  0.2127 -0.1115  0.1008
 3115TIP3    H130760   4.959   4.637  13.597  0.2553  0.4235 -0.0243
 3115TIP3    H230761   4.918   4.705  13.468  0.9035 -0.5599 -0.7603
 3116TIP3   OH230762   1.175   0.856  16.502 -0.2518 -0.1045  0.1918
 3116TIP3    H130763   1.081   0.864  16.484 -0.0638 -0.3026 -0.9967
 3116TIP3    H230764   1.198   0.769  16.469  0.6797  0.6298 -1.2065
 3117TIP3   OH230765   4.441   1.650  10.807 -0.0519 -0.5168 -0.7554
 3117TIP3    H130766   4.440   1.746  10.807 -1.5444 -0.4222  2.2109
 3117TIP3    H230767   4.364   1.625  10.756  1.8991 -0.3353 -4.0426
 3118TIP3   OH230768   1.704   3.889  12.386  0.1277 -0.1048 -0.1920
 3118TIP3    H130769   1.767   3.852  12.324  1.1095  1.5138 -0.2115
 3118TIP3    H230770   1.672   3.814  12.435  0.7294 -1.1882 -1.3985
 3119TIP3   OH230771   1.648   0.876  15.527  0.6179 -0.0370 -0.0252
 3119TIP3    H130772   1.584   0.882  15.599  1.0425  1.4431  0.2594
 3119TIP3    H230773   1.595   0.876  15.448  0.1721 -1.0506  0.2608
 3120TIP3   OH230774   5.925   1.715   5.701 -0.2848  0.1698 -0.1947
 3120TIP3    H130775   5.892   1.640   5.749  0.0050  0.0687 -0.1497
 3120TIP3    H230776   5.939   1.684   5.612 -0.5105  0.2681 -0.2641
 3121TIP3   OH230777   4.388   1.694   4.424  0.5039 -0.4831  0.2918
 3121TIP3    H130778   4.361   1.603   4.411 -0.0164 -0.4555  1.1000
 3121TIP3    H230779   4.387   1.733   4.336 -1.9150 -0.5533  0.2246
 3122TIP3   OH230780   0.083   0.257   0.935 -0.1194 -0.3669  0.3302
 3122TIP3    H130781  -0.011   0.268   0.924 -0.0451  1.0843  0.9257
 3122TIP3    H230782   0.103   0.299   1.019  1.1961  0.2980 -0.2684
 3123TIP3   OH230783   5.146   5.606  15.308 -0.1886  0.0664 -0.0153
 3123TIP3    H130784   5.196   5.533  15.343 -0.5436 -1.2492 -2.0803
 3123TIP3    H230785   5.212   5.674  15.289  0.2455 -0.0176  1.1321
 3124TIP3   OH230786   0.093   5.206  16.756 -0.0980 -0.0063  0.4033
 3124TIP3    H130787   0.071   5.194  16.664 -1.4813  0.7983  0.6014
 3124TIP3    H230788   0.185   5.233  16.755 -0.1942  0.3349 -0.7750
 3125TIP3   OH230789   6.660   2.752  14.905  0.1113  0.5090  0.1172
 3125TIP3    H130790   6.627   2.808  14.976  0.7842  1.0134  0.0503
 3125TIP3    H230791   6.630   2.664  14.927 -2.8755  1.1616 -0.9175
 3126TIP3   OH230792   3.570   2.478  10.522  0.4465  0.2230  0.1535
 3126TIP3    H130793   3.493   2.436  10.484  0.7883  0.7686 -1.2078
 3126TIP3    H230794   3.548   2.571  10.526  0.5488  0.2178  0.9917
 3127TIP3   OH230795   2.038   5.608  13.747  0.3784  0.3939  0.1072
 3127TIP3    H130796   1.980   5.678  13.717 -0.2476  0.0002  0.3587
 3127TIP3    H230797   2.112   5.653  13.786  0.6795  0.9096 -1.0215
 3128TIP3   OH230798   3.036   0.361   4.724 -0.0199 -0.6554  0.0519
 3128TIP3    H130799   2.968   0.360   4.791 -0.7153 -1.8148 -0.6486
 3128TIP3    H230800   3.003   0.423   4.658 -0.3318 -1.0944 -0.2098
 3129TIP3   OH230801   5.311   3.032  12.217  0.3782  0.2517 -0.0815
 3129TIP3    H130802   5.350   2.964  12.161 -0.0320  1.0586 -1.4035
 3129TIP3    H230803   5.236   3.064  12.166  0.4989  1.6049  0.5645
 3130TIP3   OH230804   4.484   4.869   5.556 -0.8915 -0.5284 -0.3986
 3130TIP3    H130805   4.440   4.787   5.534 -1.1429 -0.5417  0.1422
 3130TIP3    H230806   4.551   4.845   5.620 -1.5527 -0.1938  0.4394
 3131TIP3   OH230807   1.992   5.165  11.509 -0.3732 -0.1027 -0.2763
 3131TIP3    H130808   2.058   5.097  11.517  0.4882  0.8213  0.8997
 3131TIP3    H230809   2.042   5.247  11.505 -1.4349  0.6893  1.5099
 3132TIP3   OH230810   2.674   3.521   5.252  0.0883  0.1928  0.0341
 3132TIP3    H130811   2.696   3.475   5.171 -0.4658  1.1042 -0.6711
 3132TIP3    H230812   2.612   3.464   5.297  0.5447 -0.4064 -0.0881
 3133TIP3   OH230813   5.862   2.785  11.499 -0.1785  0.7496  0.4504
 3133TIP3    H130814   5.922   2.840  11.450 -1.6434  0.7207 -1.5054
 3133TIP3    H230815   5.913   2.708  11.523  0.4717  0.5384 -1.4998
 3134TIP3   OH230816   1.111   2.978  15.749 -0.3944  0.6028 -0.2461
 3134TIP3    H130817   1.190   2.981  15.803  1.6205 -0.3197 -2.9363
 3134TIP3    H230818   1.093   3.070  15.727  0.2930  0.7756 -0.0998
 3135TIP3   OH230819   5.350   2.999  12.621 -0.2088 -0.1008  0.1981
 3135TIP3    H130820   5.361   2.994  12.716  0.4560 -1.1455  0.0909
 3135TIP3    H230821   5.343   2.907  12.593  0.0783  0.1705 -0.8029
 3136TIP3   OH230822   5.460   0.912   1.088  0.8781 -0.0325  0.2342
 3136TIP3    H130823   5.471   0.828   1.134  0.0002 -0.6524 -0.6451
 3136TIP3    H230824   5.540   0.961   1.108  2.0710 -1.6341 -0.3727
 3137TIP3   OH230825   2.424   0.662   5.066  0.1565 -0.0787  0.5134
 3137TIP3    H130826   2.416   0.573   5.031  0.6842 -0.4990  1.4119
 3137TIP3    H230827   2.476   0.708   5.000  2.2062 -1.1963  1.2492
 3138TIP3   OH230828   2.563   2.132  14.245 -0.4457  0.0343  0.0581
 3138TIP3    H130829   2.623   2.206  14.251 -0.1802 -0.0864 -0.9103
 3138TIP3    H230830   2.577   2.097  14.157  1.2316 -2.6829  1.2745
 3139TIP3   OH230831   4.957   0.078  10.917 -0.1612  0.2635 -0.2302
 3139TIP3    H130832   4.952   0.088  11.012 -1.5636 -0.5275 -0.1952
 3139TIP3    H230833   4.929  -0.012  10.901  1.4657 -0.0882 -1.3120
 3140TIP3   OH230834   6.074   1.654   2.487  0.4097 -0.2851  0.3779
 3140TIP3    H130835   6.166   1.679   2.502  0.6286 -1.4397  1.0670
 3140TIP3    H230836   6.078   1.592   2.414 -0.1183  1.4645 -1.2434
 3141TIP3   OH230837   6.113   3.565  10.623 -0.0177 -0.5164 -0.6679
 3141TIP3    H130838   6.194   3.514  10.615  0.0467 -0.6506  0.6350
 3141TIP3    H230839   6.137   3.654  10.597  0.2508 -0.8037 -1.4326
 3142TIP3   OH230840   2.818   3.661   0.509  0.1056  0.5402 -0.4536
 3142TIP3    H130841   2.827   3.726   0.580 -1.1015 -1.8896  2.1140
 3142TIP3    H230842   2.724   3.648   0.502  0.3427 -1.5398 -0.2401
 3143TIP3   OH230843   2.106   3.844  14.709  0.6638  0.0823 -0.1966
 3143TIP3    H130844   2.026   3.792  14.700  0.9288 -0.3441 -0.0942
 3143TIP3    H230845   2.085   3.910  14.775 -0.1023  0.9329 -1.2576
 3144TIP3   OH230846   2.273   1.100   2.057 -0.2004 -0.0812  0.6089
 3144TIP3    H130847   2.307   1.176   2.009 -1.2181 -0.6297 -1.1068
 3144TIP3    H230848   2.271   1.030   1.991 -1.6317 -0.8915  1.4623
 3145TIP3   OH230849   2.104   0.118  15.858  0.0158  0.0700 -0.2065
 3145TIP3    H130850   2.043   0.106  15.931 -2.6922 -1.6806 -2.5343
 3145TIP3    H230851   2.114   0.031  15.821  1.2763  0.9012 -1.9471
 3146TIP3   OH230852   2.369   6.501  15.581 -0.0673  0.2313  0.1601
 3146TIP3    H130853   2.463   6.505  15.565 -0.2291 -0.7915 -1.2702
 3146TIP3    H230854   2.346   6.589  15.610  1.4057  0.3402  1.1455
 3147TIP3   OH230855   3.357   0.473   3.682 -0.8467  0.1023 -0.0851
 3147TIP3    H130856   3.275   0.496   3.638 -0.9817 -0.6236 -0.2409
 3147TIP3    H230857   3.412   0.437   3.612 -0.5557  0.1913  0.0970
 3148TIP3   OH230858   5.744   4.887   4.878  0.6155 -0.1638 -0.0666
 3148TIP3    H130859   5.706   4.969   4.909  0.0292 -0.3392 -0.3064
 3148TIP3    H230860   5.830   4.912   4.844  1.5944 -0.0609  2.2690
 3149TIP3   OH230861   1.882   6.223  14.640 -0.0807 -0.1565  0.6868
 3149TIP3    H130862   1.801   6.264  14.669 -0.3613  1.0013 -1.5206
 3149TIP3    H230863   1.947   6.252  14.705 -0.9952  0.7615  1.2352
 3150TIP3   OH230864   3.617   4.796   0.016 -0.0891  0.0431  0.3315
 3150TIP3    H130865   3.613   4.796   0.111  4.0481  1.4386  0.6935
 3150TIP3    H230866   3.657   4.712  -0.007 -2.1376 -0.8190 -0.4027
 3151TIP3   OH230867   6.210   4.749  15.220 -0.4747 -0.2349 -0.2110
 3151TIP3    H130868   6.298   4.728  15.252 -0.1568 -0.8171 -1.3964
 3151TIP3    H230869   6.152   4.728  15.293  0.4355  1.1126  0.9525
 3152TIP3   OH230870   6.044   2.795   0.054  0.6143  0.4826  0.3647
 3152TIP3    H130871   6.098   2.747  -0.009 -1.5528  1.5685 -2.5516
 3152TIP3    H230872   6.101   2.867   0.083  1.1316  1.0850 -1.9139
 3153TIP3   OH230873   5.277   3.784  12.450  0.0325 -0.7314 -0.3151
 3153TIP3    H130874   5.208   3.837  12.489  0.6186 -0.9460  1.0933
 3153TIP3    H230875   5.236   3.741  12.375 -1.1905 -0.4076  0.1512
 3154TIP3   OH230876   6.598   4.858   2.150 -0.4811  0.6478  0.1251
 3154TIP3    H130877   6.506   4.834   2.154 -0.0444 -1.3247 -0.3465
 3154TIP3    H230878   6.621   4.850   2.058  0.4373 -0.1552  0.4044
 3155TIP3   OH230879   5.567   4.175  15.214 -0.0833  1.4329  0.1314
 3155TIP3    H130880   5.474   4.156  15.225  0.2786 -1.7495 -1.2161
 3155TIP3    H230881   5.569   4.258  15.167 -2.4093  0.3016 -2.2106
 3156TIP3   OH230882   5.129   0.639   1.301  0.0346  0.2535  0.4234
 3156TIP3    H130883   5.160   0.601   1.382 -1.8266  0.3078  1.2156
 3156TIP3    H230884   5.176   0.722   1.294  0.9513 -0.2088  0.9005
 3157TIP3   OH230885   3.089   2.228  15.038  0.3933 -0.1916 -0.6237
 3157TIP3    H130886   3.111   2.314  15.074 -2.2194 -0.4914  2.1338
 3157TIP3    H230887   3.086   2.242  14.943  0.3726  2.6932 -0.2963
 3158TIP3   OH230888   6.308   1.374  14.737  0.0968 -0.2996 -0.1549
 3158TIP3    H130889   6.282   1.297  14.788  0.4632  0.0881  0.6281
 3158TIP3    H230890   6.395   1.396  14.769 -1.0787  2.1337  1.6979
 3159TIP3   OH230891   3.442   5.908   2.712  0.0169 -0.3346  0.5552
 3159TIP3    H130892   3.420   5.995   2.745  0.5475 -0.7942  2.2039
 3159TIP3    H230893   3.476   5.924   2.624  0.2175  1.1416  0.8760
 3160TIP3   OH230894   2.006   0.676   1.986  0.0397  1.3562 -0.1049
 3160TIP3    H130895   1.912   0.683   1.975 -0.2476 -0.3190  0.9514
 3160TIP3    H230896   2.021   0.698   2.079  0.7124  1.7197 -0.2876
 3161TIP3   OH230897   4.975   0.319  15.537  0.4865  0.1836 -0.2272
 3161TIP3    H130898   5.037   0.277  15.597 -0.6671  0.3134  1.0898
 3161TIP3    H230899   5.011   0.302  15.450  1.1966 -1.6480  0.3851
 3162TIP3   OH230900   6.426   0.213  11.399  0.3417 -0.1195 -0.0653
 3162TIP3    H130901   6.452   0.302  11.375  0.9910 -0.2312  0.2068
 3162TIP3    H230902   6.386   0.178  11.319 -1.9613  1.1518  0.4412
 3163TIP3   OH230903   1.267   2.357   2.134  0.0755 -0.0090  0.5162
 3163TIP3    H130904   1.329   2.318   2.071 -0.1727 -1.6915  1.2570
 3163TIP3    H230905   1.229   2.431   2.087  0.0475 -1.0829 -1.2641
 3164TIP3   OH230906   4.481   4.012  14.746  0.2957 -0.6399  0.0258
 3164TIP3    H130907   4.417   4.048  14.684 -0.3965 -0.5366  0.7850
 3164TIP3    H230908   4.564   4.015  14.699 -0.1252 -0.0446 -0.6993
 3165TIP3   OH230909   5.439   0.214  14.944  0.3568 -0.2402  0.4230
 3165TIP3    H130910   5.522   0.193  14.986  1.2953 -0.4685 -1.4344
 3165TIP3    H230911   5.407   0.130  14.911 -0.7285 -0.1851  1.2921
 3166TIP3   OH230912   2.184   2.396  16.573 -0.2735 -0.3317 -0.3069
 3166TIP3    H130913   2.214   2.310  16.542  0.0139  0.3682 -2.0749
 3166TIP3    H230914   2.249   2.458  16.538 -0.4811  0.6185  0.9313
 3167TIP3   OH230915   1.721   5.369   1.542  0.4894  0.0635  0.4723
 3167TIP3    H130916   1.713   5.455   1.501 -1.4106  1.2270  2.9803
 3167TIP3    H230917   1.794   5.379   1.604  1.9182 -0.9912 -0.9619
 3168TIP3   OH230918   5.690   5.644  16.731 -0.6254 -0.1694  0.9413
 3168TIP3    H130919   5.682   5.728  16.777  2.2938 -0.0995  1.5044
 3168TIP3    H230920   5.750   5.593  16.785  0.0636 -1.4801 -0.9539
 3169TIP3   OH230921   3.300   6.512   6.579 -0.5173 -0.1309 -0.1749
 3169TIP3    H130922   3.346   6.591   6.551  0.4815 -1.5195 -2.7376
 3169TIP3    H230923   3.247   6.487   6.504 -0.1257 -2.3707  0.2335
 3170TIP3   OH230924   4.391   2.367  14.544  0.7915  0.2546 -0.1073
 3170TIP3    H130925   4.299   2.340  14.550  0.9228 -0.1974 -0.1163
 3170TIP3    H230926   4.441   2.286  14.553  1.2671  0.7067  1.8081
 3171TIP3   OH230927   1.789   0.447  12.881  0.4822  0.1189 -0.4631
 3171TIP3    H130928   1.839   0.434  12.962 -1.7079 -0.5377  0.8684
 3171TIP3    H230929   1.751   0.534  12.891  1.6041  0.7667 -1.6340
 3172TIP3   OH230930   4.392   6.514   5.309 -0.0292 -0.5173  0.0589
 3172TIP3    H130931   4.369   6.522   5.402 -1.9742  1.9274 -0.5090
 3172TIP3    H230932   4.476   6.559   5.301  0.7398 -1.7849  0.7893
 3173TIP3   OH230933   2.125   1.406   1.748 -0.2498 -0.4620  0.6667
 3173TIP3    H130934   2.168   1.333   1.704 -1.0205 -0.9052  0.6360
 3173TIP3    H230935   2.196   1.468   1.766  0.0926 -0.2409 -1.2107
 3174TIP3   OH230936   4.745   2.829   1.550  0.7491  0.5411  0.1808
 3174TIP3    H130937   4.805   2.903   1.539  0.3876  0.7527 -0.4329
 3174TIP3    H230938   4.685   2.857   1.620  0.5017  0.9127 -0.1716
 3175TIP3   OH230939   4.325   6.655  11.573  0.1502 -0.3960  0.3670
 3175TIP3    H130940   4.375   6.716  11.627  0.5299  0.5943 -1.0742
 3175TIP3    H230941   4.234   6.678  11.589  0.3039  1.6753 -1.3495
 3176TIP3   OH230942   4.275   1.322  12.563  0.1026  0.0794  0.4768
 3176TIP3    H130943   4.242   1.332  12.653  1.6429  1.7334  0.8967
 3176TIP3    H230944   4.294   1.411  12.534  1.9063 -0.6037 -0.6082
 3177TIP3   OH230945   0.066   4.716   0.650  0.5528  0.2689 -0.1626
 3177TIP3    H130946   0.093   4.627   0.671 -0.2922 -0.1400 -0.7796
 3177TIP3    H230947  -0.028   4.718   0.664  0.0212  0.1642 -3.0206
 3178TIP3   OH230948   1.062   4.922   6.349  0.3196  0.9130 -0.5915
 3178TIP3    H130949   1.079   4.850   6.410 -1.4750  0.9527 -0.0105
 3178TIP3    H230950   1.142   4.975   6.352  0.8299  0.1148  0.6162
 3179TIP3   OH230951   0.036   0.036  16.671  0.4884  0.6918  0.2447
 3179TIP3    H130952   0.078   0.114  16.635 -0.0544  0.8644 -0.0183
 3179TIP3    H230953   0.017   0.059  16.762 -1.4122  1.5980 -0.3286
 3180TIP3   OH230954   1.843   3.241  12.500 -0.2381 -0.3628 -0.9579
 3180TIP3    H130955   1.929   3.258  12.463  0.2462 -1.4180 -0.3351
 3180TIP3    H230956   1.859   3.182  12.573 -1.0553  2.2739  1.5309
 3181TIP3   OH230957   4.663   1.428   2.704  0.0891 -0.2832 -0.1981
 3181TIP3    H130958   4.630   1.402   2.790 -0.7948 -1.2809 -0.8120
 3181TIP3    H230959   4.709   1.350   2.672  0.8347  0.2458 -0.4332
 3182TIP3   OH230960   1.870   3.979  11.947 -0.1797  0.6635 -0.1379
 3182TIP3    H130961   1.905   4.061  11.981  1.1397  0.6243 -1.3126
 3182TIP3    H230962   1.813   4.005  11.875 -0.6122  0.5922  0.1750
 3183TIP3   OH230963   3.463   5.060  16.004 -0.9560  0.0127 -0.0480
 3183TIP3    H130964   3.462   5.156  16.003  0.4108  0.0845  1.1692
 3183TIP3    H230965   3.544   5.037  15.960 -1.2688 -0.5916 -0.3127
 3184TIP3   OH230966   1.465   5.297   1.462  0.4959 -0.2967 -0.1163
 3184TIP3    H130967   1.558   5.303   1.483  0.6762  0.8055 -1.1462
 3184TIP3    H230968   1.463   5.262   1.373 -0.1108 -1.0304  0.1738
 3185TIP3   OH230969   5.419   3.442  12.335 -0.4033 -0.1715  0.4759
 3185TIP3    H130970   5.386   3.355  12.356 -0.9822 -0.0028  0.2879
 3185TIP3    H230971   5.343   3.490  12.304  0.1989 -0.0557 -0.8981
 3186TIP3   OH230972   2.008   5.121   4.430 -0.8144  0.1212 -1.0712
 3186TIP3    H130973   1.929   5.067   4.425 -2.7346  2.6614 -0.2350
 3186TIP3    H230974   2.026   5.146   4.340  0.4640 -2.2458 -1.5569
 3187TIP3   OH230975   3.028   1.460  11.886 -0.1980  0.4073  0.3433
 3187TIP3    H130976   2.981   1.432  11.964  1.6367  0.1747  1.4094
 3187TIP3    H230977   3.001   1.398  11.818 -0.1754 -0.7298  1.3415
 3188TIP3   OH230978   3.880   2.196   2.309 -0.1289 -0.2705 -0.2119
 3188TIP3    H130979   3.942   2.129   2.338  0.9593 -0.1211 -1.9977
 3188TIP3    H230980   3.802   2.148   2.284  1.1339 -1.1526 -2.8362
 3189TIP3   OH230981   0.069   0.481  14.937 -0.2796 -0.1531 -0.3859
 3189TIP3    H130982   0.035   0.399  14.901 -0.7018  0.3418 -1.1492
 3189TIP3    H230983   0.006   0.505  15.005  0.2825 -0.8645  0.4067
 3190TIP3   OH230984   0.443   6.498  17.144  0.3884 -0.3203 -0.3523
 3190TIP3    H130985   0.402   6.430  17.090  1.8649 -0.8391 -0.8704
 3190TIP3    H230986   0.520   6.455  17.182 -0.3864  0.1350  1.9065
 3191TIP3   OH230987   0.549   2.923  15.108  0.3423  0.1378  0.0057
 3191TIP3    H130988   0.616   2.989  15.126 -0.1045  0.2166  1.5792
 3191TIP3    H230989   0.589   2.865  15.043  1.6301  0.6252  0.3244
 3192TIP3   OH230990   2.064   4.360   6.132 -0.0485 -0.2256 -0.5087
 3192TIP3    H130991   2.128   4.384   6.198  0.9555 -0.7962 -1.2474
 3192TIP3    H230992   1.981   4.353   6.180  0.4142  0.6084  0.4411
 3193TIP3   OH230993   4.095   3.278   0.640  0.0630  0.2197 -0.1864
 3193TIP3    H130994   4.155   3.215   0.599  1.3379  0.9729  0.4634
 3193TIP3    H230995   4.102   3.356   0.586 -0.1604  0.3935  0.0343
 3194TIP3   OH230996   3.764   0.218   4.362 -0.1018  0.3521  0.6484
 3194TIP3    H130997   3.674   0.194   4.339  1.1206 -2.5397 -1.9170
 3194TIP3    H230998   3.780   0.174   4.446 -0.4823 -1.0819  0.0112
 3195TIP3   OH230999   2.551   2.115  12.178  0.0793 -0.3542 -0.3408
 3195TIP3    H131000   2.486   2.067  12.127 -1.0589 -0.7630  1.3932
 3195TIP3    H231001   2.501   2.156  12.249  1.7722 -1.2903  1.5060
 3196TIP3   OH231002   6.447   5.448  16.631  0.4169 -0.4837  0.0330
 3196TIP3    H131003   6.423   5.391  16.703  0.7518 -1.0092 -0.2643
 3196TIP3    H231004   6.424   5.536  16.661 -1.0854 -0.8750  0.0784
 3197TIP3   OH231005   5.071   1.386   1.011  0.0152  0.2187  0.0544
 3197TIP3    H131006   5.055   1.406   0.919 -0.0348 -0.6996 -0.1492
 3197TIP3    H231007   5.102   1.468   1.049 -0.6910  0.7980 -0.6051
 3198TIP3   OH231008   5.680   1.629   0.559 -0.4570 -0.1616 -0.6078
 3198TIP3    H131009   5.763   1.587   0.536 -0.0586 -0.1344  0.7355
 3198TIP3    H231010   5.705   1.713   0.596 -0.9747 -0.8139  1.3158
 3199TIP3   OH231011   4.130   1.521  11.082 -0.0294  0.5794 -0.3964
 3199TIP3    H131012   4.167   1.457  11.021  0.9122 -0.2095  0.9505
 3199TIP3    H231013   4.121   1.601  11.030  1.8385  0.2686 -1.2870
 3200TIP3   OH231014   2.448   4.688   3.067  0.6856 -0.1544  0.8214
 3200TIP3    H131015   2.417   4.652   2.984  2.2186  0.2037  0.0654
 3200TIP3    H231016   2.371   4.685   3.124 -0.0605 -1.6392 -0.1878
 3201TIP3   OH231017   6.336   2.178  12.734  0.0782 -0.2211  0.6041
 3201TIP3    H131018   6.244   2.205  12.732  0.1251 -0.0810  0.2904
 3201TIP3    H231019   6.368   2.206  12.820 -0.2035 -0.3814  0.7644
 3202TIP3   OH231020   3.099   1.789   0.971  0.0243  0.4084 -0.5686
 3202TIP3    H131021   3.034   1.853   0.940 -1.1349  0.5271  1.8591
 3202TIP3    H231022   3.049   1.709   0.984  0.1885  0.6420  1.8527
 3203TIP3   OH231023   2.259   4.998   1.598 -0.1957 -0.1643 -0.3812
 3203TIP3    H131024   2.352   5.009   1.616 -0.5442  2.7170  0.2816
 3203TIP3    H231025   2.255   4.933   1.528  2.3467 -0.0823 -0.6974
 3204TIP3   OH231026   0.812   3.511   2.638 -0.2169  0.1612 -0.1810
 3204TIP3    H131027   0.759   3.583   2.605  0.2731 -0.3996 -2.3716
 3204TIP3    H231028   0.755   3.435   2.635  0.1814 -0.1199 -0.9095
 3205TIP3   OH231029   0.514   5.475  14.000 -0.0687  0.4811  0.3382
 3205TIP3    H131030   0.466   5.512  13.926  0.1636  0.0066 -0.0550
 3205TIP3    H231031   0.481   5.523  14.076 -1.9219 -0.4976  0.2191
 3206TIP3   OH231032   0.343   3.462  11.945  0.2393 -0.1901  0.1189
 3206TIP3    H131033   0.407   3.472  12.014  0.0275  0.7589  0.1918
 3206TIP3    H231034   0.268   3.515  11.973 -0.4772 -1.0672 -0.0833
 3207TIP3   OH231035   0.027   3.642   3.761 -0.2122 -0.3139 -0.8497
 3207TIP3    H131036  -0.067   3.636   3.779  0.0901 -0.1814  1.0783
 3207TIP3    H231037   0.042   3.734   3.742 -0.4448 -0.3012 -0.9729
 3208TIP3   OH231038   1.974   3.671   3.335  0.0005  0.0041  0.2982
 3208TIP3    H131039   2.059   3.631   3.355  0.0421  0.7569  1.6945
 3208TIP3    H231040   1.931   3.607   3.278  1.4280 -0.4604 -0.3185
 3209TIP3   OH231041   0.007   5.789   5.177  0.5754  0.2142  0.4195
 3209TIP3    H131042   0.101   5.789   5.160  0.4534  1.1909 -0.3389
 3209TIP3    H231043  -0.001   5.819   5.267  1.0244 -0.9174  0.8631
 3210TIP3   OH231044   5.193   1.369   1.664 -0.5244 -0.5156 -0.3613
 3210TIP3    H131045   5.196   1.307   1.591  0.0274  0.7941 -1.5013
 3210TIP3    H231046   5.237   1.448   1.630 -0.1730  0.0966  1.4254
 3211TIP3   OH231047   5.826   2.554   1.461  0.3298  0.3869  0.2700
 3211TIP3    H131048   5.887   2.483   1.443  1.9839  1.9734 -0.6196
 3211TIP3    H231049   5.880   2.627   1.489 -1.2740  1.5246  0.5731
 3212TIP3   OH231050   2.552   2.245   5.608  0.4664 -0.5383 -0.1899
 3212TIP3    H131051   2.596   2.225   5.690  0.9802  2.5826  0.4254
 3212TIP3    H231052   2.622   2.262   5.545  0.2997  2.7161  0.3343
 3213TIP3   OH231053   5.460   3.453  16.627  0.5980  0.0353 -0.5164
 3213TIP3    H131054   5.373   3.441  16.587  1.1123 -0.3154 -1.5654
 3213TIP3    H231055   5.487   3.365  16.653 -0.0322  0.3378  1.3389
 3214TIP3   OH231056   5.120   3.512  14.911 -0.5946 -0.0478  0.5053
 3214TIP3    H131057   5.064   3.582  14.875 -0.9370 -1.5559 -2.2033
 3214TIP3    H231058   5.204   3.554  14.926 -1.2878  1.3481  0.6796
 3215TIP3   OH231059   5.085   6.112  16.984 -0.7436  0.7115  0.0628
 3215TIP3    H131060   5.091   6.133  17.077  0.6009 -0.1203  0.1902
 3215TIP3    H231061   4.993   6.089  16.970 -0.6509 -0.7156  1.5456
 3216TIP3   OH231062   0.230   3.886   3.151  0.5250 -0.2793  0.4191
 3216TIP3    H131063   0.191   3.949   3.212  2.4847 -0.8322  2.3371
 3216TIP3    H231064   0.323   3.886   3.171  0.7459 -3.1434 -0.1212
 3217TIP3   OH231065   4.438   5.555   2.865  0.2204 -0.2944 -0.3665
 3217TIP3    H131066   4.347   5.577   2.882  0.3905 -0.2799  0.6148
 3217TIP3    H231067   4.476   5.543   2.952  1.3685  0.5656 -0.7244
 3218TIP3   OH231068   3.504   6.586   2.235 -0.5194  0.5512  0.2246
 3218TIP3    H131069   3.508   6.681   2.226  0.5582  0.4272 -0.8432
 3218TIP3    H231070   3.545   6.568   2.319 -0.1696  0.9879  0.1483
 3219TIP3   OH231071   6.708   2.001  17.021  0.3596 -0.4019 -0.0813
 3219TIP3    H131072   6.688   1.964  17.107 -0.9220 -0.2853 -0.3095
 3219TIP3    H231073   6.802   2.022  17.025  0.1844  0.2414  1.5378
 3220TIP3   OH231074   5.962   5.572  14.785  0.2632 -0.2691 -0.0954
 3220TIP3    H131075   5.967   5.490  14.834  0.6807 -1.0279 -1.3673
 3220TIP3    H231076   5.987   5.640  14.849  0.1226 -1.1458  0.9102
 3221TIP3   OH231077   2.840   4.311   2.513  0.0126  0.1007 -0.3072
 3221TIP3    H131078   2.778   4.300   2.441 -0.5141  0.4192  0.0911
 3221TIP3    H231079   2.821   4.398   2.548  0.7087  0.2142 -0.1984
 3222TIP3   OH231080   5.988   3.770  12.027 -0.8144 -0.0992 -0.1809
 3222TIP3    H131081   5.991   3.698  11.964 -1.6341  1.0811 -1.6199
 3222TIP3    H231082   6.060   3.827  12.001 -0.7791  0.1010  0.3444
 3223TIP3   OH231083   1.983   4.270   2.606 -0.1214 -0.2308  0.1257
 3223TIP3    H131084   1.944   4.334   2.666  1.2074  0.5642  0.2006
 3223TIP3    H231085   1.993   4.191   2.659  0.3010  0.2142  0.7349
 3224TIP3   OH231086   6.551   0.602  15.461 -0.2979  0.2869 -0.0476
 3224TIP3    H131087   6.551   0.561  15.374  0.7425 -0.4666  0.2806
 3224TIP3    H231088   6.464   0.581  15.496 -0.9802  1.1726 -1.1457
 3225TIP3   OH231089   0.146   0.744   4.610 -0.5546  0.1846  0.0101
 3225TIP3    H131090   0.159   0.756   4.704  1.0147  1.9541 -0.3808
 3225TIP3    H231091   0.223   0.694   4.582 -0.2699  0.9270 -0.5511
 3226TIP3   OH231092   0.844   5.865   5.139  0.1048 -0.2087 -0.1090
 3226TIP3    H131093   0.831   5.773   5.161  1.4087 -0.4068 -0.0849
 3226TIP3    H231094   0.939   5.877   5.142 -0.0790  1.3521  0.7513
 3227TIP3   OH231095   1.116   1.360  11.269 -0.3382 -1.0316  0.1055
 3227TIP3    H131096   1.025   1.343  11.293 -1.2205  0.8162 -1.6844
 3227TIP3    H231097   1.123   1.329  11.179  0.2906  0.4494 -0.3711
 3228TIP3   OH231098   6.194   2.697   2.292  0.2410  0.0109  0.0369
 3228TIP3    H131099   6.169   2.744   2.213 -0.0088  2.1689  1.3289
 3228TIP3    H231100   6.285   2.669   2.276 -0.0200 -0.1745 -1.2281
 3229TIP3   OH231101   1.528   1.485  11.477 -0.8027  0.1714 -0.6682
 3229TIP3    H131102   1.438   1.509  11.500 -0.5443  0.2603  0.2840
 3229TIP3    H231103   1.542   1.401  11.520  0.1282  0.9683  0.6554
 3230TIP3   OH231104   1.211   1.770   4.295  0.3177 -0.1422  0.3624
 3230TIP3    H131105   1.237   1.702   4.233 -2.3558 -1.7941  0.8711
 3230TIP3    H231106   1.237   1.735   4.381 -0.9771 -0.5358  0.6167
 3231TIP3   OH231107   0.634   2.846   2.079  0.0595 -0.5935  0.1520
 3231TIP3    H131108   0.632   2.919   2.140  0.3699 -1.4855  1.2574
 3231TIP3    H231109   0.545   2.839   2.046 -0.2885 -0.5558  1.0625
 3232TIP3   OH231110   1.547   3.953  13.507  0.6196 -0.0637  0.2338
 3232TIP3    H131111   1.453   3.941  13.494 -0.6291  3.5345  3.7034
 3232TIP3    H231112   1.573   3.880  13.564  0.2293 -1.5999 -1.4853
 3233TIP3   OH231113   6.345   1.268   0.975  0.0543 -0.2048 -0.4337
 3233TIP3    H131114   6.430   1.311   0.967 -1.1816  2.4146 -0.5745
 3233TIP3    H231115   6.301   1.313   1.047 -0.9630 -2.0290  0.1690
 3234TIP3   OH231116   0.559   6.219  14.306 -0.2626  0.1491  0.4272
 3234TIP3    H131117   0.509   6.284  14.256 -0.2332  2.2310  2.8998
 3234TIP3    H231118   0.644   6.260  14.321  0.3504 -1.1623  0.6996
 3235TIP3   OH231119   6.441   4.817  14.878  0.3776  0.0877  0.0327
 3235TIP3    H131120   6.443   4.865  14.961 -0.4169  0.0448  0.0744
 3235TIP3    H231121   6.350   4.819  14.850  0.8999  1.8071 -1.8277
 3236TIP3   OH231122   0.489   1.255   0.808  0.2310  0.6999 -0.1455
 3236TIP3    H131123   0.484   1.228   0.900  3.3786 -1.1857 -0.3740
 3236TIP3    H231124   0.535   1.338   0.809  0.1324  0.7537 -0.0290
 3237TIP3   OH231125   3.451   5.389   2.912  0.0991 -0.2433  0.3059
 3237TIP3    H131126   3.528   5.394   2.855  0.9977  1.6140  1.5788
 3237TIP3    H231127   3.487   5.372   2.999 -0.9319  0.5038  0.8932
 3238TIP3   OH231128   3.745   6.519  12.417 -0.5576 -0.5555  0.3155
 3238TIP3    H131129   3.828   6.551  12.452 -0.7352 -0.7700  0.9513
 3238TIP3    H231130   3.769   6.472  12.337 -0.0520 -0.7347  0.5672
 3239TIP3   OH231131   3.901   1.278  14.363  0.3997  0.3628  0.1285
 3239TIP3    H131132   3.877   1.355  14.313  0.2638 -0.6717 -1.4941
 3239TIP3    H231133   3.819   1.233  14.380  0.5305  0.2906  0.6007
 3240TIP3   OH231134   5.423   5.395   3.002  0.2880 -0.0587  0.0953
 3240TIP3    H131135   5.358   5.462   2.984  2.2730  2.1778  0.8153
 3240TIP3    H231136   5.479   5.395   2.924 -0.7299 -2.3131 -0.7418
 3241TIP3   OH231137   2.457   4.527  12.983 -0.7432 -0.2332  0.2052
 3241TIP3    H131138   2.495   4.448  12.946  1.0659  0.8741 -0.4688
 3241TIP3    H231139   2.421   4.574  12.907 -2.1854 -0.5614  0.6480
 3242TIP3   OH231140   1.608   1.534  14.953  0.7517  0.3539  0.3979
 3242TIP3    H131141   1.703   1.536  14.966  0.8857 -0.4048 -0.3751
 3242TIP3    H231142   1.582   1.445  14.977  0.1360  0.7387  1.2031
 3243TIP3   OH231143   1.591   3.278  13.242 -0.0227  0.0157  0.5665
 3243TIP3    H131144   1.604   3.364  13.284  0.5168  0.5767 -0.7085
 3243TIP3    H231145   1.645   3.281  13.163 -1.1445 -0.9596 -0.2703
 3244TIP3   OH231146   0.008   4.651   3.113 -0.1621 -0.4873  0.2184
 3244TIP3    H131147   0.001   4.562   3.147 -1.7050  0.0618  1.4774
 3244TIP3    H231148   0.082   4.689   3.160  1.3170 -1.4268 -1.2303
 3245TIP3   OH231149   4.735   5.360   6.263  0.3113 -0.0736  0.6760
 3245TIP3    H131150   4.705   5.315   6.342 -1.2978 -0.9776 -0.3887
 3245TIP3    H231151   4.752   5.450   6.291 -0.3757 -0.3400  2.0184
 3246TIP3   OH231152   6.277   3.479  16.891 -0.2231  0.4571 -0.4634
 3246TIP3    H131153   6.341   3.454  16.956 -0.2948 -0.4331 -0.7197
 3246TIP3    H231154   6.296   3.571  16.872  1.3756  0.0451 -0.9978
 3247TIP3   OH231155   5.645   2.187  15.165  0.2299  0.6647 -0.0999
 3247TIP3    H131156   5.704   2.189  15.241 -0.4180 -3.9942  0.8106
 3247TIP3    H231157   5.563   2.153  15.199 -0.2898 -0.9672 -2.7047
 3248TIP3   OH231158   4.646   5.628   6.434  0.0772  0.5674 -0.4512
 3248TIP3    H131159   4.614   5.713   6.463  0.0385  1.1418 -2.0597
 3248TIP3    H231160   4.567   5.578   6.413  0.1249  0.6174 -0.7607
 3249TIP3   OH231161   3.529   6.268   3.105 -0.0012  0.3167 -0.2300
 3249TIP3    H131162   3.575   6.198   3.151  1.0306  1.3135  0.3155
 3249TIP3    H231163   3.541   6.248   3.012  0.8692  0.1176 -0.0864
 3250TIP3   OH231164   3.055   3.580  11.381 -0.2500 -0.1960 -0.7360
 3250TIP3    H131165   3.020   3.613  11.464  0.1123 -1.7454  0.0645
 3250TIP3    H231166   2.977   3.554  11.331 -0.4336  0.1347 -0.6238
 3251TIP3   OH231167   1.907   5.028   5.327 -0.7482  0.2039  0.1546
 3251TIP3    H131168   1.884   4.961   5.263  0.8469  0.8465 -1.1642
 3251TIP3    H231169   1.858   5.106   5.298 -1.4176  0.0372  0.7988
 3252TIP3   OH231170   5.769   2.902  11.192 -0.3895  0.4700 -0.3281
 3252TIP3    H131171   5.800   2.820  11.231 -1.0327  0.7598  0.8275
 3252TIP3    H231172   5.683   2.916  11.232  0.7301  3.0129  1.4514
 3253TIP3   OH231173   4.835   0.687   2.044  0.2982 -0.1218 -0.2732
 3253TIP3    H131174   4.806   0.631   2.115  0.7357  0.7044  0.5703
 3253TIP3    H231175   4.923   0.655   2.022  0.4279  0.0411  0.0078
 3254TIP3   OH231176   4.164   4.762   3.165 -0.1081 -0.6747  0.1864
 3254TIP3    H131177   4.188   4.694   3.102 -2.0166 -0.9630 -0.2812
 3254TIP3    H231178   4.185   4.725   3.251  0.1148 -1.3049 -0.1398
 3255TIP3   OH231179   2.886   5.071   5.597  0.1624 -0.0911 -0.1282
 3255TIP3    H131180   2.873   4.985   5.638  2.5260 -0.4680 -0.0216
 3255TIP3    H231181   2.981   5.077   5.585 -0.1289  1.6606 -2.0055
 3256TIP3   OH231182   1.019   2.949  11.748 -0.0109  0.0749 -0.0419
 3256TIP3    H131183   1.075   3.013  11.704  0.8200 -0.3654  0.3396
 3256TIP3    H231184   0.935   2.955  11.703 -0.8620  3.3968  1.7121
 3257TIP3   OH231185   4.249   1.417   4.998 -0.5389 -0.3843 -0.4211
 3257TIP3    H131186   4.256   1.401   4.904 -0.1429 -3.0057 -0.0207
 3257TIP3    H231187   4.340   1.418   5.029 -0.7083 -2.2341  0.2624
 3258TIP3   OH231188   1.245   5.054  13.669 -0.3087 -0.1576  0.2508
 3258TIP3    H131189   1.187   5.130  13.663 -0.2489 -0.1606 -0.3928
 3258TIP3    H231190   1.333   5.091  13.671 -0.2060 -0.2368 -1.3590
 3259TIP3   OH231191   0.187   1.907   4.835  0.5610 -0.5367 -0.1500
 3259TIP3    H131192   0.255   1.932   4.772 -0.0851  1.5287 -0.0675
 3259TIP3    H231193   0.219   1.939   4.919 -0.0305 -0.4843  0.0592
 3260TIP3   OH231194   3.198   5.516   2.767  0.0794 -0.2503  0.3920
 3260TIP3    H131195   3.220   5.432   2.806  1.3539 -0.6149 -1.0658
 3260TIP3    H231196   3.103   5.524   2.781 -0.1039 -2.0111  0.3509
 3261TIP3   OH231197   0.927   4.575  14.815  0.1177  0.0023  0.4989
 3261TIP3    H131198   0.994   4.610  14.875 -0.4646 -0.0963  1.2119
 3261TIP3    H231199   0.978   4.540  14.741  0.8520  0.0340  0.9740
 3262TIP3   OH231200   3.602   4.874   5.438  0.3862  0.2526 -0.0477
 3262TIP3    H131201   3.605   4.897   5.531 -0.5651 -0.0681  0.0717
 3262TIP3    H231202   3.509   4.876   5.416  0.6459  0.8851 -1.1384
 3263TIP3   OH231203   3.170   2.306   4.211  0.2379 -0.0747  0.4597
 3263TIP3    H131204   3.133   2.220   4.234 -0.4778  0.9948  3.8529
 3263TIP3    H231205   3.102   2.348   4.158 -0.8294 -0.4140  1.5151
 3264TIP3   OH231206   4.367   6.322  12.473 -0.1358 -0.1919  0.5195
 3264TIP3    H131207   4.427   6.259  12.433  0.8162 -0.2036  1.9121
 3264TIP3    H231208   4.401   6.335  12.561 -1.4487  0.7999  0.9078
 3265TIP3   OH231209   3.488   2.200  13.654 -0.1842 -0.5740  0.3889
 3265TIP3    H131210   3.430   2.263  13.611 -0.5592 -0.9389  0.3639
 3265TIP3    H231211   3.573   2.214  13.612 -0.3989 -0.4835 -0.0196
 3266TIP3   OH231212   2.297   4.535  13.192  0.1095  0.0057  0.8105
 3266TIP3    H131213   2.310   4.440  13.202  0.1357 -0.2111 -1.0163
 3266TIP3    H231214   2.360   4.561  13.126 -2.5828  0.5083 -1.7940
 3267TIP3   OH231215   5.659   5.810  14.657  0.1673 -0.5831 -0.0676
 3267TIP3    H131216   5.745   5.846  14.675  0.3607 -1.7530  1.4651
 3267TIP3    H231217   5.598   5.878  14.685  0.5570 -0.0639 -0.4532
 3268TIP3   OH231218   6.239   5.374   0.408  0.1293 -0.0317  0.6722
 3268TIP3    H131219   6.325   5.410   0.431 -0.2941  0.8911  0.8380
 3268TIP3    H231220   6.258   5.306   0.344  0.8894  1.1736 -0.4426
 3269TIP3   OH231221   1.084   5.429  15.067 -0.0879 -0.5412 -0.6613
 3269TIP3    H131222   1.034   5.508  15.046 -1.7933 -0.1459  3.7288
 3269TIP3    H231223   1.028   5.357  15.038 -0.6748 -0.1095 -0.6199
 3270TIP3   OH231224   0.453   1.019   3.830  0.0380  0.4392  0.2649
 3270TIP3    H131225   0.540   1.043   3.863  0.3298 -0.7018  0.3769
 3270TIP3    H231226   0.395   1.087   3.863  0.8326  1.0385  0.4713
 3271TIP3   OH231227   1.454   4.376  13.773  0.1769 -0.2768 -0.1939
 3271TIP3    H131228   1.512   4.398  13.701  1.3280  0.1373  0.8305
 3271TIP3    H231229   1.512   4.346  13.843 -0.9973 -1.9271  0.1439
 3272TIP3   OH231230   0.325   4.356  17.035  0.6816  0.6308 -0.2841
 3272TIP3    H131231   0.301   4.275  17.080  1.5813  0.4602 -0.0937
 3272TIP3    H231232   0.297   4.426  17.095  1.2428  0.4200  0.2258
 3273TIP3   OH231233   6.524   1.103  13.432 -0.2775 -0.7894 -0.2768
 3273TIP3    H131234   6.619   1.096  13.438 -0.1710  0.9655  0.5613
 3273TIP3    H231235   6.492   1.064  13.513 -0.0841  1.2342  0.8253
 3274TIP3   OH231236   1.739   0.591  15.511 -0.6682 -0.5984 -0.0713
 3274TIP3    H131237   1.656   0.623  15.474 -1.4417 -1.5105  0.8299
 3274TIP3    H231238   1.719   0.502  15.541 -0.1439  0.1020  2.6304
 3275TIP3   OH231239   0.993   3.469   0.396  0.1712  0.2128  0.2979
 3275TIP3    H131240   0.926   3.526   0.433  0.8367  1.5835 -0.5279
 3275TIP3    H231241   0.957   3.381   0.406 -0.5044  0.6679  2.4119
 3276TIP3   OH231242   0.703   4.930   2.241 -0.2354 -0.1036  0.2792
 3276TIP3    H131243   0.702   4.843   2.281 -0.5861 -0.9876 -1.5482
 3276TIP3    H231244   0.791   4.964   2.261  0.7634 -1.8349 -0.8596
 3277TIP3   OH231245   1.086   4.833   5.769 -0.0063  0.1291 -0.6611
 3277TIP3    H131246   1.024   4.853   5.699 -0.3602  0.6929 -0.1994
 3277TIP3    H231247   1.050   4.877   5.846  0.6374 -0.0654 -0.2383
 3278TIP3   OH231248   5.345   2.123  13.853 -0.0875  0.3640 -0.6635
 3278TIP3    H131249   5.308   2.043  13.815  0.8844  0.0269 -0.9331
 3278TIP3    H231250   5.373   2.175  13.777  0.9103  0.1538 -0.4527
 3279TIP3   OH231251   2.233   0.299  14.771  0.5943  0.0806 -0.2013
 3279TIP3    H131252   2.291   0.229  14.801  0.2752  0.0350  0.3393
 3279TIP3    H231253   2.239   0.297  14.676  1.8198  0.3698 -0.1545
 3280TIP3   OH231254   1.102   0.171  15.939  0.6526  0.3426  0.4920
 3280TIP3    H131255   1.057   0.244  15.981  0.3995 -0.7147  2.1309
 3280TIP3    H231256   1.035   0.103  15.931  0.4735  0.6979 -2.3368
 3281TIP3   OH231257   0.338   1.754  11.328  0.7365  0.5074 -0.1152
 3281TIP3    H131258   0.427   1.769  11.294  0.6766  0.6831 -0.1952
 3281TIP3    H231259   0.321   1.661  11.310  1.2627  0.2316  0.7470
 3282TIP3   OH231260   2.981   5.924   4.268 -0.0411  0.6238  0.1091
 3282TIP3    H131261   2.936   5.873   4.200 -1.1347 -1.0001  1.9323
 3282TIP3    H231262   2.920   5.995   4.288 -1.3147 -0.8055  1.6309
 3283TIP3   OH231263   5.237   0.684   5.474 -0.0863  0.2455 -0.0800
 3283TIP3    H131264   5.273   0.684   5.385 -0.8449  3.8462 -0.5604
 3283TIP3    H231265   5.312   0.705   5.529  0.7133 -3.4288  0.4915
 3284TIP3   OH231266   6.081   0.395  14.284  0.1278 -0.8888 -0.1034
 3284TIP3    H131267   6.047   0.409  14.196  0.6073 -0.8107 -0.2731
 3284TIP3    H231268   6.169   0.362  14.271  1.1862  1.5617  0.3640
 3285TIP3   OH231269   1.199   2.570  12.402 -0.6798 -0.0937  0.1482
 3285TIP3    H131270   1.142   2.558  12.479 -1.9758  0.1064 -0.7536
 3285TIP3    H231271   1.149   2.625  12.343  2.0647  3.5855  0.9285
 3286TIP3   OH231272   3.995   5.319  11.817 -0.6283  0.3643  0.0471
 3286TIP3    H131273   4.022   5.232  11.788 -0.1233  0.5077  0.0731
 3286TIP3    H231274   3.903   5.310  11.839 -0.9200  0.1375 -1.1789
 3287TIP3   OH231275   0.355   4.473  12.178  0.2509 -0.2168 -0.0126
 3287TIP3    H131276   0.401   4.483  12.095 -1.5334 -0.6349 -1.1080
 3287TIP3    H231277   0.273   4.521  12.166  0.4811  0.7956  1.9842
 3288TIP3   OH231278   6.692   2.824  15.886  0.2682 -0.0885  1.0115
 3288TIP3    H131279   6.777   2.812  15.844 -0.1617 -1.2735  0.4359
 3288TIP3    H231280   6.637   2.756  15.848 -1.4448  1.7446  0.0705
 3289TIP3   OH231281   5.278   6.676   0.065  0.0438  0.0607  0.4022
 3289TIP3    H131282   5.260   6.761   0.026  1.1393  1.6607  3.0639
 3289TIP3    H231283   5.365   6.652   0.032 -1.0005 -1.0411 -1.7919
 3290TIP3   OH231284   1.270   2.558  17.009  0.5623 -0.1511 -0.2209
 3290TIP3    H131285   1.299   2.647  16.985  4.2785 -0.5420  2.0793
 3290TIP3    H231286   1.275   2.509  16.927  0.4883  1.2715 -1.1226
 3291TIP3   OH231287   2.710   0.728   1.611  0.1177  0.0863 -0.1144
 3291TIP3    H131288   2.703   0.751   1.704  0.8946 -0.4139  0.0853
 3291TIP3    H231289   2.736   0.636   1.612 -0.2868 -0.0412 -0.8418
 3292TIP3   OH231290   0.667   2.787  12.513 -0.3974  0.0032 -0.1610
 3292TIP3    H131291   0.637   2.863  12.464  1.2980  0.1873 -0.9958
 3292TIP3    H231292   0.608   2.782  12.589 -0.6749  2.0141 -0.1853
 3293TIP3   OH231293   1.110   5.202   4.850 -0.1575  0.2397  0.0119
 3293TIP3    H131294   1.039   5.225   4.909 -0.1525  0.8671 -0.2192
 3293TIP3    H231295   1.067   5.161   4.775 -0.0927 -1.4258  0.8460
 3294TIP3   OH231296   6.282   5.863   1.501 -0.6505 -0.6276 -0.3494
 3294TIP3    H131297   6.366   5.909   1.511 -1.5858  1.1011 -0.0162
 3294TIP3    H231298   6.223   5.909   1.561 -1.8586 -1.7704 -0.6260
 3295TIP3   OH231299   3.828   1.797   0.297  0.0476  0.3585  0.3041
 3295TIP3    H131300   3.757   1.733   0.305 -1.9530  2.4625  0.6138
 3295TIP3    H231301   3.841   1.829   0.386  1.7346 -0.2898  0.3178
 3296TIP3   OH231302   0.829   1.731   2.050 -0.3546  0.1595 -0.3757
 3296TIP3    H131303   0.838   1.641   2.018  1.4788  0.2430 -0.1833
 3296TIP3    H231304   0.789   1.722   2.137  2.1481 -0.7182  0.7705
 3297TIP3   OH231305   1.617   5.866  16.687 -0.2463 -0.5748 -0.1693
 3297TIP3    H131306   1.547   5.929  16.667  0.2319 -0.1151 -0.4470
 3297TIP3    H231307   1.576   5.801  16.743 -0.9026 -0.3211 -0.3446
 3298TIP3   OH231308   2.153   0.814  12.669  0.1493 -0.1226 -0.1593
 3298TIP3    H131309   2.192   0.878  12.728  1.1992 -1.6752  0.9156
 3298TIP3    H231310   2.142   0.861  12.586  2.3343  1.0143  0.1225
 3299TIP3   OH231311   1.052   6.478  12.982  0.1807 -0.0922 -0.2985
 3299TIP3    H131312   1.045   6.558  12.930  0.0166 -0.3601 -0.6989
 3299TIP3    H231313   1.071   6.508  13.071  1.8656  0.3157 -0.7602
 3300TIP3   OH231314   4.954   1.090  14.392  0.5864 -0.0492 -0.6009
 3300TIP3    H131315   5.029   1.110  14.337  0.8302 -0.1438 -0.3017
 3300TIP3    H231316   4.888   1.156  14.368  1.1086  0.6419 -0.1724
 3301TIP3   OH231317   5.961   5.089   5.323 -0.1699 -0.6323  0.8884
 3301TIP3    H131318   5.955   4.994   5.318 -1.1240 -0.5799  0.9111
 3301TIP3    H231319   5.996   5.115   5.237  0.5537 -1.0240  1.0526
 3302TIP3   OH231320   0.060   6.411  11.878  0.5087  0.3480  0.0278
 3302TIP3    H131321  -0.013   6.474  11.874 -0.4134 -0.4249  2.6300
 3302TIP3    H231322   0.138   6.466  11.890  0.5031  1.2013 -2.9852
 3303TIP3   OH231323   0.354   4.618  10.574  0.4953 -0.5507 -0.0773
 3303TIP3    H131324   0.434   4.605  10.626 -0.6941 -3.2726  1.2922
 3303TIP3    H231325   0.377   4.586  10.487  2.1120  2.8213 -1.0550
 3304TIP3   OH231326   2.400   3.888   2.105 -0.0810 -0.7939  0.3757
 3304TIP3    H131327   2.436   3.911   2.190  1.1812  0.0044 -0.3399
 3304TIP3    H231328   2.430   3.958   2.046 -1.2774 -1.0923 -0.6488
 3305TIP3   OH231329   3.311   2.580  11.039  0.9173  0.3301  0.5308
 3305TIP3    H131330   3.227   2.549  11.074 -0.5045  0.9053 -2.1522
 3305TIP3    H231331   3.325   2.527  10.961  2.0002  1.6773 -0.2225
 3306TIP3   OH231332   5.481   3.839   5.233  0.1708  0.2769 -0.6684
 3306TIP3    H131333   5.549   3.906   5.239  1.6233 -1.1172 -0.9214
 3306TIP3    H231334   5.501   3.777   5.303  0.0512 -0.9278 -1.6490
 3307TIP3   OH231335   6.692   6.479  15.416 -0.1833 -0.2947 -0.2799
 3307TIP3    H131336   6.601   6.455  15.433 -0.5886  1.0876 -0.3711
 3307TIP3    H231337   6.725   6.508  15.501  0.5288 -1.7851 -0.0047
 3308TIP3   OH231338   3.908   3.466   1.496 -0.5414 -0.2726  0.5148
 3308TIP3    H131339   3.917   3.403   1.425 -2.3047 -1.5169  1.3276
 3308TIP3    H231340   3.946   3.422   1.572  0.0653  0.4901  0.6760
 3309TIP3   OH231341   5.321   2.589  14.540 -0.1607 -0.2245  0.1887
 3309TIP3    H131342   5.236   2.615  14.505  0.7719  2.3284 -0.3907
 3309TIP3    H231343   5.377   2.582  14.463  0.7137  0.4981  0.7409
 3310TIP3   OH231344   4.103   6.747  13.017 -0.6361  0.4020 -0.1360
 3310TIP3    H131345   4.074   6.823  13.069 -1.1733  0.1676 -0.0887
 3310TIP3    H231346   4.198   6.758  13.010 -0.7718  1.3611 -0.5751
 3311TIP3   OH231347   3.355   0.460  15.911 -0.5002  0.0027  0.1835
 3311TIP3    H131348   3.263   0.445  15.887 -0.3211 -0.0666 -0.5017
 3311TIP3    H231349   3.352   0.496  15.999 -1.1466 -0.6988  0.4528
 3312TIP3   OH231350   4.587   2.705   5.997 -0.2612  0.3745  0.0242
 3312TIP3    H131351   4.604   2.612   5.986  2.3653  0.8320 -0.3101
 3312TIP3    H231352   4.517   2.724   5.933 -0.9897 -1.3603  0.2539
 3313TIP3   OH231353   4.724   4.298   1.120  0.3025  0.3353  0.1919
 3313TIP3    H131354   4.776   4.242   1.179 -0.1902 -1.4053 -0.9490
 3313TIP3    H231355   4.695   4.370   1.175  1.3918 -0.2613  1.6177
 3314TIP3   OH231356   4.422   6.137  14.537 -0.0249 -0.0822  0.0480
 3314TIP3    H131357   4.403   6.044  14.546 -0.0226  0.1265  3.0632
 3314TIP3    H231358   4.515   6.141  14.516 -0.1305 -0.7615 -0.5639
 3315TIP3   OH231359   5.259   2.854   5.132  0.2260  0.5700  0.4465
 3315TIP3    H131360   5.252   2.906   5.051  0.8854 -0.1485 -0.0892
 3315TIP3    H231361   5.312   2.908   5.191  1.4268  0.2882 -0.3235
 3316TIP3   OH231362   0.742   4.440  12.286 -0.4132 -0.0514 -0.1653
 3316TIP3    H131363   0.757   4.346  12.281  1.9405  0.3414 -2.3928
 3316TIP3    H231364   0.746   4.470  12.195 -0.9575  2.2305  0.4972
 3317TIP3   OH231365   4.892   2.584  14.902  0.3850 -0.0090  0.0411
 3317TIP3    H131366   4.920   2.509  14.848  0.5569  0.8379 -1.0883
 3317TIP3    H231367   4.973   2.633  14.918  0.1766  0.2820  0.2045
 3318TIP3   OH231368   4.774   1.339  14.354 -0.1533 -0.0157 -0.4455
 3318TIP3    H131369   4.699   1.321  14.297  0.3238  1.3003 -1.5406
 3318TIP3    H231370   4.735   1.379  14.432 -0.6377  0.0817 -0.7318
 3319TIP3   OH231371   0.779   1.569  14.598 -0.3833  0.2962  0.2004
 3319TIP3    H131372   0.790   1.535  14.510  1.3374  2.0811 -0.3455
 3319TIP3    H231373   0.690   1.602  14.601 -0.3465  0.5188 -0.9979
 3320TIP3   OH231374   6.422   6.712   4.390  0.3721 -0.3943  0.4248
 3320TIP3    H131375   6.471   6.787   4.422  0.3011 -0.5817  0.9798
 3320TIP3    H231376   6.376   6.678   4.467  3.2630 -3.2444  1.1613
 3321TIP3   OH231377   4.683   1.173  16.607 -0.1757  0.9372 -0.2561
 3321TIP3    H131378   4.717   1.199  16.521  0.3367  0.6433 -0.1482
 3321TIP3    H231379   4.605   1.227  16.620  0.5272  1.9893 -0.2920
 3322TIP3   OH231380   6.158   6.256   0.262  0.3295 -0.4825  0.2516
 3322TIP3    H131381   6.250   6.233   0.277  0.1677 -1.9465 -0.8127
 3322TIP3    H231382   6.110   6.176   0.284 -0.7610  0.4238  1.3046
 3323TIP3   OH231383   0.560   3.162  11.277  0.5201  0.1174 -0.1416
 3323TIP3    H131384   0.541   3.233  11.215  0.9850  0.9017  0.5906
 3323TIP3    H231385   0.618   3.103  11.228 -1.3929 -0.8102 -1.4114
 3324TIP3   OH231386   1.144   0.908  17.186 -0.2379 -0.1455  0.3153
 3324TIP3    H131387   1.063   0.869  17.155  1.0701 -2.2995 -0.5904
 3324TIP3    H231388   1.205   0.835  17.194  1.3589  1.2587  1.9079
 3325TIP3   OH231389   3.496   0.930  16.509  0.9662  0.2296  0.0729
 3325TIP3    H131390   3.433   0.860  16.493  0.2249  0.4095  1.9323
 3325TIP3    H231391   3.578   0.897  16.472 -0.1974  0.0465 -2.5066
 3326TIP3   OH231392   0.459   2.586  14.759 -0.1058  0.5376 -0.8929
 3326TIP3    H131393   0.488   2.660  14.814 -1.0517 -0.9351  1.8108
 3326TIP3    H231394   0.368   2.572  14.785 -0.0114 -1.4270 -1.4887
 3327TIP3   OH231395   3.274   3.468   5.532 -0.4430  0.2962 -0.3261
 3327TIP3    H131396   3.310   3.430   5.452  0.5332  1.4608 -0.4607
 3327TIP3    H231397   3.341   3.529   5.562  0.3866 -1.8667  2.7722
 3328TIP3   OH231398   5.150   0.121  12.703 -0.3793 -0.4602  0.5868
 3328TIP3    H131399   5.148   0.154  12.793  1.2901  1.4954 -0.0402
 3328TIP3    H231400   5.172   0.028  12.713 -0.3704 -0.3164  2.2034
 3329TIP3   OH231401   4.464   6.265   4.165  0.0626  0.1278  0.0149
 3329TIP3    H131402   4.549   6.252   4.207 -0.0229  0.0189  0.1561
 3329TIP3    H231403   4.479   6.241   4.073  1.0066  3.1760 -0.7317
 3330TIP3   OH231404   1.179   1.904   0.728 -0.1387  0.2764  0.4908
 3330TIP3    H131405   1.140   1.884   0.642 -0.5967 -0.4930  0.8658
 3330TIP3    H231406   1.163   1.825   0.780  0.9365  0.3847  1.0096
 3331TIP3   OH231407   1.267   5.473  16.804 -0.0422 -0.6560 -0.3623
 3331TIP3    H131408   1.315   5.459  16.885  0.4223 -0.9094 -0.6795
 3331TIP3    H231409   1.325   5.442  16.735  0.1154  0.7669 -0.9083
 3332TIP3   OH231410   0.011   1.270   2.310 -0.5093  0.5176  0.2183
 3332TIP3    H131411   0.074   1.199   2.298 -0.7925 -0.1004  2.0981
 3332TIP3    H231412  -0.047   1.263   2.233 -1.8721 -2.7610  1.3417
 3333TIP3   OH231413   3.606   3.564   0.693 -0.1707  0.2460  0.3964
 3333TIP3    H131414   3.692   3.527   0.712 -0.9298 -1.0722  1.4128
 3333TIP3    H231415   3.583   3.526   0.608  0.1549  0.4309  0.2236
 3334TIP3   OH231416   3.206   1.095   0.881 -0.4679 -0.4257 -0.0666
 3334TIP3    H131417   3.158   1.159   0.828 -0.5624 -1.2180 -0.9741
 3334TIP3    H231418   3.139   1.048   0.930 -0.6746 -1.6497 -1.4649
 3335TIP3   OH231419   5.123   5.834  15.927 -0.2396  0.0961  0.4092
 3335TIP3    H131420   5.106   5.744  15.953 -1.7256  0.4272  0.6441
 3335TIP3    H231421   5.147   5.828  15.835  0.5706 -0.6100  0.6443
 3336TIP3   OH231422   4.092   2.163   3.558 -0.2290  0.1704 -0.0245
 3336TIP3    H131423   4.095   2.147   3.464  0.0992 -1.4094  0.2244
 3336TIP3    H231424   4.017   2.113   3.589  0.3118 -0.2288  0.6866
 3337TIP3   OH231425   6.648   6.152   6.528  0.4044 -0.0271  0.2455
 3337TIP3    H131426   6.629   6.230   6.580  1.1500  0.1588  0.2578
 3337TIP3    H231427   6.572   6.140   6.472  0.9240  1.6156 -0.8681
 3338TIP3   OH231428   0.328   1.463  15.540  0.7029  0.5385  0.3435
 3338TIP3    H131429   0.235   1.486  15.534  0.3155 -0.2821  2.1772
 3338TIP3    H231430   0.330   1.369  15.518  1.0219  0.4474  0.7544
 3339TIP3   OH231431   5.551   5.418   5.223 -0.4801  0.4556 -0.1614
 3339TIP3    H131432   5.637   5.377   5.213 -0.2083  0.9392  0.1172
 3339TIP3    H231433   5.489   5.346   5.217 -0.1713  0.3163 -2.0927
 3340TIP3   OH231434   0.502   2.763   2.906  0.1173 -0.2403 -0.0811
 3340TIP3    H131435   0.518   2.713   2.986 -0.6767  1.5977  1.2985
 3340TIP3    H231436   0.578   2.821   2.898  0.5821 -0.9659 -1.1390
 3341TIP3   OH231437   6.548   1.752   4.187 -0.6928 -0.1528 -0.2714
 3341TIP3    H131438   6.641   1.732   4.180  0.3994  3.6775  0.7915
 3341TIP3    H231439   6.530   1.809   4.112 -2.4435 -1.4751 -0.9174
 3342TIP3   OH231440   4.587   3.303   1.742  0.4189 -0.3349  0.1298
 3342TIP3    H131441   4.555   3.293   1.652 -0.0631 -0.2123  0.2872
 3342TIP3    H231442   4.663   3.360   1.734  0.1029  0.0525 -0.1485
 3343TIP3   OH231443   2.900   1.284   4.959 -0.2852  0.3818 -0.6729
 3343TIP3    H131444   2.991   1.301   4.936  0.0215  0.9049  0.8348
 3343TIP3    H231445   2.860   1.255   4.877  0.9091  1.4246 -1.6696
 3344TIP3   OH231446   1.925   1.814  15.858 -0.3475 -0.1970  0.3678
 3344TIP3    H131447   1.978   1.826  15.779 -2.8630  2.1926 -1.1483
 3344TIP3    H231448   1.913   1.720  15.865  1.5626 -0.5904 -0.9476
 3345TIP3   OH231449   6.560   5.187  16.794  0.4130  0.2486  0.6130
 3345TIP3    H131450   6.549   5.163  16.886 -0.4624  0.0677  0.4657
 3345TIP3    H231451   6.654   5.178  16.778  0.8456  2.0562  1.9626
 3346TIP3   OH231452   0.103   0.834  16.005 -0.2784 -0.3457  0.3571
 3346TIP3    H131453   0.125   0.742  15.992 -2.0337 -0.9377  1.2779
 3346TIP3    H231454   0.061   0.861  15.923 -1.2274 -0.8554  0.6582
 3347TIP3   OH231455   4.584   4.410  17.001 -0.2875 -0.1100 -0.1143
 3347TIP3    H131456   4.628   4.435  16.920 -0.5150 -0.3952 -0.3295
 3347TIP3    H231457   4.614   4.474  17.066 -0.5316  0.4564 -0.5501
 3348TIP3   OH231458   0.874   4.328   3.330 -0.0980  0.6387  0.7562
 3348TIP3    H131459   0.949   4.269   3.336  0.0036  0.8574  1.8860
 3348TIP3    H231460   0.884   4.387   3.404  0.6400  3.1106 -1.1866
 3349TIP3   OH231461   5.165   4.191  12.764 -0.2508  0.5023  0.3615
 3349TIP3    H131462   5.096   4.138  12.725  1.0949  0.5887 -2.4643
 3349TIP3    H231463   5.246   4.147  12.739  0.8241  2.6518 -0.2052
 3350TIP3   OH231464   6.252   3.100  13.122  0.0112 -0.1872  0.2287
 3350TIP3    H131465   6.169   3.145  13.133 -1.1727 -1.6126 -2.0732
 3350TIP3    H231466   6.295   3.146  13.050  0.8402 -0.0139  0.8180
 3351TIP3   OH231467   0.424   4.149  14.058 -0.0823  0.2109  0.4368
 3351TIP3    H131468   0.499   4.092  14.041 -1.0302 -1.7822  2.3796
 3351TIP3    H231469   0.356   4.116  13.999 -0.3685 -0.1208  0.9438
 3352TIP3   OH231470   3.011   3.337  17.012  0.3506  0.6119  0.8388
 3352TIP3    H131471   2.937   3.341  16.952  0.7271 -0.7109  0.2558
 3352TIP3    H231472   3.077   3.396  16.975  1.1555 -1.2842 -0.9003
 3353TIP3   OH231473   6.519   3.669   3.895  0.6133 -0.4984 -0.2521
 3353TIP3    H131474   6.442   3.634   3.939 -0.3422  0.3722 -1.1817
 3353TIP3    H231475   6.584   3.679   3.964 -0.3492 -0.5651  0.6782
 3354TIP3   OH231476   5.693   3.365   2.614 -0.1259 -0.4745 -0.3070
 3354TIP3    H131477   5.707   3.303   2.543  0.5933 -0.4706 -0.1833
 3354TIP3    H231478   5.774   3.416   2.617 -0.8840  0.8007 -0.7213
 3355TIP3   OH231479   5.055   4.803  15.496  0.0403  0.1127  0.3750
 3355TIP3    H131480   4.995   4.787  15.569 -2.4872  0.1157 -1.5419
 3355TIP3    H231481   5.046   4.896  15.477  0.0980 -0.0308 -0.3891
 3356TIP3   OH231482   5.845   1.172  14.382  0.3649 -0.6990  0.0263
 3356TIP3    H131483   5.820   1.126  14.302 -0.3030 -2.4687  1.1897
 3356TIP3    H231484   5.899   1.246  14.352 -0.8924 -0.5779 -2.1097
 3357TIP3   OH231485   0.320   4.739   5.397  0.6306 -0.4114  0.2315
 3357TIP3    H131486   0.265   4.686   5.455  0.2973  0.3693  0.6473
 3357TIP3    H231487   0.258   4.787   5.342  0.6543  2.7211  2.6516
 3358TIP3   OH231488   5.683   2.214  15.523  0.4431 -0.1556  0.5776
 3358TIP3    H131489   5.744   2.252  15.586 -0.0865 -0.4604  1.2801
 3358TIP3    H231490   5.641   2.290  15.482  0.5703  0.0383  0.8033
 3359TIP3   OH231491   1.389   3.285  16.141 -0.7252 -0.4832 -0.6415
 3359TIP3    H131492   1.453   3.270  16.072 -0.0430 -0.4576 -0.0245
 3359TIP3    H231493   1.407   3.218  16.206 -0.5171  0.2748  0.1018
 3360TIP3   OH231494   1.654   5.195   6.089  0.2218 -0.0511  0.1149
 3360TIP3    H131495   1.731   5.148   6.120 -0.7299 -0.6672  1.6607
 3360TIP3    H231496   1.668   5.286   6.115 -0.2963 -0.4575  1.9178
 3361TIP3   OH231497   4.278   0.360  16.714  0.4142  0.1276  0.3445
 3361TIP3    H131498   4.323   0.305  16.778 -0.6747 -2.1101 -0.7141
 3361TIP3    H231499   4.337   0.362  16.638  1.0688  1.6327  0.8426
 3362TIP3   OH231500   0.915   5.397   1.568 -0.0674 -0.7781 -0.0912
 3362TIP3    H131501   0.992   5.342   1.556 -0.1615 -0.8612 -0.3200
 3362TIP3    H231502   0.882   5.412   1.479  0.6723  0.6675 -0.1481
 3363TIP3   OH231503   2.593   3.768  14.579 -0.4661 -0.1827  0.2372
 3363TIP3    H131504   2.534   3.729  14.643 -1.7895 -0.4004 -1.0679
 3363TIP3    H231505   2.614   3.854  14.615  1.2299 -1.3876  2.3731
 3364TIP3   OH231506   4.083   1.100  16.659 -0.0234 -0.0961  0.5527
 3364TIP3    H131507   3.991   1.080  16.638 -0.6082  1.9005  1.0244
 3364TIP3    H231508   4.088   1.092  16.754  0.5949 -1.2199  0.4479
 3365TIP3   OH231509   3.525   3.925  11.815 -0.0795  0.4675 -0.2304
 3365TIP3    H131510   3.516   4.019  11.831 -0.6268  0.1672  1.4700
 3365TIP3    H231511   3.442   3.899  11.775 -1.0636  0.2893  1.7874
 3366TIP3   OH231512   3.493   1.109   0.839 -0.6562  0.7730  0.0388
 3366TIP3    H131513   3.401   1.133   0.854 -0.8109  0.3718 -0.2454
 3366TIP3    H231514   3.489   1.045   0.768 -0.2549 -0.1637  0.8428
 3367TIP3   OH231515   2.838   2.148   1.283 -0.4490  0.3255  0.0603
 3367TIP3    H131516   2.877   2.228   1.318  2.1402 -0.8777  0.1734
 3367TIP3    H231517   2.913   2.091   1.265 -2.2113 -2.2365  0.3531
 3368TIP3   OH231518   2.678   6.389   2.878 -0.4289 -0.0228  0.7768
 3368TIP3    H131519   2.746   6.407   2.814 -0.7449 -1.0750  0.1064
 3368TIP3    H231520   2.724   6.348   2.951 -0.1624  0.5183  0.9127
 3369TIP3   OH231521   1.976   3.673  13.911  0.1503  0.4932  0.6800
 3369TIP3    H131522   2.035   3.694  13.983  1.7296 -2.2125  0.2878
 3369TIP3    H231523   1.909   3.618  13.949  0.1748  0.2309  0.3477
 3370TIP3   OH231524   4.398   0.369  10.718  0.1929 -0.1504 -0.4478
 3370TIP3    H131525   4.409   0.405  10.630  0.5013  1.4431  0.2186
 3370TIP3    H231526   4.308   0.391  10.742  0.9839  2.1232  0.7527
 3371TIP3   OH231527   6.009   1.381  13.792 -0.3782 -0.5745 -0.8373
 3371TIP3    H131528   5.960   1.445  13.739  0.6679  0.2340 -0.8448
 3371TIP3    H231529   6.089   1.427  13.817 -0.1189 -1.5122  0.1018
 3372TIP3   OH231530   5.472   1.086   5.766 -0.0976  0.1062 -0.0594
 3372TIP3    H131531   5.493   1.058   5.856  2.1744  1.5542 -0.0560
 3372TIP3    H231532   5.547   1.058   5.714 -1.4305 -0.7984 -1.5807
 3373TIP3   OH231533   5.653   2.623  11.218  0.5873  0.0762 -0.0645
 3373TIP3    H131534   5.615   2.709  11.200  1.0326  0.6217  1.4495
 3373TIP3    H231535   5.681   2.590  11.133 -1.1623  0.6634 -0.9023
 3374TIP3   OH231536   6.296   6.570  13.981  0.4536  0.0590 -0.0161
 3374TIP3    H131537   6.320   6.551  14.071 -0.4004  2.0145  0.6771
 3374TIP3    H231538   6.204   6.594  13.985  0.3059 -0.1399 -1.4796
 3375TIP3   OH231539   3.356   5.027   4.382  0.2170  0.3441  0.3377
 3375TIP3    H131540   3.410   5.024   4.461 -1.0462 -0.8221  1.1910
 3375TIP3    H231541   3.309   5.111   4.389  1.6137  1.2095 -0.2440
 3376TIP3   OH231542   6.756   3.169  11.073 -0.0261 -0.1785  0.0312
 3376TIP3    H131543   6.723   3.172  10.984 -0.3674  0.9644  0.1743
 3376TIP3    H231544   6.849   3.190  11.065 -0.3164  1.2215  0.0399
 3377TIP3   OH231545   3.967   5.684  14.967 -0.2906  0.4366  0.3551
 3377TIP3    H131546   3.937   5.600  14.932 -2.3067  0.9721  0.6690
 3377TIP3    H231547   4.013   5.661  15.048 -0.8076 -0.3681  0.4286
 3378TIP3   OH231548   5.297   5.669  16.258  0.5124  0.0391  0.0445
 3378TIP3    H131549   5.243   5.623  16.323  0.2060  0.4553  0.0901
 3378TIP3    H231550   5.324   5.750  16.303  1.2417 -0.2027  0.0494
 3379TIP3   OH231551   2.666   6.259   6.064  0.2364  0.1794 -0.0534
 3379TIP3    H131552   2.659   6.164   6.053 -0.3825  0.1729  0.3251
 3379TIP3    H231553   2.709   6.289   5.984 -1.2113 -0.2218 -1.0448
 3380TIP3   OH231554   1.522   0.343   2.033 -0.1099 -0.2297  0.0052
 3380TIP3    H131555   1.554   0.253   2.040  2.0518  0.5477  1.1519
 3380TIP3    H231556   1.430   0.337   2.057 -0.0255 -2.1520  0.0135
 3381TIP3   OH231557   0.790   0.071   3.327 -0.0488 -0.1930  0.6651
 3381TIP3    H131558   0.733   0.017   3.383 -2.5220  2.6104  1.1098
 3381TIP3    H231559   0.852   0.110   3.388  0.1789 -0.6297  0.7178
 3382TIP3   OH231560   2.430   1.624  11.866  0.0467 -0.5420  0.2280
 3382TIP3    H131561   2.512   1.612  11.914  0.8245 -0.1120 -0.9614
 3382TIP3    H231562   2.441   1.708  11.820 -1.4527  0.0117  0.8039
 3383TIP3   OH231563   0.781   0.422   6.211 -0.6763 -0.2035  0.2534
 3383TIP3    H131564   0.690   0.429   6.241 -1.2800  1.4961 -1.6882
 3383TIP3    H231565   0.815   0.511   6.216  0.7470 -0.7380  0.4844
 3384TIP3   OH231566   1.062   4.476   0.893  0.1038 -0.5169  0.0417
 3384TIP3    H131567   0.980   4.489   0.939  1.1159  1.1290  1.5204
 3384TIP3    H231568   1.040   4.420   0.818 -2.2471 -0.4231  0.6082
 3385TIP3   OH231569   1.637   3.833   2.548 -0.1227 -0.3373  0.3570
 3385TIP3    H131570   1.557   3.822   2.599  0.9593 -1.2885  1.9421
 3385TIP3    H231571   1.697   3.768   2.583  0.5123 -1.4917 -2.6016
 3386TIP3   OH231572   5.447   2.864   3.831 -0.4183  0.0177  0.7036
 3386TIP3    H131573   5.522   2.904   3.876  1.0671 -0.4984 -1.1886
 3386TIP3    H231574   5.392   2.939   3.806 -0.4224  0.4248  1.8672
 3387TIP3   OH231575   4.911   6.060   4.614  0.3590  0.4386  0.0244
 3387TIP3    H131576   4.930   5.966   4.607 -0.0252  0.4804 -2.2020
 3387TIP3    H231577   4.955   6.099   4.538 -1.8193  1.6560 -0.6945
 3388TIP3   OH231578   3.969   1.446  15.810  0.4487  0.4218  0.3012
 3388TIP3    H131579   4.053   1.444  15.766 -0.3922 -2.0895 -1.4340
 3388TIP3    H231580   3.984   1.401  15.894  0.9286  0.3986  0.2030
 3389TIP3   OH231581   2.181   6.625  12.649  0.1430  0.6311 -0.2285
 3389TIP3    H131582   2.105   6.665  12.606  0.6348  0.6042 -1.1522
 3389TIP3    H231583   2.237   6.699  12.671  1.1098  0.5182 -2.0468
 3390TIP3   OH231584   0.983   0.066  16.614  0.1300  0.5819 -0.6716
 3390TIP3    H131585   1.024   0.138  16.662  0.0784  0.7024 -0.8056
 3390TIP3    H231586   0.945   0.108  16.537 -1.2035  0.6441 -0.0030
 3391TIP3   OH231587   1.945   2.763  15.299  0.6681  0.0204  0.3632
 3391TIP3    H131588   1.926   2.670  15.306 -0.2487  0.2376  0.9122
 3391TIP3    H231589   2.019   2.776  15.358 -0.5343 -0.0073  1.9420
 3392TIP3   OH231590   4.111   5.163  11.057  0.4316 -0.3683  0.2495
 3392TIP3    H131591   4.092   5.142  10.966  1.8009 -1.4676  0.1693
 3392TIP3    H231592   4.202   5.133  11.069 -0.0264 -1.1152  2.2115
 3393TIP3   OH231593   6.072   1.397  12.794 -0.0921  0.0526  0.3757
 3393TIP3    H131594   6.128   1.356  12.728  1.1242 -0.1160  1.4811
 3393TIP3    H231595   5.991   1.419  12.747  0.4846 -0.6767 -0.9938
 3394TIP3   OH231596   0.952   4.908  15.523  0.0979  0.1367 -0.2671
 3394TIP3    H131597   0.979   4.951  15.442 -3.1960  0.5619 -1.2967
 3394TIP3    H231598   0.870   4.951  15.547  0.3428 -0.8068  2.6680
 3395TIP3   OH231599   1.935   1.334  15.993  0.2218 -0.3471  0.1465
 3395TIP3    H131600   1.894   1.400  15.937 -0.4782 -0.5993  0.3424
 3395TIP3    H231601   2.009   1.378  16.033 -0.0362  0.2161  0.0074
 3396TIP3   OH231602   3.335   0.794  12.973 -0.1250 -0.7560 -0.8168
 3396TIP3    H131603   3.298   0.713  13.007  1.6451 -1.7128 -1.0531
 3396TIP3    H231604   3.418   0.768  12.933  0.7520  1.2328 -0.4446
 3397TIP3   OH231605   1.658   3.146   1.039 -0.3634 -0.2812 -0.2802
 3397TIP3    H131606   1.718   3.071   1.037 -1.0267 -0.9736  2.2211
 3397TIP3    H231607   1.661   3.178   1.129 -0.7624  2.2130 -1.0732
 3398TIP3   OH231608   0.140   4.155  12.936 -0.0882  0.5111  0.0733
 3398TIP3    H131609   0.157   4.089  13.004 -1.7393 -0.9108 -0.7969
 3398TIP3    H231610   0.135   4.238  12.983  0.5429 -0.1890  1.4284
 3399TIP3   OH231611   2.466   3.482  13.161  0.7999 -0.0740 -0.5033
 3399TIP3    H131612   2.525   3.511  13.230 -0.0389  1.6704 -0.4602
 3399TIP3    H231613   2.450   3.561  13.109 -0.4299 -0.8204 -1.2995
 3400TIP3   OH231614   3.340   6.051   1.543 -0.6255 -0.2966  0.5689
 3400TIP3    H131615   3.418   6.095   1.508 -0.7577 -1.0366 -0.6928
 3400TIP3    H231616   3.374   5.984   1.602 -0.3316 -0.2337  0.4704
 3401TIP3   OH231617   4.060   3.860   3.920 -0.0193  0.2615 -0.0317
 3401TIP3    H131618   4.003   3.917   3.972 -1.3641 -1.6962  0.7521
 3401TIP3    H231619   4.140   3.852   3.973  1.0073  2.7944 -1.0088
 3402TIP3   OH231620   5.515   6.339  11.630 -0.1597  0.1443  0.4601
 3402TIP3    H131621   5.587   6.276  11.638  1.5785  2.0586  0.8836
 3402TIP3    H231622   5.461   6.306  11.559  1.9226 -0.6566 -0.8303
 3403TIP3   OH231623   4.259   0.787   5.322  0.2145  0.1185  0.5008
 3403TIP3    H131624   4.165   0.805   5.316  0.5683  2.2586  0.3048
 3403TIP3    H231625   4.287   0.773   5.231  0.2329  0.4985  0.4439
 3404TIP3   OH231626   3.788   5.306  14.630 -0.1268  0.0751  0.1557
 3404TIP3    H131627   3.856   5.253  14.671 -0.3632 -0.0805  0.3471
 3404TIP3    H231628   3.715   5.247  14.618 -0.1804  0.2096 -0.1785
 3405TIP3   OH231629   2.916   6.271  15.580 -0.3604 -0.1287 -0.0924
 3405TIP3    H131630   2.848   6.263  15.513 -0.3271 -0.5443 -0.0811
 3405TIP3    H231631   2.931   6.365  15.588  1.4258 -0.1141 -2.5172
 3406TIP3   OH231632   1.041   6.139  15.411 -0.0398 -0.0320  0.0832
 3406TIP3    H131633   1.087   6.215  15.375  0.2020 -0.5532 -0.7386
 3406TIP3    H231634   1.088   6.063  15.374  0.4812 -0.6074  1.8122
 3407TIP3   OH231635   3.111   6.351   5.493  0.1120 -0.0239 -0.4875
 3407TIP3    H131636   3.031   6.401   5.478 -1.2721 -1.8250  0.4772
 3407TIP3    H231637   3.123   6.351   5.588 -0.0463 -1.6431 -0.4381
 3408TIP3   OH231638   0.479   0.995   5.572 -0.0984 -0.2492 -0.2316
 3408TIP3    H131639   0.444   1.083   5.587 -1.4439 -0.9008  0.5798
 3408TIP3    H231640   0.405   0.937   5.583  0.8185 -1.5349 -0.5460
 3409TIP3   OH231641   4.000   2.704   2.243 -0.3232  0.0403 -0.0950
 3409TIP3    H131642   3.924   2.699   2.185 -0.5143  0.7078  0.0905
 3409TIP3    H231643   3.989   2.631   2.303 -0.1219 -0.6602 -0.8978
 3410TIP3   OH231644   4.375   4.040   4.548  0.8552  0.0561  0.1639
 3410TIP3    H131645   4.310   4.042   4.619  0.4533 -0.2255 -0.1959
 3410TIP3    H231646   4.425   3.960   4.563 -0.9317 -1.4316 -1.3675
 3411TIP3   OH231647   5.545   4.669   0.624  0.1448  0.2880  0.4780
 3411TIP3    H131648   5.539   4.661   0.528 -3.0303 -0.5882  0.6413
 3411TIP3    H231649   5.531   4.762   0.641  2.7385  0.8360  0.1041
 3412TIP3   OH231650   2.852   1.606   3.282  1.3284 -0.3744 -0.4945
 3412TIP3    H131651   2.775   1.659   3.299  2.4980  1.4868 -0.6268
 3412TIP3    H231652   2.819   1.530   3.234 -0.2526  1.1447 -1.9893
 3413TIP3   OH231653   2.358   2.895  11.854  0.8514  1.1046 -0.3846
 3413TIP3    H131654   2.273   2.933  11.876  1.6401  2.4815  0.3826
 3413TIP3    H231655   2.421   2.943  11.907  2.1786  0.4001 -1.2559
 3414TIP3   OH231656   5.840   4.324  11.561  0.4622 -0.3425 -0.0667
 3414TIP3    H131657   5.771   4.304  11.624 -0.4590  0.7301 -0.6834
 3414TIP3    H231658   5.793   4.330  11.477  1.7678 -2.6039 -1.0528
 3415TIP3   OH231659   4.944   4.557  15.988  0.3976 -0.0805  0.1614
 3415TIP3    H131660   4.973   4.471  15.958  1.2520  0.3820 -0.3617
 3415TIP3    H231661   4.863   4.539  16.036  0.5142 -1.1626 -0.0200
 3416TIP3   OH231662   6.746   5.268  14.412 -0.8223 -0.1891 -0.9651
 3416TIP3    H131663   6.652   5.281  14.422 -0.8386 -1.6640  2.0061
 3416TIP3    H231664   6.760   5.175  14.435  1.7355  1.0091  3.8405
 3417TIP3   OH231665   1.223   4.630   2.772  0.5933  0.5113 -0.1389
 3417TIP3    H131666   1.248   4.722   2.767  0.4032  0.5859  0.2070
 3417TIP3    H231667   1.140   4.631   2.821  1.4192  0.0138  1.3196
 3418TIP3   OH231668   4.220   0.705   4.309  0.1500  0.1682  0.2122
 3418TIP3    H131669   4.232   0.753   4.391 -2.9419  0.2945  0.7323
 3418TIP3    H231670   4.185   0.769   4.248 -1.2349 -0.7235  0.0131
 3419TIP3   OH231671   1.042   2.285   4.996  0.1818 -0.4777 -0.0834
 3419TIP3    H131672   1.114   2.260   5.054  1.3581 -1.1198 -1.7219
 3419TIP3    H231673   0.981   2.211   5.001 -0.6360  0.2634  1.6494
 3420TIP3   OH231674   3.221   4.326   2.005  0.2592  0.0710  0.2409
 3420TIP3    H131675   3.152   4.288   1.951  0.6029 -1.0213  0.5423
 3420TIP3    H231676   3.270   4.382   1.945 -0.1412 -0.1099 -0.2640
 3421TIP3   OH231677   4.686   2.585   1.996  0.4397 -0.1590  0.0772
 3421TIP3    H131678   4.646   2.526   2.059 -0.6776  1.8132  1.3292
 3421TIP3    H231679   4.724   2.655   2.050  0.1103  1.1989 -1.3787
 3422TIP3   OH231680   5.602   2.696   3.615 -0.0692 -0.3975  0.3004
 3422TIP3    H131681   5.537   2.751   3.658  2.0332  1.8093  0.8969
 3422TIP3    H231682   5.639   2.752   3.547  1.3898 -1.4381  0.1919
 3423TIP3   OH231683   1.153   0.905   4.700 -0.4600  0.1306  0.4924
 3423TIP3    H131684   1.200   0.987   4.716  0.7584 -0.8460  2.2812
 3423TIP3    H231685   1.073   0.932   4.654 -0.7565  2.4921  2.1817
 3424TIP3   OH231686   5.506   5.612   0.815 -0.2256  0.0255  0.7397
 3424TIP3    H131687   5.479   5.545   0.752  1.5292 -0.0111 -0.0253
 3424TIP3    H231688   5.463   5.587   0.897  0.6118 -2.2054  0.5589
 3425TIP3   OH231689   4.632   3.446  11.966  0.1824  0.4081  0.3868
 3425TIP3    H131690   4.676   3.438  11.882  0.9011 -1.3451  0.8733
 3425TIP3    H231691   4.698   3.418  12.030 -0.2605  1.9554  1.5657
 3426TIP3   OH231692   6.703   5.945   1.694  0.0442 -0.3294 -0.0379
 3426TIP3    H131693   6.696   5.919   1.786  0.4023  0.8425  0.3300
 3426TIP3    H231694   6.612   5.961   1.668 -0.2946 -2.5916 -0.5079
 3427TIP3   OH231695   4.292   1.502   4.147  0.1585 -0.6285  0.1051
 3427TIP3    H131696   4.287   1.556   4.068 -2.1811  1.1780  1.3719
 3427TIP3    H231697   4.383   1.510   4.176  0.2069  1.7054 -0.4561
 3428TIP3   OH231698   4.411   2.602  14.844  0.0886  0.5365 -0.2888
 3428TIP3    H131699   4.325   2.576  14.811  1.0114 -1.5016 -1.2662
 3428TIP3    H231700   4.460   2.628  14.766  1.0691 -0.5633 -0.0636
 3429TIP3   OH231701   2.639   1.758   5.217 -0.1079 -0.2689 -0.2012
 3429TIP3    H131702   2.575   1.697   5.254 -0.4857 -0.0288 -0.4505
 3429TIP3    H231703   2.654   1.822   5.286 -2.5911  1.5474 -1.2039
 3430TIP3   OH231704   3.965   4.368   0.831  0.0537 -0.1972 -0.0367
 3430TIP3    H131705   3.894   4.380   0.768  0.9126  0.2711 -0.9418
 3430TIP3    H231706   3.963   4.449   0.883 -0.4938 -0.4762  0.3937
 3431TIP3   OH231707   5.051   1.672  13.027  0.4117 -0.3127 -0.2029
 3431TIP3    H131708   4.975   1.702  12.976 -0.5194  0.6616  1.6572
 3431TIP3    H231709   5.031   1.698  13.117  1.0398 -3.7883  1.0772
 3432TIP3   OH231710   5.337   3.320  14.871 -0.0636  0.2379 -0.2139
 3432TIP3    H131711   5.274   3.378  14.913  1.1081  0.2137  1.7084
 3432TIP3    H231712   5.398   3.379  14.827 -0.5559  0.3286 -0.7757
 3433TIP3   OH231713   3.419   6.084  17.203 -0.3088  0.0611 -0.5018
 3433TIP3    H131714   3.487   6.048  17.146  0.3693  1.5749 -0.6803
 3433TIP3    H231715   3.451   6.069  17.292  0.9279  1.9142 -0.5874
 3434TIP3   OH231716   2.466   6.150   5.448 -0.7085 -0.3190  0.2592
 3434TIP3    H131717   2.461   6.228   5.392  0.4207 -1.1580 -1.0745
 3434TIP3    H231718   2.463   6.076   5.387 -1.3282 -1.3266  1.4726
 3435TIP3   OH231719   5.194   5.536   6.210  0.3482  0.5803 -0.1263
 3435TIP3    H131720   5.203   5.568   6.300  0.0739 -0.9226  0.4685
 3435TIP3    H231721   5.147   5.453   6.219  1.3731 -0.1923 -1.5405
 3436TIP3   OH231722   1.749   6.638  15.876  0.0430  0.3059  0.1049
 3436TIP3    H131723   1.739   6.543  15.862 -0.4821  0.3482  0.2046
 3436TIP3    H231724   1.820   6.645  15.940  1.3278  0.0467 -1.2234
 3437TIP3   OH231725   2.537   6.592  15.345 -0.5426  0.6602  0.0865
 3437TIP3    H131726   2.467   6.562  15.287  1.3786 -1.1812 -1.4440
 3437TIP3    H231727   2.538   6.687  15.335 -1.0300  0.4803 -2.0072
 3438TIP3   OH231728   3.581   4.850   1.491  0.5570  0.1696  0.0716
 3438TIP3    H131729   3.631   4.806   1.422  0.6732  0.2232  0.1218
 3438TIP3    H231730   3.539   4.778   1.539 -0.1773  0.1742 -0.5556
 3439TIP3   OH231731   1.069   4.553   2.288 -0.1212  0.5542  0.1226
 3439TIP3    H131732   1.087   4.462   2.315 -0.2973  1.0785  2.1408
 3439TIP3    H231733   1.089   4.554   2.194 -0.4155 -1.6409 -0.0192
 3440TIP3   OH231734   1.928   6.748   3.825  0.2334  0.1807  0.3060
 3440TIP3    H131735   1.906   6.687   3.895  1.5200  0.2342  0.7900
 3440TIP3    H231736   1.987   6.698   3.768 -0.8533  0.1055 -0.8129
 3441TIP3   OH231737   1.299   1.591  15.788  0.0874 -0.4269  0.1813
 3441TIP3    H131738   1.340   1.549  15.863  0.4738 -0.6273 -0.1428
 3441TIP3    H231739   1.285   1.682  15.817  0.9850 -0.2892  0.2080
 3442TIP3   OH231740   0.046   0.236   5.615  0.5001 -0.2349  0.1586
 3442TIP3    H131741   0.075   0.170   5.551  0.4301  1.5979 -1.8987
 3442TIP3    H231742   0.117   0.301   5.615 -0.4258  0.7970  0.3930
 3443TIP3   OH231743   0.584   2.841   1.737  0.2586  0.9449  0.3092
 3443TIP3    H131744   0.532   2.885   1.805 -1.4495  1.7237 -1.4125
 3443TIP3    H231745   0.613   2.912   1.679  0.8766  0.1953 -0.3207
 3444TIP3   OH231746   2.989   2.257   1.704 -0.1761 -0.8015 -0.0493
 3444TIP3    H131747   2.907   2.240   1.750 -0.0202 -1.2740  0.0618
 3444TIP3    H231748   3.055   2.209   1.754  0.1760 -0.3908 -0.1123
 3445TIP3   OH231749   1.895   3.560   2.962  0.2146 -0.1732 -0.3465
 3445TIP3    H131750   1.916   3.502   2.889 -0.8886 -1.8295  0.5965
 3445TIP3    H231751   1.828   3.513   3.012  0.7447  1.0220  1.5961
 3446TIP3   OH231752   3.122   6.598  13.756  0.3180  0.4394 -0.3680
 3446TIP3    H131753   3.133   6.553  13.672 -0.2238 -0.0546 -0.1771
 3446TIP3    H231754   3.200   6.653  13.764  0.6869 -0.0025 -0.8915
 3447TIP3   OH231755   6.562   3.409   4.468  0.4018 -0.1244  0.1730
 3447TIP3    H131756   6.588   3.319   4.488 -3.4377 -1.5828 -0.4957
 3447TIP3    H231757   6.516   3.402   4.384 -0.4819  2.3868  0.3678
 3448TIP3   OH231758   5.217   2.021   2.136  0.5653  0.4369  0.0686
 3448TIP3    H131759   5.245   1.941   2.092  1.4857  0.2738  0.9073
 3448TIP3    H231760   5.242   2.008   2.227 -0.8551  0.9666  0.5681
 3449TIP3   OH231761   6.274   5.082  15.219  0.4240 -0.2442 -0.1828
 3449TIP3    H131762   6.342   5.015  15.208  0.6322 -0.1195  0.3114
 3449TIP3    H231763   6.323   5.163  15.233  0.1718 -0.0676 -0.3356
 3450TIP3   OH231764   1.607   6.106   2.023  0.0269 -0.0632  0.4103
 3450TIP3    H131765   1.585   6.013   2.017  0.9585 -0.2245 -0.9310
 3450TIP3    H231766   1.527   6.151   1.994 -0.7577 -0.3783  1.9741
 3451TIP3   OH231767   2.810   1.467   1.829 -0.3522 -0.5847 -0.4181
 3451TIP3    H131768   2.893   1.420   1.831 -0.9200 -1.6004  0.0559
 3451TIP3    H231769   2.810   1.520   1.909 -0.5840 -1.3575  0.1034
 3452TIP3   OH231770   0.009   4.417   5.726  0.2151  0.2508 -0.0138
 3452TIP3    H131771  -0.042   4.489   5.762  0.7544  0.7444 -0.2288
 3452TIP3    H231772   0.068   4.391   5.797 -0.2589 -0.2591  0.2033
 3453TIP3   OH231773   0.681   0.849  11.260  0.1429 -0.8895 -0.0107
 3453TIP3    H131774   0.646   0.782  11.318 -0.4474  0.4046  1.1936
 3453TIP3    H231775   0.733   0.905  11.317  0.5117 -0.2417 -0.9561
 3454TIP3   OH231776   0.711   1.485  10.483 -0.4149 -0.2059 -0.6868
 3454TIP3    H131777   0.697   1.455  10.393  1.6892 -1.4903 -0.6610
 3454TIP3    H231778   0.765   1.563  10.474  0.5730 -0.8477 -0.5659
 3455TIP3   OH231779   6.353   3.212   3.294  0.1728  0.5231 -0.0859
 3455TIP3    H131780   6.431   3.169   3.258 -0.7342  0.1880 -1.7440
 3455TIP3    H231781   6.282   3.150   3.278 -0.4906  0.9307  1.1876
 3456TIP3   OH231782   4.441   5.375   5.549  0.5759  0.0491  0.1149
 3456TIP3    H131783   4.453   5.405   5.459 -0.1615 -0.3382 -0.1160
 3456TIP3    H231784   4.406   5.451   5.595  1.1081  0.2966  0.1153
 3457TIP3   OH231785   6.187   3.092  11.529  0.4026  0.0908  0.1278
 3457TIP3    H131786   6.212   3.166  11.474  0.1276 -0.2044 -0.4050
 3457TIP3    H231787   6.116   3.125  11.585  0.6507  0.3778  0.2743
 3458TIP3   OH231788   0.100   3.458  11.075 -0.3695 -0.1230 -0.1435
 3458TIP3    H131789   0.109   3.409  10.993  0.7356  0.0761 -0.1510
 3458TIP3    H231790   0.145   3.540  11.059 -0.6740  0.1693  0.4724
 3459TIP3   OH231791   0.559   2.168   2.217 -0.3557  0.3169  0.2850
 3459TIP3    H131792   0.526   2.217   2.292 -1.5391 -0.1687  0.1081
 3459TIP3    H231793   0.620   2.227   2.173 -1.3383  1.4240  0.3825
 3460TIP3   OH231794   0.501   5.029   0.102  0.4840  0.3937 -0.0749
 3460TIP3    H131795   0.557   5.100   0.072  1.3906 -0.6377 -0.9171
 3460TIP3    H231796   0.560   4.955   0.115 -0.6387 -0.7074 -0.9254
 3461TIP3   OH231797   2.249   0.565   1.928 -0.1384 -0.3730 -0.3897
 3461TIP3    H131798   2.161   0.596   1.907 -0.0317  0.2644  0.0773
 3461TIP3    H231799   2.268   0.603   2.014  0.1611 -1.4010  0.0189
 3462TIP3   OH231800   3.212   5.214   2.848  0.0297  0.3589 -0.2086
 3462TIP3    H131801   3.167   5.151   2.791  0.8464  0.5133 -1.0539
 3462TIP3    H231802   3.303   5.184   2.849  0.0373  0.3823  1.0063
 3463TIP3   OH231803   4.180   6.104   3.560  0.4998  0.4261 -0.3731
 3463TIP3    H131804   4.233   6.182   3.576  0.1220  0.9657 -1.6417
 3463TIP3    H231805   4.242   6.041   3.523  0.6030  0.4413 -0.2307
 3464TIP3   OH231806   1.757   0.058  13.697 -0.6460  0.0670  0.4733
 3464TIP3    H131807   1.816   0.013  13.757  0.0022  0.0909 -0.1288
 3464TIP3    H231808   1.703  -0.012  13.660 -0.2981 -0.1011  0.2692
 3465TIP3   OH231809   0.744   3.050  15.941 -0.2817 -0.6572  0.0582
 3465TIP3    H131810   0.670   3.004  15.981 -0.6738 -0.3184 -0.2657
 3465TIP3    H231811   0.704   3.117  15.886  0.2737 -0.3263  0.0477
 3466TIP3   OH231812   6.482   1.912   4.744 -0.0483  0.0721 -0.1630
 3466TIP3    H131813   6.410   1.907   4.682 -0.2632 -0.6121  0.1344
 3466TIP3    H231814   6.448   1.965   4.816 -0.6632 -1.1765  0.4980
 3467TIP3   OH231815   1.365   0.831  14.401 -0.9920  0.1765 -0.3558
 3467TIP3    H131816   1.417   0.911  14.412 -1.2732  0.7135 -2.3860
 3467TIP3    H231817   1.376   0.808  14.309  0.6990 -3.3418  0.5649
 3468TIP3   OH231818   1.706   1.095  11.973  0.2661 -0.5193 -0.3343
 3468TIP3    H131819   1.784   1.056  11.934 -0.4914 -1.6582 -0.7673
 3468TIP3    H231820   1.633   1.056  11.925 -0.5704  2.2504 -1.5713
 3469TIP3   OH231821   5.166   0.228  15.738 -0.3425 -0.3768  0.1784
 3469TIP3    H131822   5.138   0.200  15.825 -1.2761  0.4430  0.1547
 3469TIP3    H231823   5.244   0.280  15.754 -0.0292 -0.9133  0.4431
 3470TIP3   OH231824   2.251   0.262   1.249 -0.3803 -0.1715  0.2157
 3470TIP3    H131825   2.235   0.178   1.206  0.0562 -0.4281  0.5524
 3470TIP3    H231826   2.234   0.327   1.180  0.7163 -0.5948 -0.4847
 3471TIP3   OH231827   3.471   2.309   5.716 -0.3000 -0.0242 -0.0008
 3471TIP3    H131828   3.523   2.228   5.721 -1.2576 -0.6220  0.6058
 3471TIP3    H231829   3.536   2.378   5.707  0.5801 -0.8073  0.1326
 3472TIP3   OH231830   2.439   0.498   2.758  0.2659 -0.3734  0.6293
 3472TIP3    H131831   2.461   0.450   2.838  0.8507 -0.1888  0.5914
 3472TIP3    H231832   2.448   0.590   2.783  0.7431 -0.3186  0.2824
 3473TIP3   OH231833   5.595   4.241  12.598  0.0201  0.0964 -0.1908
 3473TIP3    H131834   5.683   4.246  12.561 -0.4131  1.1106 -1.1443
 3473TIP3    H231835   5.537   4.234  12.521 -0.7419 -0.3746  0.4122
 3474TIP3   OH231836   4.890   4.761  17.084  0.4034 -0.0251  0.2156
 3474TIP3    H131837   4.873   4.723  16.998 -2.0735  1.1751  0.1017
 3474TIP3    H231838   4.962   4.823  17.069 -1.6900  2.1476 -1.6959
 3475TIP3   OH231839   3.183   2.490   2.308  0.0982 -0.3783 -0.6903
 3475TIP3    H131840   3.234   2.426   2.359 -1.8779  0.3516  2.4973
 3475TIP3    H231841   3.105   2.441   2.280  0.0164 -0.1488 -0.8630
 3476TIP3   OH231842   2.749   3.152  11.853  0.0290 -0.0584  0.0217
 3476TIP3    H131843   2.771   3.239  11.889  0.3534  0.2854 -0.9819
 3476TIP3    H231844   2.675   3.123  11.906  0.4652  0.4469  0.9511
 3477TIP3   OH231845   5.382   3.046   3.271  0.5253  0.1707  0.2512
 3477TIP3    H131846   5.358   3.136   3.293 -3.1269 -0.4914 -0.3037
 3477TIP3    H231847   5.428   3.054   3.187  1.8700  1.5780  1.0613
 3478TIP3   OH231848   1.126   3.731  12.058 -0.1536 -0.0874  0.1692
 3478TIP3    H131849   1.131   3.797  12.126  0.3027  0.3572 -0.2882
 3478TIP3    H231850   1.042   3.746  12.014 -0.6517 -0.6506  0.8949
 3479TIP3   OH231851   2.061   4.993  14.891  0.1362 -0.2730  0.1310
 3479TIP3    H131852   2.061   4.899  14.872  0.8607 -0.5832  1.5796
 3479TIP3    H231853   2.146   5.009  14.933  0.3197  1.1766 -0.7182
 3480TIP3   OH231854   2.246   5.494  16.471 -0.3352  0.5267 -0.4451
 3480TIP3    H131855   2.167   5.509  16.523 -0.2851  0.1126 -0.2484
 3480TIP3    H231856   2.216   5.440  16.397 -0.0633 -0.4675  0.1466
 3481TIP3   OH231857   4.100   5.668   5.896  0.1473  0.0739 -0.0401
 3481TIP3    H131858   4.185   5.695   5.932  0.9507 -2.1071 -0.1183
 3481TIP3    H231859   4.037   5.685   5.966  0.9082  0.2886  0.6043
 3482TIP3   OH231860   2.747   5.789   0.204  0.6388  0.3255  0.5301
 3482TIP3    H131861   2.676   5.816   0.147  1.3226  1.7414  0.3053
 3482TIP3    H231862   2.805   5.737   0.148  1.0966  1.3624  0.0253
 3483TIP3   OH231863   3.320   1.184  16.756 -0.2150  0.5088  0.9640
 3483TIP3    H131864   3.241   1.131  16.767 -0.0120  0.1162  0.5928
 3483TIP3    H231865   3.390   1.132  16.796  0.5569 -1.0019 -1.9955
 3484TIP3   OH231866   3.820   1.284  12.687 -0.7636  0.0745  0.1676
 3484TIP3    H131867   3.746   1.306  12.745 -0.8271  0.0814  0.0836
 3484TIP3    H231868   3.809   1.342  12.611  0.9307  2.1822  1.4070
 3485TIP3   OH231869   6.740   5.007   3.327 -0.0640 -0.0441 -0.2275
 3485TIP3    H131870   6.704   5.090   3.359  0.3633  0.5831 -1.2948
 3485TIP3    H231871   6.664   4.954   3.306 -0.3429 -0.0302  0.7110
 3486TIP3   OH231872   6.638   4.567  16.715 -0.0258  0.1120  0.1291
 3486TIP3    H131873   6.726   4.531  16.730 -0.1355 -0.0815  0.3187
 3486TIP3    H231874   6.648   4.624  16.638  0.2899  0.1811  0.2195
 3487TIP3   OH231875   1.343   4.198   5.310 -0.0620  0.4543  0.4197
 3487TIP3    H131876   1.253   4.177   5.285 -0.1878 -0.3759  1.5167
 3487TIP3    H231877   1.353   4.291   5.287  0.1909 -0.4063 -3.6810
 3488TIP3   OH231878   1.514   1.963   4.994  0.4553  0.4131  0.3980
 3488TIP3    H131879   1.510   1.872   4.964 -1.8460  0.5007  0.2598
 3488TIP3    H231880   1.559   1.958   5.078  0.0311 -0.9110  0.5710
 3489TIP3   OH231881   5.056   0.651  16.282 -0.1327  0.1585 -0.5482
 3489TIP3    H131882   5.033   0.723  16.340 -2.5928  0.8606 -2.2474
 3489TIP3    H231883   4.972   0.620  16.247  1.0640 -1.7756 -1.9157
 3490TIP3   OH231884   4.381   0.587   5.097  0.2757  0.2429 -0.3635
 3490TIP3    H131885   4.449   0.622   5.154  0.3330  0.8935 -0.8228
 3490TIP3    H231886   4.353   0.661   5.044 -2.1392  0.4742  1.0798
 3491TIP3   OH231887   5.198   5.847   3.683 -0.3590  0.1786 -0.3559
 3491TIP3    H131888   5.273   5.898   3.712 -0.8230  0.6327  0.0696
 3491TIP3    H231889   5.221   5.756   3.705 -0.9685  0.5603  2.1951
 3492TIP3   OH231890   2.654   4.538  15.186 -0.6400  0.2401 -0.0094
 3492TIP3    H131891   2.629   4.586  15.107  0.4117  1.6352  0.4681
 3492TIP3    H231892   2.657   4.447  15.158 -0.2042  0.7072 -1.6158
 3493TIP3   OH231893   6.581   6.279   4.665 -0.0494 -0.4623  0.7202
 3493TIP3    H131894   6.637   6.284   4.743  1.5628 -0.0192 -0.4066
 3493TIP3    H231895   6.641   6.291   4.592 -1.6908  0.4400 -0.5596
 3494TIP3   OH231896   3.219   3.945   3.718  0.6153 -0.1583  0.3147
 3494TIP3    H131897   3.255   3.952   3.630  2.4053 -1.9617  0.8270
 3494TIP3    H231898   3.296   3.947   3.775 -0.5196  1.4080  1.9176
 3495TIP3   OH231899   1.986   5.316  11.808 -0.2368 -0.1829 -0.4043
 3495TIP3    H131900   1.937   5.334  11.888  3.0744  0.3440  1.6793
 3495TIP3    H231901   2.004   5.222  11.813 -1.6508 -0.5580 -1.6216
 3496TIP3   OH231902   5.837   3.401  14.005 -0.7805  0.0342  0.3562
 3496TIP3    H131903   5.862   3.404  14.097 -0.9101 -1.2339  0.4459
 3496TIP3    H231904   5.742   3.399  14.006 -0.7740 -0.5513  0.2258
 3497TIP3   OH231905   0.982   0.551  11.697 -0.2654 -0.0357  0.1787
 3497TIP3    H131906   0.951   0.630  11.653  0.2992  0.0332 -0.0946
 3497TIP3    H231907   0.937   0.552  11.782  3.2844  3.1711  2.3474
 3498TIP3   OH231908   4.866   5.168   5.917 -0.6785  0.3936  0.0334
 3498TIP3    H131909   4.822   5.180   5.832  0.8350  0.6626 -0.7423
 3498TIP3    H231910   4.938   5.108   5.898 -0.0064  0.8678  1.0196
 3499TIP3   OH231911   2.284   6.510   4.920 -0.9571  0.1440 -0.7661
 3499TIP3    H131912   2.194   6.542   4.930 -1.0553 -0.6467  1.1480
 3499TIP3    H231913   2.330   6.583   4.878 -1.7707  1.8320  1.1180
 3500TIP3   OH231914   3.167   3.731   1.357  0.0368  0.0926 -0.2692
 3500TIP3    H131915   3.253   3.723   1.316  0.3100  0.6374  0.1893
 3500TIP3    H231916   3.150   3.644   1.394  0.1324 -0.1786 -0.8440
 3501TIP3   OH231917   1.372   4.665   3.861 -0.1891  0.1119  0.1266
 3501TIP3    H131918   1.445   4.632   3.914  0.3526  0.7732 -0.1760
 3501TIP3    H231919   1.347   4.592   3.805  0.6685  0.0604 -0.2026
 3502TIP3   OH231920   2.761   1.517   5.071 -0.6050  0.0489  0.4423
 3502TIP3    H131921   2.799   1.605   5.066  0.2329 -0.0767  3.2274
 3502TIP3    H231922   2.811   1.465   5.008 -1.3907  1.5800 -1.5692
 3503TIP3   OH231923   2.662   4.201  16.327 -0.2455  0.3848 -0.2009
 3503TIP3    H131924   2.596   4.221  16.394  0.6614 -0.4616  0.9723
 3503TIP3    H231925   2.734   4.260  16.347 -0.6537  1.4027 -1.5661
 3504TIP3   OH231926   5.565   5.481  14.238  0.0769 -0.3896  0.1309
 3504TIP3    H131927   5.601   5.401  14.201  0.9571 -0.6953  1.6016
 3504TIP3    H231928   5.530   5.455  14.323 -0.3198  0.6510  0.3033
 3505TIP3   OH231929   6.047   3.763   6.517 -0.0433  0.2276  0.7316
 3505TIP3    H131930   5.972   3.722   6.560  0.6097  0.1161  1.8132
 3505TIP3    H231931   6.084   3.820   6.584  0.2812  1.0087 -0.0949
 3506TIP3   OH231932   6.577   1.899   0.648 -0.4226  0.2710  0.0700
 3506TIP3    H131933   6.529   1.947   0.580 -0.6240  0.1326  0.1139
 3506TIP3    H231934   6.611   1.967   0.706  1.3617  0.5361 -1.2019
 3507TIP3   OH231935   4.356   3.378  11.132 -0.0590 -0.4554 -0.0064
 3507TIP3    H131936   4.383   3.455  11.083 -0.6031 -0.4253 -0.2696
 3507TIP3    H231937   4.401   3.305  11.089 -2.4063 -0.7616 -2.1925
 3508TIP3   OH231938   2.550   1.725  14.650  0.8234  0.2507  0.1496
 3508TIP3    H131939   2.475   1.694  14.699  1.5783 -0.5028  0.8629
 3508TIP3    H231940   2.516   1.798  14.597  0.1776  1.7616  2.4751
 3509TIP3   OH231941   0.309   6.212   0.840 -0.1547 -0.2709  0.2638
 3509TIP3    H131942   0.218   6.198   0.814 -0.2071  2.7644 -1.7538
 3509TIP3    H231943   0.303   6.275   0.912  0.3278 -2.1569  2.0212
 3510TIP3   OH231944   4.549   3.080   2.177 -0.2660 -0.3689  0.2289
 3510TIP3    H131945   4.494   3.146   2.135  0.9958  1.2377  0.9947
 3510TIP3    H231946   4.519   3.079   2.268 -1.6114 -2.3656 -0.1462
 3511TIP3   OH231947   5.838   4.503   0.405 -0.2756 -0.1550 -0.5701
 3511TIP3    H131948   5.762   4.487   0.347  0.1030 -0.4740 -0.9893
 3511TIP3    H231949   5.855   4.596   0.396 -1.0210  0.0474  0.0295
 3512TIP3   OH231950   1.910   4.066   3.981  0.4147  0.2626  0.5271
 3512TIP3    H131951   1.859   4.142   3.954  0.9637  0.9862  1.4368
 3512TIP3    H231952   1.938   4.087   4.070  1.7025 -0.4246  0.3096
 3513TIP3   OH231953   2.470   1.511  16.643  0.4196  0.4283 -0.2062
 3513TIP3    H131954   2.424   1.561  16.710 -0.2400 -0.5703  0.1107
 3513TIP3    H231955   2.412   1.512  16.567  0.1943 -0.2026 -0.0519
 3514TIP3   OH231956   4.138   3.932   2.684  0.0758  0.4800 -0.1481
 3514TIP3    H131957   4.165   3.995   2.751 -1.8945  1.0999  0.1175
 3514TIP3    H231958   4.113   3.854   2.733  2.0877 -0.4381 -0.4522
 3515TIP3   OH231959   5.284   0.626   2.784  0.5168  0.1506 -0.0157
 3515TIP3    H131960   5.232   0.643   2.705  0.3389  1.3418  0.3291
 3515TIP3    H231961   5.369   0.666   2.766  0.4880  0.3914  0.3791
 3516TIP3   OH231962   6.764   5.218   3.602 -0.2277  0.0601 -0.0644
 3516TIP3    H131963   6.696   5.277   3.572 -1.0843 -1.0678 -0.4179
 3516TIP3    H231964   6.717   5.139   3.629  1.0126 -1.4502 -2.0114
 3517TIP3   OH231965   0.643   3.259  15.676  0.8896 -0.1669 -0.3819
 3517TIP3    H131966   0.708   3.327  15.692  0.1459  0.4416  0.1134
 3517TIP3    H231967   0.595   3.289  15.599 -0.3009  0.5567  0.6013
 3518TIP3   OH231968   5.787   4.801  16.201  0.0310 -0.5488 -0.0036
 3518TIP3    H131969   5.753   4.759  16.280 -0.4353 -0.1879 -0.0032
 3518TIP3    H231970   5.773   4.737  16.131 -0.5045 -0.4666  0.0278
 3519TIP3   OH231971   5.664   1.032  15.802  0.4162  0.2303 -0.1920
 3519TIP3    H131972   5.610   0.983  15.864  1.3295 -0.8647 -0.2242
 3519TIP3    H231973   5.605   1.052  15.729 -0.4094  0.6679  0.5890
 3520TIP3   OH231974   6.669   1.196   4.491 -0.0770 -0.3417  0.4351
 3520TIP3    H131975   6.611   1.226   4.560  1.6499  3.1166  0.5853
 3520TIP3    H231976   6.754   1.185   4.533  0.5641 -0.1177 -0.7436
 3521TIP3   OH231977   4.594   1.456   4.425 -0.0074  0.0611 -0.2209
 3521TIP3    H131978   4.680   1.430   4.456  1.4181  3.4325 -0.9986
 3521TIP3    H231979   4.569   1.386   4.363  0.2219 -3.0267  2.8828
 3522TIP3   OH231980   4.711   3.209   5.818  0.4740 -0.5518 -0.1146
 3522TIP3    H131981   4.694   3.115   5.814  0.2065 -0.4613 -1.8068
 3522TIP3    H231982   4.709   3.230   5.911  0.6841 -2.2412  0.2975
 3523TIP3   OH231983   3.925   3.745   1.721 -0.0974  0.3102 -0.2238
 3523TIP3    H131984   3.930   3.841   1.722 -2.4693  0.5165  1.1590
 3523TIP3    H231985   3.852   3.726   1.663  0.2432 -0.6702 -0.3399
 3524TIP3   OH231986   1.670   2.503  11.195 -0.2832  0.1236 -0.1629
 3524TIP3    H131987   1.617   2.440  11.245  0.4972  0.0382  0.5770
 3524TIP3    H231988   1.760   2.471  11.204 -0.1697 -0.2161 -2.1218
 3525TIP3   OH231989   5.977   4.939   5.892  0.1401  0.2422  0.2891
 3525TIP3    H131990   5.966   4.932   5.986  0.3187 -0.8601  0.2434
 3525TIP3    H231991   6.066   4.972   5.881  1.6119 -3.1549  0.5247
 3526TIP3   OH231992   0.802   1.083  12.792  0.1283  0.1032  0.4679
 3526TIP3    H131993   0.825   1.117  12.706  0.4203  2.2257  1.3302
 3526TIP3    H231994   0.879   1.098  12.846 -0.6035  0.2793  1.5021
 3527TIP3   OH231995   0.626   3.418  14.663 -1.0136 -0.3351  0.1640
 3527TIP3    H131996   0.567   3.428  14.738 -0.4528 -0.2137  0.6019
 3527TIP3    H231997   0.712   3.442  14.698 -0.9196  0.7996 -0.8130
 3528TIP3   OH231998   3.983   0.338   1.288 -0.3481  0.2647 -0.0975
 3528TIP3    H131999   3.888   0.330   1.287 -0.3911  0.4918  1.1524
 3528TIP3    H232000   4.000   0.425   1.252 -0.7349  1.0392  1.5106
 3529TIP3   OH232001   1.572   0.418  13.398 -0.8275 -0.5151  0.1824
 3529TIP3    H132002   1.501   0.381  13.345  0.6109 -1.5636 -1.0864
 3529TIP3    H232003   1.561   0.513  13.390 -2.0623 -0.6532  0.0151
 3530TIP3   OH232004   4.391   5.912   3.514 -0.1486 -0.6312  0.2454
 3530TIP3    H132005   4.467   5.878   3.562 -0.6782  0.6272  2.1063
 3530TIP3    H232006   4.429   5.958   3.439  0.7840 -1.8241 -0.0333
 3531TIP3   OH232007   2.731   6.308  16.840 -0.1367  0.4061  0.1063
 3531TIP3    H132008   2.667   6.359  16.889 -0.8971  1.6952 -2.0946
 3531TIP3    H232009   2.774   6.254  16.906 -3.7722 -0.9091  1.7145
 3532TIP3   OH232010   0.678   4.847   3.537  0.0694  0.2097  0.4737
 3532TIP3    H132011   0.647   4.818   3.623 -1.2296  1.9436  0.6661
 3532TIP3    H232012   0.705   4.767   3.493 -0.5781 -0.8988  1.9789
 3533TIP3   OH232013   1.250   6.425  11.389  0.1189  0.0167  0.7417
 3533TIP3    H132014   1.205   6.508  11.402 -0.5976 -0.1392 -0.6151
 3533TIP3    H232015   1.180   6.362  11.372  0.7697 -0.4438 -0.3261
 3534TIP3   OH232016   6.173   5.535  11.667 -0.7442 -0.0016  0.2073
 3534TIP3    H132017   6.161   5.460  11.726  0.5122 -0.1907  0.2345
 3534TIP3    H232018   6.109   5.520  11.597  1.3189 -2.6215 -1.2886
 3535TIP3   OH232019   1.464   2.881   5.327  0.1131 -0.7262  0.2257
 3535TIP3    H132020   1.518   2.946   5.372  0.3130 -0.5274 -0.2862
 3535TIP3    H232021   1.518   2.802   5.326 -0.1979 -0.9515  0.9964
 3536TIP3   OH232022   4.735   3.241  14.305 -0.0047  0.1617  0.2670
 3536TIP3    H132023   4.808   3.261  14.246  0.5112 -1.8913  0.1135
 3536TIP3    H232024   4.698   3.326  14.328  1.3470  1.1530 -1.0372
 3537TIP3   OH232025   4.742   2.626  13.092 -0.1819  0.4141  0.2011
 3537TIP3    H132026   4.663   2.574  13.076  0.0226 -0.2853  1.4008
 3537TIP3    H232027   4.726   2.669  13.175  0.2304  1.1975 -0.1187
 3538TIP3   OH232028   5.561   4.698   0.074 -0.1049 -0.5788  0.8175
 3538TIP3    H132029   5.647   4.690   0.032  0.0638  0.5073  0.9327
 3538TIP3    H232030   5.578   4.677   0.166  0.0527 -0.2962  0.8540
 3539TIP3   OH232031   2.280   4.959   1.020  0.2398 -0.1856 -0.5111
 3539TIP3    H132032   2.199   5.009   1.009  0.4639 -0.1433 -2.2551
 3539TIP3    H232033   2.295   4.959   1.114 -1.3768  0.4541 -0.2109
 3540TIP3   OH232034   6.565   4.110  14.732  0.4546 -0.6277 -0.2426
 3540TIP3    H132035   6.640   4.169  14.740  0.6665 -1.1323  2.7155
 3540TIP3    H232036   6.596   4.028  14.770 -1.6009 -0.7872  1.2570
 3541TIP3   OH232037   4.974   3.712  15.782 -0.1160  0.1752 -0.2247
 3541TIP3    H132038   4.995   3.663  15.702 -1.3536  0.8228 -0.9718
 3541TIP3    H232039   4.880   3.696  15.795  0.0162  0.3039  0.9545
 3542TIP3   OH232040   0.484   5.115   5.737 -0.0803  0.1106  0.1792
 3542TIP3    H132041   0.434   5.072   5.806 -1.3314 -1.0131 -1.3404
 3542TIP3    H232042   0.449   5.078   5.656  3.4433 -1.0330 -1.0115
 3543TIP3   OH232043   1.933   4.981  17.102 -0.5651 -0.4252 -0.0380
 3543TIP3    H132044   2.028   4.978  17.090 -0.6263 -2.4505 -0.4111
 3543TIP3    H232045   1.901   5.027  17.024  0.1813  2.2157  1.1025
 3544TIP3   OH232046   5.221   4.652  10.994  0.2800 -0.0391  0.8101
 3544TIP3    H132047   5.234   4.572  10.943  1.6103  1.6344 -1.7022
 3544TIP3    H232048   5.308   4.673  11.028  0.2312  0.9634  0.3713
 3545TIP3   OH232049   4.114   6.760   5.496  0.3340 -0.0131  0.0837
 3545TIP3    H132050   4.186   6.742   5.558  0.6340  1.1599  0.0948
 3545TIP3    H232051   4.038   6.775   5.552  0.8419  2.1571  0.2721
 3546TIP3   OH232052   4.450   0.535   1.827  0.0433 -0.0569  0.0139
 3546TIP3    H132053   4.537   0.503   1.803  0.8022  2.1457 -0.4804
 3546TIP3    H232054   4.412   0.564   1.744 -0.6079  0.2314  0.4088
 3547TIP3   OH232055   4.513   1.134  11.919  0.4056 -0.5725  0.2499
 3547TIP3    H132056   4.597   1.152  11.962  0.5907 -1.6712  0.3794
 3547TIP3    H232057   4.447   1.159  11.984  0.5253  2.1677 -0.5526
 3548TIP3   OH232058   2.027   4.146  12.862 -0.1563 -0.2156 -0.1431
 3548TIP3    H132059   1.971   4.144  12.940  1.1763  0.5969  0.8656
 3548TIP3    H232060   2.099   4.087  12.883  1.2813  1.5436  0.1124
 3549TIP3   OH232061   3.025   0.017   2.519 -0.5388 -0.0774 -0.5143
 3549TIP3    H132062   3.000   0.064   2.440  0.4093  1.4019  0.0354
 3549TIP3    H232063   3.087   0.075   2.564 -0.7902 -1.0236  1.1503
 3550TIP3   OH232064   0.842   4.082   5.699 -0.0405 -0.2270 -0.1097
 3550TIP3    H132065   0.805   4.056   5.783 -0.5155  3.3103  0.9312
 3550TIP3    H232066   0.890   4.162   5.717  1.6511 -0.4644 -2.8878
 3551TIP3   OH232067   5.949   0.599  15.968 -0.2262  0.5694 -0.2346
 3551TIP3    H132068   5.925   0.534  15.903 -0.5351  1.5909 -1.1576
 3551TIP3    H232069   5.877   0.662  15.969  1.8491  3.2510 -2.4822
 3552TIP3   OH232070   1.140   4.007   5.914 -0.1152 -0.2096  0.5309
 3552TIP3    H132071   1.225   4.004   5.958 -0.0474 -2.5052  0.3608
 3552TIP3    H232072   1.079   4.038   5.981  0.6929  0.6370  0.8978
 3553TIP3   OH232073   1.445   4.280   4.460  0.4061 -0.1954 -0.0240
 3553TIP3    H132074   1.483   4.363   4.488 -1.8707  0.8718  0.0827
 3553TIP3    H232075   1.446   4.285   4.364 -2.0276  1.1727 -0.0635
 3554TIP3   OH232076   2.037   2.478   5.546  0.2893 -0.1086  0.4348
 3554TIP3    H132077   2.105   2.486   5.614  0.2657 -0.8774  0.5585
 3554TIP3    H232078   2.056   2.394   5.504 -0.7087 -0.4275  0.6011
 3555TIP3   OH232079   1.420   3.345   3.533  0.5453 -0.1463 -0.5174
 3555TIP3    H132080   1.479   3.269   3.534  3.4110  1.8506  2.1161
 3555TIP3    H232081   1.441   3.391   3.452 -0.0856 -1.3168 -1.3670
 3556TIP3   OH232082   4.177   0.941   4.539  0.1487  0.1536 -0.2626
 3556TIP3    H132083   4.222   0.984   4.612  1.9190  1.4584 -2.0006
 3556TIP3    H232084   4.127   1.011   4.496  1.2575  0.0658 -1.7986
 3557TIP3   OH232085   0.538   0.601   3.586 -0.0588 -0.0080 -0.4921
 3557TIP3    H132086   0.548   0.551   3.506 -0.8238  0.1496 -0.6946
 3557TIP3    H232087   0.454   0.646   3.576 -0.4871 -0.5050  0.6739
 3558TIP3   OH232088   3.417   2.390  14.358 -0.0268 -0.3558 -0.1630
 3558TIP3    H132089   3.324   2.410  14.371 -0.2712 -0.8204 -1.1460
 3558TIP3    H232090   3.431   2.311  14.410 -0.4077 -0.7999 -0.7220
 3559TIP3   OH232091   5.195   4.845  12.886 -0.1448 -0.1198  0.2262
 3559TIP3    H132092   5.286   4.874  12.891  0.3645 -1.5768 -0.0042
 3559TIP3    H232093   5.154   4.902  12.821  0.2842  1.2791  1.1266
 3560TIP3   OH232094   6.557   3.721  14.121  0.6115 -0.7104 -0.3717
 3560TIP3    H132095   6.469   3.693  14.095  0.2883  1.9323 -2.4763
 3560TIP3    H232096   6.615   3.681  14.057  0.6363 -0.1938 -0.6721
 3561TIP3   OH232097   1.465   4.270   3.925  0.3563 -0.4015 -0.4088
 3561TIP3    H132098   1.380   4.309   3.906 -0.1096  0.6931  3.1868
 3561TIP3    H232099   1.527   4.343   3.921  0.4324 -0.3787  0.7594
 3562TIP3   OH232100   5.257   2.535  15.846 -0.4484  0.6674  0.2429
 3562TIP3    H132101   5.231   2.623  15.873 -0.0596  1.6954 -2.4217
 3562TIP3    H232102   5.215   2.522  15.761  1.2601 -0.8159 -0.4501
 3563TIP3   OH232103   3.749   5.285  12.153  0.4703  0.4757 -0.7823
 3563TIP3    H132104   3.742   5.367  12.103  0.9886  0.5769 -0.7006
 3563TIP3    H232105   3.810   5.306  12.224 -0.3682  0.3699 -0.0201
 3564TIP3   OH232106   2.638   6.008  12.343  0.3355  0.3728  0.1434
 3564TIP3    H132107   2.692   6.085  12.324 -0.2802  0.8604  0.3175
 3564TIP3    H232108   2.596   6.029  12.426 -2.1393  1.1723 -1.1985
 3565TIP3   OH232109   5.588   3.591  16.084 -0.1263 -0.1441  0.2996
 3565TIP3    H132110   5.510   3.592  16.028  0.5164 -1.9295 -0.7026
 3565TIP3    H232111   5.650   3.649  16.040 -0.3400  0.0544  0.2569
 3566TIP3   OH232112   6.497   3.203   4.673 -0.1208 -0.7380  0.3499
 3566TIP3    H132113   6.505   3.285   4.721 -0.6422 -0.2646 -0.3607
 3566TIP3    H232114   6.588   3.180   4.652 -0.0649  0.7976 -1.3149
 3567TIP3   OH232115   4.827   0.799   5.169  0.6763 -0.0718  0.2192
 3567TIP3    H132116   4.892   0.776   5.103 -0.1433 -3.0325  0.2773
 3567TIP3    H232117   4.833   0.894   5.177  2.5458  0.1244 -2.2554
 3568TIP3   OH232118   3.212   4.715   4.678 -0.1653 -0.5323 -0.0403
 3568TIP3    H132119   3.221   4.633   4.630 -0.8788 -0.7331  0.1523
 3568TIP3    H232120   3.138   4.760   4.636  1.9751  1.3742 -2.0310
 3569TIP3   OH232121   5.470   2.934  17.250 -0.2251 -0.0386  0.2932
 3569TIP3    H132122   5.465   2.884  17.169 -0.1003 -0.1777  0.3709
 3569TIP3    H232123   5.392   2.907  17.300 -0.4603  0.2685  0.0951
 3570TIP3   OH232124   4.737   0.977   0.345  0.0919  0.4173 -0.0059
 3570TIP3    H132125   4.723   1.025   0.426  0.3552 -0.9882  0.9189
 3570TIP3    H232126   4.775   1.041   0.284 -0.8785  1.6996  0.6965
 3571TIP3   OH232127   2.060   6.632  10.980 -0.1244  0.1649  0.0588
 3571TIP3    H132128   2.010   6.561  10.939 -1.0791  1.4656 -1.1382
 3571TIP3    H232129   2.151   6.613  10.958 -0.1633 -1.5906  1.2302
 3572TIP3   OH232130   0.413   3.840   0.956 -0.3255  0.1890 -0.3899
 3572TIP3    H132131   0.508   3.832   0.970  0.0409  0.4691 -2.3621
 3572TIP3    H232132   0.389   3.758   0.912 -0.5772  0.9276 -1.6950
 3573TIP3   OH232133   2.305   1.689   4.653  0.0063 -0.2998  0.1024
 3573TIP3    H132134   2.370   1.722   4.716  0.1623  1.0519 -0.7305
 3573TIP3    H232135   2.269   1.768   4.612  0.0727 -1.1570 -1.6765
 3574TIP3   OH232136   0.086   4.564  12.095 -0.3453  0.0278  0.8456
 3574TIP3    H132137   0.022   4.511  12.048  0.3204 -1.5457  1.6399
 3574TIP3    H232138   0.036   4.638  12.129 -1.8286 -1.2712  1.6264
 3575TIP3   OH232139   3.597   6.070  13.524 -0.0396 -0.1151  0.0183
 3575TIP3    H132140   3.529   6.120  13.568 -0.2778 -2.6874  2.9072
 3575TIP3    H232141   3.554   5.988  13.498  1.3652 -0.7825 -0.3097
 3576TIP3   OH232142   0.078   1.787  15.200  0.6163 -0.1057  0.2175
 3576TIP3    H132143   0.022   1.713  15.223  2.2590 -2.0892 -1.7544
 3576TIP3    H232144   0.111   1.818  15.284 -1.4213 -0.4664  1.2247
 3577TIP3   OH232145   2.321   6.182   3.918 -0.0858  0.0103 -0.0637
 3577TIP3    H132146   2.393   6.122   3.900  0.9066  0.7814  1.1412
 3577TIP3    H232147   2.315   6.184   4.014 -1.8247 -0.1506 -0.1273
 3578TIP3   OH232148   4.611   0.858   4.025  0.6273 -0.2179  0.3086
 3578TIP3    H132149   4.565   0.859   3.941 -0.1732  2.1189  0.7044
 3578TIP3    H232150   4.662   0.777   4.023 -0.3460 -0.8603 -1.8755
 3579TIP3   OH232151   4.169   0.883  16.391  0.1289  0.1233  0.1079
 3579TIP3    H132152   4.263   0.896  16.402  0.3701  0.3539 -1.9184
 3579TIP3    H232153   4.140   0.959  16.340 -1.0574 -0.2153  0.2610
 3580TIP3   OH232154   0.182   0.697   1.337  0.1200  0.1032  1.2275
 3580TIP3    H132155   0.261   0.667   1.292  0.3315  2.7280 -0.3112
 3580TIP3    H232156   0.208   0.703   1.429  1.3996 -0.0055  0.8898
 3581TIP3   OH232157   0.194   5.644  10.844 -0.3934  0.1583 -0.0517
 3581TIP3    H132158   0.239   5.688  10.916 -0.6755 -0.0122  0.2269
 3581TIP3    H232159   0.182   5.712  10.778  0.4228  0.1709 -0.1991
 3582TIP3   OH232160   1.782   2.735  15.070  0.2121 -0.4427 -0.5255
 3582TIP3    H132161   1.834   2.780  15.136 -0.2195  0.5720 -0.8562
 3582TIP3    H232162   1.826   2.755  14.987 -0.0025 -0.6046 -0.6792
 3583TIP3   OH232163   2.163   6.014   4.998  0.2658  0.6155  0.3699
 3583TIP3    H132164   2.089   6.029   4.939 -0.6675  2.6150  1.9141
 3583TIP3    H232165   2.188   6.102   5.028  2.5498 -0.1038  0.7697
 3584TIP3   OH232166   2.190   2.062  11.414 -0.2445  0.5952 -0.0715
 3584TIP3    H132167   2.101   2.052  11.450 -0.7705 -0.1349 -1.4831
 3584TIP3    H232168   2.222   2.143  11.453 -1.5686  0.9240  0.4158
 3585TIP3   OH232169   3.279   2.857   6.161 -0.9446  0.9261 -0.4465
 3585TIP3    H132170   3.205   2.800   6.183 -1.2918  1.2541 -0.7350
 3585TIP3    H232171   3.275   2.927   6.226  1.1266 -0.7512  1.6603
 3586TIP3   OH232172   1.238   1.471  14.016  0.8569  0.2617 -0.4082
 3586TIP3    H132173   1.159   1.470  13.962  0.7476 -0.7329 -0.2499
 3586TIP3    H232174   1.205   1.485  14.105  1.0476  2.0416 -0.5920
 3587TIP3   OH232175   3.874   1.868   2.554  0.3620  0.1680 -0.4000
 3587TIP3    H132176   3.893   1.942   2.612 -1.0223 -1.3321  2.1104
 3587TIP3    H232177   3.781   1.874   2.536  0.0667 -1.3810  0.4851
 3588TIP3   OH232178   4.241   5.395   1.662 -0.1296  0.0513  0.1797
 3588TIP3    H132179   4.330   5.361   1.669  0.0126  0.0011 -1.5064
 3588TIP3    H232180   4.239   5.440   1.577 -1.3180  1.2631  0.8109
 3589TIP3   OH232181   4.447   4.722   4.949 -0.7643  0.1201 -0.4321
 3589TIP3    H132182   4.426   4.772   5.027 -0.3392  0.6751 -0.6659
 3589TIP3    H232183   4.480   4.638   4.982 -3.1434 -0.7389 -0.0550
 3590TIP3   OH232184   4.091   1.387   1.062  0.2193  0.5251  0.4556
 3590TIP3    H132185   4.061   1.427   0.980  1.3440  1.6667  0.5677
 3590TIP3    H232186   4.014   1.386   1.118 -0.5321 -0.1502 -0.5605
 3591TIP3   OH232187   4.937   4.287  15.200 -0.3523 -0.3111 -0.3762
 3591TIP3    H132188   4.847   4.255  15.197 -0.3947 -0.2014 -0.2898
 3591TIP3    H232189   4.976   4.244  15.277 -0.3036 -0.4284 -0.4665
 3592TIP3   OH232190   0.747   4.685   3.936  0.2786  0.8085 -0.0925
 3592TIP3    H132191   0.719   4.720   3.851  0.9562 -2.2318 -1.7075
 3592TIP3    H232192   0.671   4.634   3.967  0.7337  0.2343  0.1060
 3593TIP3   OH232193   1.454   5.668  12.848  0.5412  0.0151 -0.8325
 3593TIP3    H132194   1.383   5.606  12.831 -0.4529  0.6454  0.7782
 3593TIP3    H232195   1.499   5.632  12.924  0.9862  0.4287 -0.8927
 3594TIP3   OH232196   0.511   2.450   3.321 -0.1206  0.1297  0.0533
 3594TIP3    H132197   0.444   2.450   3.389 -0.0770  0.7943  0.0980
 3594TIP3    H232198   0.526   2.357   3.303  0.8014 -0.1080  1.8475
 3595TIP3   OH232199   1.413   5.813  15.861 -0.0697 -0.5964 -0.1435
 3595TIP3    H132200   1.389   5.721  15.845  0.3344 -0.9196  1.0266
 3595TIP3    H232201   1.331   5.855  15.888 -0.2986 -0.5516 -0.8783
 3596TIP3   OH232202   1.527   2.569  14.241 -0.6268 -0.1611  0.3865
 3596TIP3    H132203   1.603   2.627  14.230 -0.7589  0.1048  0.8663
 3596TIP3    H232204   1.564   2.481  14.241 -0.4456 -0.0970 -0.5923
 3597TIP3   OH232205   0.304   3.439   5.111 -0.0169  0.3827  0.0482
 3597TIP3    H132206   0.297   3.350   5.145  0.6209  0.9120  1.6363
 3597TIP3    H232207   0.214   3.473   5.115 -0.4493 -0.4817 -1.5042
 3598TIP3   OH232208   4.961   1.363   0.421  0.1506  0.0024 -0.0041
 3598TIP3    H132209   4.873   1.346   0.390 -0.9447 -0.1044  2.8969
 3598TIP3    H232210   5.009   1.282   0.404  0.0590  0.3902 -2.4934
 3599TIP3   OH232211   5.995   1.401  11.108  0.6257 -0.3248 -0.1417
 3599TIP3    H132212   5.984   1.326  11.050  0.8306 -0.0037 -0.6075
 3599TIP3    H232213   6.033   1.469  11.052 -0.0511  0.3018  0.1413
 3600TIP3   OH232214   5.004   2.971  12.987 -0.3569 -0.1123 -0.7530
 3600TIP3    H132215   5.016   3.019  12.905 -0.1572  0.8793 -0.1578
 3600TIP3    H232216   5.036   3.030  13.055  1.7710 -1.8227 -0.1413
 3601TIP3   OH232217   6.022   3.628   3.958  0.5168  0.1097  0.3402
 3601TIP3    H132218   5.958   3.669   4.015 -0.4288 -2.2763  1.1026
 3601TIP3    H232219   6.044   3.545   4.001  1.9490 -0.4501 -1.3385
 3602TIP3   OH232220   1.233   0.846  12.541 -0.9716  0.1886  0.6770
 3602TIP3    H132221   1.189   0.804  12.467  0.8106  1.6069 -1.2947
 3602TIP3    H232222   1.197   0.935  12.543 -0.7291  0.2808  1.2787
 3603TIP3   OH232223   0.879   6.385   3.570  0.2252  0.2002 -0.5713
 3603TIP3    H132224   0.956   6.355   3.521 -0.0566 -0.3515 -0.6828
 3603TIP3    H232225   0.881   6.481   3.561  0.1634  0.1144 -1.7029
 3604TIP3   OH232226   3.488   5.259  14.886 -0.3605 -0.0615  0.2647
 3604TIP3    H132227   3.516   5.280  14.974  1.4567  0.4227 -0.3993
 3604TIP3    H232228   3.552   5.301  14.829 -2.0796  0.5314 -1.3303
 3605TIP3   OH232229   4.910   5.235  12.554  0.0495  0.4311 -0.1582
 3605TIP3    H132230   4.975   5.286  12.506  1.1998  0.9100  1.7669
 3605TIP3    H232231   4.878   5.295  12.621  0.1412 -0.8067  1.0426
 3606TIP3   OH232232   3.199   1.074   2.922  0.9507  0.3046 -0.3858
 3606TIP3    H132233   3.214   0.980   2.919  0.4591  0.2365 -1.1151
 3606TIP3    H232234   3.285   1.112   2.938  0.8357 -0.3533  2.2948
 3607TIP3   OH232235   3.454   1.874  12.669  0.3654 -0.6032  0.8335
 3607TIP3    H132236   3.470   1.961  12.633 -2.1115 -0.8164 -1.0105
 3607TIP3    H232237   3.428   1.889  12.760 -1.8391  0.8244  0.0341
 3608TIP3   OH232238   2.509   6.407   3.475 -0.2767 -0.0144 -0.6846
 3608TIP3    H132239   2.541   6.317   3.474 -0.7383 -0.2022  0.1965
 3608TIP3    H232240   2.447   6.409   3.548  1.0057  1.4509  0.4244
 3609TIP3   OH232241   0.872   5.452  17.157  0.8281  0.0931 -0.2980
 3609TIP3    H132242   0.859   5.358  17.161 -0.0167  0.0826 -2.0670
 3609TIP3    H232243   0.826   5.487  17.233 -0.0532 -0.8419 -0.3861
 3610TIP3   OH232244   3.432   5.417   6.802  0.7565 -0.0992  0.3071
 3610TIP3    H132245   3.368   5.348   6.820  0.2245 -0.2404 -1.8465
 3610TIP3    H232246   3.383   5.483   6.753  2.2781 -0.3750 -1.7120
 3611TIP3   OH232247   0.646   0.854  12.786  0.1960  0.0966  0.2124
 3611TIP3    H132248   0.697   0.935  12.785 -0.2189  0.3620  0.0568
 3611TIP3    H232249   0.555   0.884  12.794 -0.2697 -0.2104 -2.8456
 3612TIP3   OH232250   5.746   0.879  12.026  0.0686 -0.0524 -0.9409
 3612TIP3    H132251   5.716   0.969  12.017  0.1446  0.1293  0.4317
 3612TIP3    H232252   5.754   0.847  11.936  0.5410  1.4685 -1.4585
 3613TIP3   OH232253   2.440   5.744  17.073 -0.4991 -0.5623  0.3364
 3613TIP3    H132254   2.489   5.805  17.127 -1.6894  1.3357 -0.6097
 3613TIP3    H232255   2.498   5.668  17.063  1.7166  1.0397  0.2986
 3614TIP3   OH232256   1.303   2.585  13.651 -0.7391  0.3489  0.4995
 3614TIP3    H132257   1.381   2.629  13.617 -0.8961  0.1665 -0.1078
 3614TIP3    H232258   1.277   2.637  13.727  0.0617  0.3213  0.8066
 3615TIP3   OH232259   3.024   2.427   3.263  0.4751  0.2464  0.4398
 3615TIP3    H132260   3.103   2.399   3.308  0.9550 -0.9745 -1.0945
 3615TIP3    H232261   2.996   2.351   3.212 -0.7493  1.1732 -0.3379
 3616TIP3   OH232262   1.511   5.442   2.977  0.2775 -0.0155  0.4697
 3616TIP3    H132263   1.443   5.481   3.032  0.2588 -0.2202  0.5948
 3616TIP3    H232264   1.545   5.514   2.925  0.3074  0.1846  0.7646
 3617TIP3   OH232265   1.665   4.231   4.625 -0.3984 -0.0887 -0.2246
 3617TIP3    H132266   1.600   4.189   4.568 -0.6651 -0.5792  0.4371
 3617TIP3    H232267   1.619   4.247   4.707 -0.0146  0.6297 -0.1435
 3618TIP3   OH232268   3.419   5.295  11.720 -0.4966 -0.4927  0.1765
 3618TIP3    H132269   3.424   5.246  11.802  0.6292 -1.3592 -0.3858
 3618TIP3    H232270   3.510   5.306  11.693 -0.7037  1.8929  0.2432
 3619TIP3   OH232271   5.368   5.747  11.408 -0.2414 -0.1574 -0.3918
 3619TIP3    H132272   5.357   5.803  11.484 -1.1655  0.6161 -1.0709
 3619TIP3    H232273   5.295   5.685  11.412 -0.8287  0.4704 -1.1217
 3620TIP3   OH232274   6.214   4.540  11.231 -0.7394  0.0834  0.2873
 3620TIP3    H132275   6.157   4.500  11.297  0.1684 -1.5686  0.1031
 3620TIP3    H232276   6.251   4.467  11.182  1.3940  1.0821  0.2663
 3621TIP3   OH232277   6.717   0.359   2.161 -0.0213 -0.2258 -0.3257
 3621TIP3    H132278   6.731   0.361   2.255 -0.3852 -1.4944 -0.2169
 3621TIP3    H232279   6.771   0.286   2.130  1.1697  1.0353 -1.3183
 3622TIP3   OH232280   2.334   5.179   1.281  0.3053  0.3739  0.3432
 3622TIP3    H132281   2.291   5.101   1.316 -0.8321  0.4556 -0.8024
 3622TIP3    H232282   2.380   5.217   1.356 -0.4572 -0.5167  1.2828
 3623TIP3   OH232283   3.932   2.506  15.140 -0.3518  0.1766 -0.1059
 3623TIP3    H132284   3.972   2.585  15.175  2.6635 -1.2924  0.0732
 3623TIP3    H232285   3.930   2.520  15.045  0.7508  0.2562 -0.1272
 3624TIP3   OH232286   5.399   3.389   2.139 -0.3900  0.4259 -0.0508
 3624TIP3    H132287   5.494   3.397   2.132 -0.6226  2.3174 -2.2947
 3624TIP3    H232288   5.382   3.383   2.234  1.9484 -0.7204  0.3598
 3625TIP3   OH232289   0.906   6.267   2.461 -0.5279 -0.3290 -0.1320
 3625TIP3    H132290   0.929   6.359   2.469 -1.0864 -0.3608  3.0970
 3625TIP3    H232291   0.810   6.266   2.465 -0.7227 -0.9421 -2.8748
 3626TIP3   OH232292   2.923   6.270   5.169 -0.0892 -0.0742 -0.1641
 3626TIP3    H132293   2.828   6.273   5.164 -0.2333 -1.7454  0.9797
 3626TIP3    H232294   2.942   6.206   5.237  1.8374  1.8329  1.2448
 3627TIP3   OH232295   5.170   2.169  12.930  0.1533 -0.0964  0.6555
 3627TIP3    H132296   5.094   2.112  12.917  0.9701 -1.0369 -0.1926
 3627TIP3    H232297   5.229   2.118  12.985 -0.3226  1.1332  2.4102
 3628TIP3   OH232298   3.333   2.914  13.648  0.2196  0.5558 -0.5210
 3628TIP3    H132299   3.288   2.844  13.695  1.6910  0.1576  0.3621
 3628TIP3    H232300   3.310   2.993  13.696  0.2852  0.3894 -0.2142
 3629TIP3   OH232301   6.455   4.683   0.944  0.8424 -0.4378 -0.5523
 3629TIP3    H132302   6.526   4.623   0.967  1.7839  1.1045  0.7992
 3629TIP3    H232303   6.485   4.768   0.976 -0.5512  0.7150 -2.1881
 3630TIP3   OH232304   2.060   2.735   2.384  0.2604  0.0447  0.3223
 3630TIP3    H132305   1.979   2.683   2.380 -0.7725  1.5411  1.0224
 3630TIP3    H232306   2.125   2.680   2.341 -1.3099 -0.8460 -1.0344
 3631TIP3   OH232307   5.500   3.189  17.297 -0.0808  0.2160 -0.1393
 3631TIP3    H132308   5.501   3.094  17.284  0.3932  0.0563  0.9772
 3631TIP3    H232309   5.534   3.224  17.214 -0.8390 -0.5405 -0.7914
 3632TIP3   OH232310   2.778   2.510  14.387 -0.1878  0.0697 -0.5453
 3632TIP3    H132311   2.786   2.433  14.330  0.8363 -1.1276  1.1444
 3632TIP3    H232312   2.867   2.532  14.410 -0.2509  3.2567 -2.7609
 3633TIP3   OH232313   4.880   1.678  10.953  0.3156  0.2596 -0.1720
 3633TIP3    H132314   4.806   1.624  10.923 -0.1275  0.7188  0.0988
 3633TIP3    H232315   4.957   1.628  10.926 -0.0686 -1.2026  1.2715
 3634TIP3   OH232316   1.672   3.925   3.297 -0.3472  0.2025 -0.1014
 3634TIP3    H132317   1.690   3.939   3.390 -0.6151  1.1090 -0.1802
 3634TIP3    H232318   1.754   3.890   3.262  0.1718  1.0610  0.2248
 3635TIP3   OH232319   5.793   6.599  11.739 -0.2971  0.5057  0.3876
 3635TIP3    H132320   5.709   6.575  11.776 -0.1586 -2.5602 -0.9009
 3635TIP3    H232321   5.772   6.659  11.668 -1.3678  0.1410  0.3792
 3636TIP3   OH232322   0.217   5.967  16.357  0.1171  0.6418 -0.6691
 3636TIP3    H132323   0.234   5.993  16.267  0.3764 -2.6153 -1.7181
 3636TIP3    H232324   0.303   5.943  16.392 -0.0040  1.7135  0.4227
 3637TIP3   OH232325   2.271   0.161  17.144 -0.2218 -0.2564  0.3051
 3637TIP3    H132326   2.282   0.070  17.115 -1.1385 -0.5687  0.8950
 3637TIP3    H232327   2.212   0.200  17.080  0.2478 -0.0395 -0.0032
 3638TIP3   OH232328   0.052   3.429   5.563 -0.1610 -0.3394 -0.7257
 3638TIP3    H132329   0.135   3.382   5.576  0.0940  0.3484  0.2680
 3638TIP3    H232330   0.023   3.452   5.652 -1.2813 -0.3288 -1.0769
 3639TIP3   OH232331   0.639   2.964   5.843  0.1846 -0.0827  0.1399
 3639TIP3    H132332   0.605   2.922   5.923 -0.2940 -0.2704 -0.1550
 3639TIP3    H232333   0.560   2.988   5.794  0.4788 -0.6379 -0.6232
 3640TIP3   OH232334   3.915   3.061   2.018 -0.0037  0.3429  0.2259
 3640TIP3    H132335   3.884   3.070   1.928 -0.5808 -2.6047  0.0226
 3640TIP3    H232336   3.986   2.996   2.013  1.2719  1.5396  1.6686
 3641TIP3   OH232337   5.160   5.521   0.848  0.4837 -0.2953 -0.0521
 3641TIP3    H132338   5.241   5.471   0.836  0.8879 -0.2510  2.0906
 3641TIP3    H232339   5.183   5.590   0.909 -1.0993 -0.0452  0.3091
 3642TIP3   OH232340   2.877   3.131   4.893  1.0246 -0.2542 -0.0233
 3642TIP3    H132341   2.834   3.166   4.815  0.0967  0.5986  0.8289
 3642TIP3    H232342   2.843   3.042   4.902  1.0704 -0.3250 -0.5425
 3643TIP3   OH232343   5.832   5.296   0.303 -0.1007 -0.3460  0.8314
 3643TIP3    H132344   5.797   5.385   0.302 -1.7336 -0.9460 -0.0815
 3643TIP3    H232345   5.802   5.259   0.386  0.0177 -0.2497  0.9172
 3644TIP3   OH232346   6.609   5.272   0.830 -0.0774  0.1299 -0.3515
 3644TIP3    H132347   6.542   5.204   0.842  1.1433 -1.0832 -0.2434
 3644TIP3    H232348   6.640   5.292   0.918  0.5991 -0.2361 -0.5035
 3645TIP3   OH232349   2.391   3.787   1.687 -0.7777 -0.2274 -0.3957
 3645TIP3    H132350   2.403   3.878   1.660 -0.1828 -0.1818 -0.0022
 3645TIP3    H232351   2.378   3.739   1.606  1.5467 -0.1861 -0.8535
 3646TIP3   OH232352   4.901   0.871  12.715  0.2792  0.0813  0.0095
 3646TIP3    H132353   4.970   0.936  12.701 -0.4406  0.5370 -1.6726
 3646TIP3    H232354   4.899   0.821  12.634 -1.6067  0.3195 -0.1364
 3647TIP3   OH232355   2.980   1.957   4.385 -0.2448 -0.1443  0.3833
 3647TIP3    H132356   3.014   2.007   4.460 -2.2785 -0.3732  1.5252
 3647TIP3    H232357   2.886   1.972   4.387 -0.5850 -1.8811 -0.8540
 3648TIP3   OH232358   6.376   3.200  14.847 -0.2712  0.7538  0.1238
 3648TIP3    H132359   6.299   3.177  14.794 -0.7780  0.8488  0.7956
 3648TIP3    H232360   6.340   3.250  14.920  0.5771  1.8467 -0.1808
 3649TIP3   OH232361   0.944   5.939   4.164 -1.4176  0.2733 -0.0023
 3649TIP3    H132362   1.019   5.994   4.142  1.9185 -4.2481 -1.6643
 3649TIP3    H232363   0.877   5.962   4.100 -0.3175  2.4300 -0.4625
 3650TIP3   OH232364   2.910   5.295  14.153  0.1767  0.0456 -0.4081
 3650TIP3    H132365   2.926   5.306  14.247  1.4063  0.3728 -0.6333
 3650TIP3    H232366   2.989   5.251  14.121  0.0039  0.4320 -1.3776
 3651TIP3   OH232367   6.137   5.612   3.765 -0.4557  0.6048  0.1939
 3651TIP3    H132368   6.123   5.703   3.740 -0.9328  0.0033 -1.8705
 3651TIP3    H232369   6.208   5.582   3.708 -1.3234 -0.7272 -0.2106
 3652TIP3   OH232370   2.849   5.035  13.368  0.4676 -0.6547 -0.1243
 3652TIP3    H132371   2.760   5.032  13.402  0.3820 -2.4614 -0.4069
 3652TIP3    H232372   2.893   5.102  13.420 -0.9533  0.0511  0.2164
 3653TIP3   OH232373   0.748   6.201   4.457  0.0308  0.1356 -0.0335
 3653TIP3    H132374   0.729   6.202   4.551  3.7728  1.4016  0.9063
 3653TIP3    H232375   0.704   6.279   4.423 -2.2170 -0.8859  0.3774
 3654TIP3   OH232376   1.480   5.727   1.853 -0.1154  0.2691 -0.3129
 3654TIP3    H132377   1.572   5.743   1.833  0.4243 -1.8226  0.2876
 3654TIP3    H232378   1.479   5.642   1.896 -2.2632  0.5861  0.3709
 3655TIP3   OH232379   3.778   2.783   4.566 -0.5978 -0.1694  0.5137
 3655TIP3    H132380   3.847   2.840   4.532 -1.4422  0.9602  0.6085
 3655TIP3    H232381   3.770   2.810   4.658 -1.4856  0.0666  0.3754
 3656TIP3   OH232382   6.450   6.336  13.883  0.7607 -0.2646 -0.8168
 3656TIP3    H132383   6.399   6.276  13.938  0.9488  0.5829  0.3323
 3656TIP3    H232384   6.401   6.419  13.887  0.9616 -0.0996 -1.6671
 3657TIP3   OH232385   6.433   5.840   3.538  0.4617 -0.6423  0.0838
 3657TIP3    H132386   6.460   5.871   3.625 -0.1272 -1.9407  0.7555
 3657TIP3    H232387   6.453   5.913   3.480 -1.0684  1.1240  1.6226
 3658TIP3   OH232388   3.511   4.285   6.850 -0.3351  0.0750  0.0111
 3658TIP3    H132389   3.548   4.373   6.850 -0.6285  0.2013 -0.3239
 3658TIP3    H232390   3.450   4.284   6.923 -0.2008  0.0938  0.1237
 3659TIP3   OH232391   2.327   6.358   3.677  0.2213 -0.7301  0.4419
 3659TIP3    H132392   2.312   6.317   3.762 -1.8709 -0.1790  0.4057
 3659TIP3    H232393   2.255   6.327   3.622 -0.6990  1.8721  0.0247
 3660TIP3   OH232394   0.122   6.047   6.407 -0.1543  0.2859 -0.2997
 3660TIP3    H132395   0.059   6.095   6.460  1.9066  2.2673  0.5608
 3660TIP3    H232396   0.172   6.115   6.362  1.5192 -1.1599 -0.7554
 3661TIP3   OH232397   1.941   0.449   5.410 -0.1023  0.1043 -0.1504
 3661TIP3    H132398   2.016   0.471   5.465  0.4985 -0.8264 -0.5758
 3661TIP3    H232399   1.875   0.415   5.470 -0.1662  0.8682  0.2182
 3662TIP3   OH232400   6.266   5.794   6.573  0.2994  0.3646  0.5227
 3662TIP3    H132401   6.203   5.735   6.532  0.6615  1.1475 -1.3029
 3662TIP3    H232402   6.351   5.754   6.553  0.5152  1.1480 -0.1782
 3663TIP3   OH232403   4.915   5.416  12.762  0.0517 -0.2620  0.2862
 3663TIP3    H132404   4.872   5.451  12.840  0.9632  2.2779 -0.2589
 3663TIP3    H232405   4.897   5.480  12.694  1.4237 -1.1153 -0.9382
 3664TIP3   OH232406   4.696   4.325   1.964  0.3138  0.0621 -0.1034
 3664TIP3    H132407   4.607   4.294   1.980  0.7404 -2.9843 -2.4589
 3664TIP3    H232408   4.751   4.270   2.020  0.8619 -0.7217 -1.3540
 3665TIP3   OH232409   0.493   2.657  13.473 -0.1451  0.1894 -0.4012
 3665TIP3    H132410   0.579   2.623  13.495 -1.0303 -1.8610  0.0926
 3665TIP3    H232411   0.498   2.676  13.379  1.1544  1.2046 -0.1591
 3666TIP3   OH232412   5.455   6.146  15.190 -0.1735  0.3485  0.0245
 3666TIP3    H132413   5.436   6.053  15.186  1.2451  0.0728 -1.2280
 3666TIP3    H232414   5.380   6.184  15.236 -0.2138 -1.5499  1.6633
 3667TIP3   OH232415   2.185   1.093   5.076 -0.5356 -0.6435  0.1555
 3667TIP3    H132416   2.276   1.072   5.096 -0.6899 -3.1811 -1.3577
 3667TIP3    H232417   2.188   1.178   5.033  0.8542  0.2307  1.8686
 3668TIP3   OH232418   5.035   6.716  14.854  0.1648  0.0669 -0.3599
 3668TIP3    H132419   4.949   6.750  14.830  0.8281  1.1495 -1.2922
 3668TIP3    H232420   5.040   6.631  14.810  0.1500  0.6766 -1.5978
 3669TIP3   OH232421   0.309   1.200  10.625 -0.0235  0.1237 -0.0675
 3669TIP3    H132422   0.249   1.193  10.699  2.4884  1.2994  2.2543
 3669TIP3    H232423   0.381   1.141  10.646  0.1360 -0.5944 -2.3288
 3670TIP3   OH232424   5.897   4.677  11.183 -0.1794  0.0548 -0.0811
 3670TIP3    H132425   5.980   4.695  11.139 -0.2329  0.2449 -0.1060
 3670TIP3    H232426   5.875   4.759  11.228 -1.6429  0.9308 -2.1829
 3671TIP3   OH232427   1.153   3.396  12.777 -0.1277 -0.8443 -0.7389
 3671TIP3    H132428   1.242   3.418  12.747 -0.3828  0.0889 -0.8407
 3671TIP3    H232429   1.129   3.469  12.835 -0.8546 -1.0578 -0.7677
 3672TIP3   OH232430   1.242   0.400  16.345 -0.2514  0.4080  0.3598
 3672TIP3    H132431   1.216   0.480  16.300  2.3015  0.2613 -1.6356
 3672TIP3    H232432   1.336   0.394  16.330 -0.1483 -2.3310  1.5134
 3673TIP3   OH232433   3.105   0.861   4.299 -0.3106 -0.2366  1.0988
 3673TIP3    H132434   3.138   0.785   4.253 -0.5747 -0.0643  0.6189
 3673TIP3    H232435   3.011   0.845   4.309 -0.6462  0.6632 -0.2961
 3674TIP3   OH232436   6.440   4.394  12.768 -0.6017  0.0196  0.5120
 3674TIP3    H132437   6.376   4.323  12.771 -0.1108 -0.4143  2.1200
 3674TIP3    H232438   6.431   4.438  12.852  0.1942  0.8763  0.1697
 3675TIP3   OH232439   4.735   3.635   5.133  0.1686  0.5106 -0.3790
 3675TIP3    H132440   4.669   3.695   5.168  0.9091  1.2462 -0.2412
 3675TIP3    H232441   4.786   3.608   5.209 -0.5549 -0.8356 -0.3235
 3676TIP3   OH232442   0.125   1.236  14.440 -0.7083 -0.4851 -0.5524
 3676TIP3    H132443   0.218   1.218  14.435 -0.8664 -1.4857 -0.0749
 3676TIP3    H232444   0.085   1.152  14.462 -1.6008  0.1709  0.4634
 3677TIP3   OH232445   2.867   0.938  11.694 -0.4430 -0.0905  0.1803
 3677TIP3    H132446   2.867   1.024  11.652 -1.0859 -0.1368  0.0746
 3677TIP3    H232447   2.956   0.904  11.680 -0.5503  0.0358 -0.8573
 3678TIP3   OH232448   6.401   1.829  16.366 -0.7462 -0.3471  0.6791
 3678TIP3    H132449   6.457   1.817  16.442 -1.0008  0.0002  0.9241
 3678TIP3    H232450   6.460   1.863  16.298 -0.7868  0.7350  1.1561
 3679TIP3   OH232451   2.029   6.586   5.319 -0.4008 -0.1489 -0.1686
 3679TIP3    H132452   2.106   6.580   5.375 -1.4166  0.8739  1.4365
 3679TIP3    H232453   2.030   6.506   5.267 -0.2947 -2.0095  2.5161
 3680TIP3   OH232454   3.254   4.317  13.079 -0.1997  0.1359  0.1626
 3680TIP3    H132455   3.226   4.303  12.989  1.3678  2.2376 -0.7348
 3680TIP3    H232456   3.203   4.392  13.109  1.2691  1.2447 -0.0041
 3681TIP3   OH232457   1.928   0.974  10.968 -0.2983  0.1732  0.1531
 3681TIP3    H132458   1.878   0.914  11.024  0.2928 -0.1836  0.3110
 3681TIP3    H232459   1.901   1.062  10.997 -2.3193  0.0303 -1.0987
 3682TIP3   OH232460   2.706   1.912   4.622  0.0032 -0.2901  0.8238
 3682TIP3    H132461   2.698   1.842   4.558  0.4538 -0.7092  1.2149
 3682TIP3    H232462   2.787   1.892   4.670  0.6196  0.9668  0.3595
 3683TIP3   OH232463   0.302   0.062  13.235 -0.2389  0.9106  0.1029
 3683TIP3    H132464   0.338  -0.007  13.291 -4.0764 -1.9529 -0.5937
 3683TIP3    H232465   0.238   0.107  13.290 -0.9892  0.9109 -0.7627
 3684TIP3   OH232466   5.803   0.680  14.273 -0.4619  0.0744  0.3658
 3684TIP3    H132467   5.756   0.676  14.355 -1.1136  0.0830 -0.0017
 3684TIP3    H232468   5.834   0.771  14.267  0.0027 -0.0518  0.8234
 3685TIP3   OH232469   2.670   5.362  16.241 -0.8181 -0.1881  0.0058
 3685TIP3    H132470   2.700   5.429  16.302  2.9121 -1.0043 -0.7058
 3685TIP3    H232471   2.612   5.409  16.180  0.3363  2.0237  0.5070
 3686TIP3   OH232472   1.266   6.056   5.635 -0.2690  0.5012 -0.3966
 3686TIP3    H132473   1.282   6.129   5.694 -0.1040 -0.6713  1.0898
 3686TIP3    H232474   1.173   6.063   5.613 -0.4317  0.7359  0.3413
 3687TIP3   OH232475   3.258   3.084  11.348  0.4101  0.6369  0.4354
 3687TIP3    H132476   3.170   3.102  11.380  0.9418  1.2510  1.5902
 3687TIP3    H232477   3.245   3.054  11.258 -0.9633  0.8044  0.5618
 3688TIP3   OH232478   6.440   5.848   2.060 -0.2852  0.2679  0.2260
 3688TIP3    H132479   6.477   5.827   2.146 -0.5489 -1.2466  0.0003
 3688TIP3    H232480   6.503   5.907   2.020  0.9482 -0.7517  0.6045
 3689TIP3   OH232481   4.355   5.419   4.728 -0.4469 -0.9608 -0.0159
 3689TIP3    H132482   4.289   5.404   4.795 -0.1126 -0.9172  0.3245
 3689TIP3    H232483   4.380   5.331   4.699 -1.1717 -0.9673 -0.6650
 3690TIP3   OH232484   3.428   6.262   1.923  0.5775 -0.2069 -0.0835
 3690TIP3    H132485   3.502   6.322   1.934  1.0392 -0.6954 -0.4664
 3690TIP3    H232486   3.362   6.294   1.985  1.5353 -0.4336  1.0908
 3691TIP3   OH232487   5.935   1.144   0.277  0.3368 -0.1408  0.2923
 3691TIP3    H132488   5.852   1.127   0.232 -0.3042  1.0039  0.9852
 3691TIP3    H232489   5.923   1.105   0.364  0.6934 -0.3532  0.2472
 3692TIP3   OH232490   0.214   1.277  12.511  0.4769  0.5231 -0.3503
 3692TIP3    H132491   0.193   1.209  12.575  1.8141  1.7509  1.4881
 3692TIP3    H232492   0.164   1.354  12.540  0.1407  0.7825 -1.5356
 3693TIP3   OH232493   2.265   0.908   1.865 -0.6770 -0.2475  0.6312
 3693TIP3    H132494   2.316   0.935   1.789 -2.1375  0.6111 -0.0697
 3693TIP3    H232495   2.270   0.812   1.864 -0.6252 -0.2423 -0.4920
 3694TIP3   OH232496   5.811   3.011  17.167 -0.2546  0.1523  0.3369
 3694TIP3    H132497   5.795   2.929  17.122  0.8715 -0.5940  1.2274
 3694TIP3    H232498   5.798   2.991  17.260  0.9526  0.7113  0.6526
 3695TIP3   OH232499   3.932   0.043  17.089 -0.0997  0.3185 -0.0393
 3695TIP3    H132500   4.023   0.047  17.118 -0.0320  0.9922 -0.3143
 3695TIP3    H232501   3.911  -0.050  17.087  0.5820  0.1595  0.0277
 3696TIP3   OH232502   3.609   4.538   0.803 -0.1078 -0.3390 -0.1800
 3696TIP3    H132503   3.692   4.585   0.811 -0.0142 -0.6729  0.9255
 3696TIP3    H232504   3.544   4.606   0.784  0.3640 -0.0411 -0.7315
 3697TIP3   OH232505   5.805   1.276  16.881  0.3790 -0.2516  0.5493
 3697TIP3    H132506   5.776   1.355  16.926 -0.4867 -0.2115 -0.0571
 3697TIP3    H232507   5.724   1.229  16.860  0.7277 -0.1252 -1.2008
 3698TIP3   OH232508   3.321   0.067   0.769 -0.6744 -0.2725 -0.2878
 3698TIP3    H132509   3.316   0.101   0.858 -1.8023 -0.9268 -0.0916
 3698TIP3    H232510   3.373  -0.013   0.777  1.4073  0.9687 -0.6465
 3699TIP3   OH232511   5.941   3.737   4.737 -0.8093  0.1532 -0.3934
 3699TIP3    H132512   5.887   3.813   4.714 -1.0586 -0.0647 -0.5352
 3699TIP3    H232513   5.968   3.701   4.652 -1.3808 -0.4056 -0.3480
 3700TIP3   OH232514   6.408   5.598  13.750  0.3781 -0.0551  0.0982
 3700TIP3    H132515   6.315   5.607  13.729  0.3636 -2.4851 -1.2148
 3700TIP3    H232516   6.423   5.662  13.820 -2.0492  1.0124 -0.2527
 3701TIP3   OH232517   4.677   3.361   0.323  0.1268 -0.2710  0.4015
 3701TIP3    H132518   4.760   3.365   0.275  0.3294 -0.6989  0.6979
 3701TIP3    H232519   4.694   3.407   0.405  0.5097 -1.5061  1.0553
 3702TIP3   OH232520   3.794   5.108  16.414 -0.0654 -0.5299  0.5305
 3702TIP3    H132521   3.806   5.053  16.337 -3.2061 -0.2972 -0.2703
 3702TIP3    H232522   3.869   5.087  16.470  1.4498 -1.9320 -1.8262
 3703TIP3   OH232523   1.450   4.989   4.621 -0.3528 -0.7807 -0.2816
 3703TIP3    H132524   1.393   5.038   4.679 -0.5816  3.1003 -3.3784
 3703TIP3    H232525   1.526   4.967   4.675 -0.7816  2.0608  1.6875
 3704TIP3   OH232526   4.875   6.549  14.124 -0.3831  0.2988 -0.4360
 3704TIP3    H132527   4.839   6.496  14.053 -0.5170  1.0350 -0.9222
 3704TIP3    H232528   4.969   6.556  14.104 -0.1163 -0.8298  0.3282
 3705TIP3   OH232529   6.477   5.199   0.296  0.1782 -0.0717 -0.4067
 3705TIP3    H132530   6.443   5.182   0.384 -0.1342 -3.3229 -1.0302
 3705TIP3    H232531   6.563   5.238   0.311 -0.1541  0.0968  1.3061
 3706TIP3   OH232532   1.442   6.166   1.329  0.3315  0.4637 -0.3124
 3706TIP3    H132533   1.497   6.236   1.365 -0.0863 -0.0386  1.4067
 3706TIP3    H232534   1.502   6.094   1.312  0.6471  0.9640 -1.3524
 3707TIP3   OH232535   1.593   5.239  17.058 -0.4931  0.0594 -0.1379
 3707TIP3    H132536   1.622   5.214  17.146  0.7581  2.6072  0.2423
 3707TIP3    H232537   1.608   5.161  17.005  1.3033 -0.6680  1.3520
 3708TIP3   OH232538   4.249   5.881   4.172 -0.4615 -0.2377  0.1014
 3708TIP3    H132539   4.179   5.874   4.237 -0.4482 -1.7258 -0.0122
 3708TIP3    H232540   4.321   5.830   4.209  0.9803  2.0150  0.6560
 3709TIP3   OH232541   4.760   0.935   3.106  0.2906  0.0812 -0.2041
 3709TIP3    H132542   4.672   0.930   3.069  0.3074 -0.3102 -0.1953
 3709TIP3    H232543   4.815   0.886   3.045  0.6121  0.8097 -0.5185
 3710TIP3   OH232544   2.406   0.462   4.860  0.6899  0.2800  0.0545
 3710TIP3    H132545   2.318   0.489   4.834  0.1734 -0.2783  1.1370
 3710TIP3    H232546   2.416   0.374   4.823  0.9120  0.4599 -0.3171
 3711TIP3   OH232547   1.860   1.033   3.456 -0.1712 -0.0947  0.4897
 3711TIP3    H132548   1.776   1.037   3.409  0.5576 -0.0132 -0.8430
 3711TIP3    H232549   1.905   1.113   3.432  0.3209 -0.1578  1.1755
 3712TIP3   OH232550   3.216   2.576   0.565 -0.2741  0.3003  0.2729
 3712TIP3    H132551   3.156   2.644   0.595  0.1812  0.4882  0.7733
 3712TIP3    H232552   3.219   2.587   0.469 -0.8096  0.4707  0.2756
 3713TIP3   OH232553   6.099   0.344   5.598  0.1512 -0.3405 -0.4008
 3713TIP3    H132554   6.108   0.296   5.681  0.1812 -1.1509 -0.8613
 3713TIP3    H232555   6.061   0.428   5.623  0.7226 -0.3388  0.5060
 3714TIP3   OH232556   2.160   1.983   2.107 -0.1779  0.1213  0.0288
 3714TIP3    H132557   2.186   1.981   2.015 -0.2354 -0.1613  0.0176
 3714TIP3    H232558   2.224   1.926   2.151  0.4863  1.0773  0.3319
 3715TIP3   OH232559   1.152   0.637   5.909 -0.5205 -0.2604  0.4813
 3715TIP3    H132560   1.241   0.641   5.873  0.3999 -0.6960  2.5299
 3715TIP3    H232561   1.132   0.727   5.932 -0.0064 -0.3308  1.2739
 3716TIP3   OH232562   3.503   3.970   1.076 -0.1903 -0.4159 -0.3444
 3716TIP3    H132563   3.427   3.955   1.132 -0.6891  0.7806 -0.6617
 3716TIP3    H232564   3.467   4.008   0.996  0.6168 -1.0922 -1.0554
 3717TIP3   OH232565   4.665   5.178  16.963  0.1136 -0.0945  0.3279
 3717TIP3    H132566   4.648   5.085  16.974 -0.9981 -0.0540 -0.8270
 3717TIP3    H232567   4.760   5.187  16.977  0.1235 -1.2583  1.1801
 3718TIP3   OH232568   3.394   1.423   1.782  0.1615  0.0410 -0.3239
 3718TIP3    H132569   3.366   1.342   1.740  1.8462 -0.1290 -1.2284
 3718TIP3    H232570   3.464   1.395   1.842 -0.5450  0.6040  0.7946
 3719TIP3   OH232571   3.160   6.185   1.020 -0.0538 -0.1222  0.1060
 3719TIP3    H132572   3.079   6.224   1.053  0.5190  0.5345  0.7633
 3719TIP3    H232573   3.171   6.224   0.933  0.8680  1.7488  1.0228
 3720TIP3   OH232574   3.081   2.400   6.455 -0.1465  0.0218  0.4587
 3720TIP3    H132575   3.092   2.496   6.453 -0.4420  0.0783  1.2060
 3720TIP3    H232576   3.170   2.366   6.452 -0.0717  0.2891 -0.8733
 3721TIP3   OH232577   1.903   2.531   1.220  0.0761 -0.0931  0.0894
 3721TIP3    H132578   1.947   2.592   1.280 -1.4618  1.8200 -0.6310
 3721TIP3    H232579   1.904   2.448   1.267  2.3044  0.4172  1.0966
 3722TIP3   OH232580   2.175   5.393   2.827 -0.2197 -0.3065 -0.2077
 3722TIP3    H132581   2.089   5.395   2.869 -0.5819 -0.0067 -0.9308
 3722TIP3    H232582   2.228   5.456   2.876  0.1050 -1.6870  1.2733
 3723TIP3   OH232583   6.341   0.247  13.951 -0.4321 -0.5172 -0.1142
 3723TIP3    H132584   6.304   0.221  14.035 -0.5369  0.3211  0.1145
 3723TIP3    H232585   6.277   0.309  13.915 -0.6528 -1.2718 -1.0698
 3724TIP3   OH232586   2.496   0.770   1.014  0.2449 -0.5684 -0.1544
 3724TIP3    H132587   2.584   0.781   1.050 -0.4277  0.0642  1.4101
 3724TIP3    H232588   2.510   0.731   0.928  2.0383 -0.6615  0.1328
 3725TIP3   OH232589   0.577   0.217   5.272  0.4317  0.1521 -0.4105
 3725TIP3    H132590   0.498   0.256   5.236  1.0346  3.2011  1.2671
 3725TIP3    H232591   0.545   0.149   5.332 -0.8998  1.0674 -0.0469
 3726TIP3   OH232592   2.136   6.636  13.035  0.1375 -0.4794  0.0600
 3726TIP3    H132593   2.074   6.564  13.021  1.2744 -1.6376  0.7269
 3726TIP3    H232594   2.092   6.694  13.097 -1.3699  0.1661 -1.5490
 3727TIP3   OH232595   6.321   1.654   5.768 -0.0731  0.1669 -0.1699
 3727TIP3    H132596   6.403   1.623   5.806  0.9775  1.6280 -1.0846
 3727TIP3    H232597   6.261   1.662   5.842  0.5721 -1.0289  0.5040
 3728TIP3   OH232598   6.266   0.530  15.520  0.0069 -0.1657 -0.0889
 3728TIP3    H132599   6.288   0.445  15.559  0.8139  0.0636 -0.0283
 3728TIP3    H232600   6.190   0.512  15.464 -1.8362 -0.3153  2.3090
 3729TIP3   OH232601   4.218   2.060  11.779 -0.0430  0.4045 -0.5176
 3729TIP3    H132602   4.211   1.971  11.815  0.7474  1.2412  1.8430
 3729TIP3    H232603   4.254   2.047  11.691  0.6248 -1.5711 -0.0022
 3730TIP3   OH232604   3.128   3.710   0.860  0.2848 -0.1552 -0.3986
 3730TIP3    H132605   3.121   3.662   0.778  1.4298  0.0059 -0.6064
 3730TIP3    H232606   3.198   3.666   0.908  0.2164  0.2853  0.1150
 3731TIP3   OH232607   5.330   1.590   1.581  0.1530 -0.3257 -0.4323
 3731TIP3    H132608   5.360   1.643   1.655  0.3937 -1.2663  0.1668
 3731TIP3    H232609   5.296   1.653   1.518 -1.2968  0.4273  1.0382
 3732TIP3   OH232610   3.270   2.616  13.567 -0.3771 -0.1338 -0.3636
 3732TIP3    H132611   3.190   2.607  13.514 -1.2991  0.3906  0.8761
 3732TIP3    H232612   3.243   2.670  13.641  0.7965 -1.0209  0.7551
 3733TIP3   OH232613   4.000   1.876   6.029 -0.0068 -0.3265 -0.2914
 3733TIP3    H132614   3.981   1.955   6.079 -0.2764 -1.6226  1.7753
 3733TIP3    H232615   4.054   1.823   6.088 -0.8057 -2.1696 -1.1338
 3734TIP3   OH232616   5.991   4.941   4.033  0.6295  0.0090 -0.1508
 3734TIP3    H132617   5.901   4.966   4.055  0.5997 -0.3108  0.0942
 3734TIP3    H232618   6.045   4.986   4.098  0.5953 -0.3317  0.1186
 3735TIP3   OH232619   6.499   0.610   5.328 -0.4005 -0.0252 -0.0496
 3735TIP3    H132620   6.548   0.534   5.296  0.4215  0.7243 -0.6544
 3735TIP3    H232621   6.566   0.677   5.341 -0.6792 -0.2514  3.2990
 3736TIP3   OH232622   5.717   2.720   3.986  0.8702  0.0023  0.6716
 3736TIP3    H132623   5.769   2.708   4.065 -0.4784  1.3229  1.8313
 3736TIP3    H232624   5.690   2.812   3.989 -0.3063 -0.2666 -0.6237
 3737TIP3   OH232625   1.136   6.132  12.633  0.6378  0.0825  0.1292
 3737TIP3    H132626   1.048   6.111  12.664  1.4692 -3.0423  0.6875
 3737TIP3    H232627   1.186   6.149  12.713  1.1660 -0.9901  0.0394
 3738TIP3   OH232628   5.775   5.264  12.923 -0.6570  0.3836 -0.4473
 3738TIP3    H132629   5.763   5.237  13.014 -1.7206  1.3450 -0.2707
 3738TIP3    H232630   5.803   5.356  12.928  0.4787  0.0901 -1.0751
 3739TIP3   OH232631   6.331   3.884  12.505 -0.1087 -0.5432 -0.3353
 3739TIP3    H132632   6.316   3.970  12.466 -2.2983 -0.1054  1.3135
 3739TIP3    H232633   6.402   3.898  12.568 -0.9100  0.2613  0.4188
 3740TIP3   OH232634   1.347   6.059  12.004  0.2600  0.1104 -0.6642
 3740TIP3    H132635   1.252   6.051  12.006  0.3124 -0.3559 -0.0713
 3740TIP3    H232636   1.363   6.148  11.972 -0.3664  0.0391 -1.1921
 3741TIP3   OH232637   3.308   6.730   2.046  0.1840 -0.0542  0.2817
 3741TIP3    H132638   3.338   6.747   2.135  1.9686 -0.7839 -0.1543
 3741TIP3    H232639   3.251   6.654   2.054  0.3086 -0.0963  0.7910
 3742TIP3   OH232640   3.545   3.912   2.764  0.0836  0.1750 -0.4335
 3742TIP3    H132641   3.462   3.930   2.808 -0.4647 -0.6385 -1.0854
 3742TIP3    H232642   3.611   3.912   2.834 -0.5765  0.1140  0.1960
 3743TIP3   OH232643   0.710   5.284   4.420 -0.2199  0.1362  0.4431
 3743TIP3    H132644   0.765   5.212   4.391  0.6761  1.4808 -1.3701
 3743TIP3    H232645   0.706   5.274   4.515 -0.4727 -2.4968  0.2291
 3744TIP3   OH232646   6.341   2.495   2.617  0.0548  0.5423  0.4423
 3744TIP3    H132647   6.345   2.530   2.528  2.5035 -0.0639  0.2306
 3744TIP3    H232648   6.322   2.571   2.672  0.1657  1.2305 -0.4585
 3745TIP3   OH232649   2.388   2.253  12.363 -1.4553 -0.7231 -0.3944
 3745TIP3    H132650   2.396   2.173  12.414 -0.0789 -1.2305 -1.3356
 3745TIP3    H232651   2.417   2.322  12.421  1.9838 -1.5055 -0.9351
 3746TIP3   OH232652   6.685   0.027  11.586 -0.8284 -0.0937  0.1109
 3746TIP3    H132653   6.591   0.032  11.602 -0.9856  1.0297 -1.0081
 3746TIP3    H232654   6.713   0.119  11.577  0.3079 -0.4250  0.0953
 3747TIP3   OH232655   1.664   5.906  15.755  0.4879  0.0201 -0.4998
 3747TIP3    H132656   1.600   5.837  15.774  0.9929 -1.1954 -2.8020
 3747TIP3    H232657   1.612   5.986  15.751 -0.2184 -0.2761  1.5847
 3748TIP3   OH232658   0.297   5.044   3.451 -0.0051  0.3605 -0.1228
 3748TIP3    H132659   0.300   5.036   3.546  1.8229 -2.4286 -0.2817
 3748TIP3    H232660   0.204   5.042   3.429 -0.4354  0.3241  1.5724
 3749TIP3   OH232661   0.939   2.170   6.122  0.2015  0.0237 -0.3812
 3749TIP3    H132662   0.985   2.160   6.206 -0.4820 -3.2881 -0.2879
 3749TIP3    H232663   0.865   2.227   6.143  1.2255  1.0320  0.7080
 3750TIP3   OH232664   2.089   1.241  12.258 -0.7380 -0.5531  0.4842
 3750TIP3    H132665   2.054   1.296  12.187 -2.9065  0.0912  1.9517
 3750TIP3    H232666   2.177   1.217  12.228 -1.0859  0.7241 -1.8395
 3751TIP3   OH232667   3.394   2.641   4.705  0.4504 -0.3643  0.8028
 3751TIP3    H132668   3.385   2.720   4.651  1.0278 -0.4726  0.5274
 3751TIP3    H232669   3.307   2.625   4.740  0.2858  0.2890  0.7095
 3752TIP3   OH232670   6.188   1.340   5.164  0.2015 -0.5304  0.3864
 3752TIP3    H132671   6.105   1.327   5.119 -0.9565  2.1992  1.5402
 3752TIP3    H232672   6.186   1.278   5.237  0.1199 -1.8780 -0.7250
 3753TIP3   OH232673   2.825   6.154   4.314 -0.0971  0.2150 -0.0529
 3753TIP3    H132674   2.876   6.229   4.343  0.1275  0.8853 -2.0474
 3753TIP3    H232675   2.740   6.165   4.356 -0.2131  1.8385 -0.6415
 3754TIP3   OH232676   3.252   0.804  12.252 -0.3793 -0.7805 -0.5244
 3754TIP3    H132677   3.211   0.718  12.265 -1.6131  0.0829  1.9762
 3754TIP3    H232678   3.311   0.814  12.327 -2.0610  1.4621  0.6266
 3755TIP3   OH232679   2.383   4.247  11.552  0.4877 -0.3332  0.2278
 3755TIP3    H132680   2.367   4.190  11.477  1.9629 -0.7082  0.1563
 3755TIP3    H232681   2.300   4.250  11.599  0.1138 -1.7761 -0.2907
 3756TIP3   OH232682   2.956   1.025   4.551 -0.4876  0.9920 -0.2515
 3756TIP3    H132683   2.966   1.100   4.492  2.7316  2.1909  1.5758
 3756TIP3    H232684   3.046   0.994   4.565 -1.3904 -0.8752  1.9967
 3757TIP3   OH232685   3.789   2.066   6.490  0.0095 -0.0760 -0.0095
 3757TIP3    H132686   3.815   2.157   6.506  0.1775 -0.1020 -0.1321
 3757TIP3    H232687   3.736   2.043   6.566  0.7361 -0.1706  0.4843
 3758TIP3   OH232688   4.414   5.852   0.678 -0.4034  0.0968  0.0472
 3758TIP3    H132689   4.372   5.914   0.737  0.0439 -0.8569  1.4110
 3758TIP3    H232690   4.482   5.810   0.731  1.0175  0.2499 -1.5572
 3759TIP3   OH232691   2.591   6.308  13.481  0.2618 -0.1474 -0.2373
 3759TIP3    H132692   2.671   6.258  13.472  0.0717 -0.1575 -2.3655
 3759TIP3    H232693   2.522   6.251  13.446 -0.2873  0.7478 -0.6734
 3760TIP3   OH232694   0.093   0.411  15.257 -0.0617  0.5094 -0.2969
 3760TIP3    H132695   0.092   0.430  15.351 -1.5146  0.6466 -0.3139
 3760TIP3    H232696   0.007   0.442  15.225  0.3440  0.3285 -1.6365
 3761TIP3   OH232697   5.068   1.463   4.370 -0.0773 -0.4112  0.7254
 3761TIP3    H132698   5.152   1.419   4.379 -0.2885 -1.3501 -1.3277
 3761TIP3    H232699   5.079   1.546   4.416  2.2164 -0.2022 -0.1021
 3762TIP3   OH232700   5.316   5.697  17.287 -0.3599 -0.0764  0.3532
 3762TIP3    H132701   5.386   5.632  17.285 -0.5029 -0.2813  1.6316
 3762TIP3    H232702   5.339   5.756  17.359 -1.4115 -0.0439  0.6762
 3763TIP3   OH232703   1.398   6.481   1.086  0.3686 -0.5488 -0.1590
 3763TIP3    H132704   1.377   6.493   0.993 -0.5428  0.1598  0.1333
 3763TIP3    H232705   1.466   6.414   1.086  0.7971 -0.1366 -1.3793
 3764TIP3   OH232706   1.743   2.811   1.468  0.6748  0.1571  0.2608
 3764TIP3    H132707   1.812   2.777   1.524  0.7539 -0.7402 -0.3691
 3764TIP3    H232708   1.662   2.775   1.504  0.5787  0.7134  0.6260
 3765TIP3   OH232709   3.255   1.396  13.989  0.7087  0.1378 -0.4246
 3765TIP3    H132710   3.280   1.456  14.059 -0.5602 -0.5542  0.6659
 3765TIP3    H232711   3.289   1.311  14.017 -0.7992 -0.3675 -0.0487
 3766TIP3   OH232712   2.319   4.407   3.530 -0.5158  0.2121  0.5614
 3766TIP3    H132713   2.288   4.318   3.516 -0.2837  0.3422 -0.8653
 3766TIP3    H232714   2.388   4.419   3.466  0.6527  0.8498  1.8963
 3767TIP3   OH232715   0.204   0.003   3.602  0.1909 -0.1264 -0.7558
 3767TIP3    H132716   0.162   0.074   3.553 -0.9782 -0.1691  0.1779
 3767TIP3    H232717   0.139  -0.067   3.604  0.9109 -0.8044 -0.6729
 3768TIP3   OH232718   0.660   6.376   0.945  0.3890  0.5549 -0.1367
 3768TIP3    H132719   0.621   6.442   0.887 -1.1719  0.1693  0.4387
 3768TIP3    H232720   0.603   6.374   1.021 -0.4564 -2.4290 -0.7065
 3769TIP3   OH232721   3.677   4.254   3.984  0.2996 -0.4531  1.3292
 3769TIP3    H132722   3.587   4.234   3.960  1.2703 -0.5027 -3.0878
 3769TIP3    H232723   3.730   4.209   3.918  3.2251  4.2817 -0.0252
 3770TIP3   OH232724   2.415   2.871  14.203 -0.1668 -0.8616 -0.6202
 3770TIP3    H132725   2.454   2.814  14.269  1.9723 -1.1799 -2.0622
 3770TIP3    H232726   2.381   2.811  14.137 -0.2637 -0.5000 -0.8989
 3771TIP3   OH232727   1.677   4.110   2.476  0.5338  0.3078  0.2618
 3771TIP3    H132728   1.584   4.132   2.490  0.6826 -0.4581  2.9807
 3771TIP3    H232729   1.681   4.015   2.491  1.7542  0.3345  0.1420
 3772TIP3   OH232730   2.037   3.241  13.903  0.5913 -0.2603  0.4231
 3772TIP3    H132731   1.978   3.272  13.834  0.5408 -1.2595 -0.0042
 3772TIP3    H232732   1.992   3.263  13.985  0.3358  0.3383  0.1277
 3773TIP3   OH232733   2.141   3.654  14.142  0.6370  0.2825  0.4800
 3773TIP3    H132734   2.157   3.578  14.198  0.9678  0.3510  0.4782
 3773TIP3    H232735   2.075   3.705  14.189  0.6977  0.1897  0.6642
 3774TIP3   OH232736   2.820   6.254   6.297 -0.2307 -0.4053  0.4222
 3774TIP3    H132737   2.745   6.248   6.356 -0.5440  1.0427  0.2133
 3774TIP3    H232738   2.782   6.270   6.211  0.2549  3.9123  0.7911
 3775TIP3   OH232739   1.294   6.266   4.476 -0.5188  0.2281 -0.4182
 3775TIP3    H132740   1.325   6.176   4.486  3.0631  1.3169 -0.3446
 3775TIP3    H232741   1.199   6.259   4.481 -0.3441 -3.2924  1.5493
 3776TIP3   OH232742   2.703   1.846   2.306  0.3893 -0.1527 -0.1411
 3776TIP3    H132743   2.638   1.781   2.281  1.2349 -0.2807 -2.2545
 3776TIP3    H232744   2.716   1.899   2.227  2.1229  0.4669  0.5013
 3777TIP3   OH232745   0.868   6.269  14.193 -0.3148 -0.4335  0.3765
 3777TIP3    H132746   0.878   6.214  14.114  0.5246 -2.6863  1.9256
 3777TIP3    H232747   0.957   6.298  14.212 -0.8360  2.2287 -0.8217
 3778TIP3   OH232748   1.424   3.107  11.102  0.4880  0.6271  0.6768
 3778TIP3    H132749   1.352   3.168  11.120  0.8137  0.8261  1.3343
 3778TIP3    H232750   1.407   3.032  11.160 -0.5304 -0.4476 -0.9257
 3779TIP3   OH232751   4.863   6.124   5.420 -0.3110 -0.4820  0.3490
 3779TIP3    H132752   4.833   6.103   5.508  2.0826  0.7491  1.5580
 3779TIP3    H232753   4.828   6.211   5.402  2.3404  1.0141  1.8141
 3780TIP3   OH232754   6.724   4.647  16.269  0.0240 -0.2169 -0.4462
 3780TIP3    H132755   6.654   4.682  16.215  1.4928  2.2230 -0.9445
 3780TIP3    H232756   6.721   4.699  16.350  0.3243 -1.1112  0.1559
 3781TIP3   OH232757   0.331   6.329   4.716  0.4026 -0.8259  0.1550
 3781TIP3    H132758   0.337   6.285   4.631 -0.0833  0.9840 -0.8822
 3781TIP3    H232759   0.267   6.398   4.702 -0.1820 -0.8784  2.2143
 3782TIP3   OH232760   6.315   2.655  12.449 -0.4852 -0.2082  0.7685
 3782TIP3    H132761   6.319   2.735  12.502  0.0902  0.3129 -0.0504
 3782TIP3    H232762   6.376   2.596  12.491  1.8068  1.0291 -0.6139
 3783TIP3   OH232763   3.286   1.424   2.623  0.0623  0.0398 -0.6768
 3783TIP3    H132764   3.232   1.501   2.608 -0.3082 -0.0936 -0.0811
 3783TIP3    H232765   3.344   1.420   2.548 -0.5878  0.3320 -1.2033
 3784TIP3   OH232766   1.005   0.819  14.108  0.0482 -0.0649 -0.1846
 3784TIP3    H132767   0.966   0.758  14.045 -1.9030 -0.7483  1.5627
 3784TIP3    H232768   0.938   0.885  14.123  1.2088  1.1575 -0.2011
 3785TIP3   OH232769   0.262   3.713  14.599  0.0375  0.4473  0.3199
 3785TIP3    H132770   0.202   3.782  14.570  0.9178  0.3141 -2.0196
 3785TIP3    H232771   0.204   3.642  14.628 -0.8768  1.6547  1.6019
 3786TIP3   OH232772   5.399   3.847  16.092  0.3627 -0.5878  0.0191
 3786TIP3    H132773   5.419   3.817  16.003 -0.0309  0.0925 -0.2998
 3786TIP3    H232774   5.430   3.776  16.148  0.0705 -1.2891 -0.6912
 3787TIP3   OH232775   2.299   3.877   0.126  0.1351 -0.1444 -0.1205
 3787TIP3    H132776   2.391   3.854   0.137 -0.2594 -1.3068  1.0383
 3787TIP3    H232777   2.298   3.973   0.135  1.1231 -0.1952  0.8647
 3788TIP3   OH232778   0.614   2.564  13.876  0.0412  0.4652  0.5735
 3788TIP3    H132779   0.679   2.634  13.879 -1.5717  2.0373  0.6981
 3788TIP3    H232780   0.665   2.483  13.869  1.9917  1.5851  1.2193
 3789TIP3   OH232781   4.980   6.237   4.405  0.7625 -0.2330 -0.2026
 3789TIP3    H132782   5.050   6.247   4.471  0.4147 -2.3733  0.5480
 3789TIP3    H232783   4.922   6.311   4.422  1.5500  0.1908  0.7999
 3790TIP3   OH232784   5.726   1.034  14.181  0.3042 -0.4928 -0.3875
 3790TIP3    H132785   5.681   1.068  14.105  0.2682  0.5922  0.1039
 3790TIP3    H232786   5.791   0.973  14.145 -0.5701 -0.9760 -1.1840
 3791TIP3   OH232787   1.416   3.185  12.768  0.6907  0.6182 -0.2273
 3791TIP3    H132788   1.429   3.268  12.814  0.6997 -0.2741  1.4525
 3791TIP3    H232789   1.427   3.118  12.835 -0.4756 -0.7046 -1.2880
 3792TIP3   OH232790   3.534   0.300  13.824  0.3278 -0.1238  0.0144
 3792TIP3    H132791   3.531   0.381  13.876 -0.9691  0.3913 -0.7881
 3792TIP3    H232792   3.622   0.299  13.786  0.9470  0.0037  1.4078
 3793TIP3   OH232793   5.168   6.000  13.900  0.1112  0.1922 -0.2762
 3793TIP3    H132794   5.127   5.948  13.831  1.8476 -0.6363 -0.7511
 3793TIP3    H232795   5.096   6.047  13.941 -1.3461 -1.4806 -0.7933
 3794TIP3   OH232796   0.667   4.308  14.316 -0.3617 -0.0140  0.7384
 3794TIP3    H132797   0.722   4.373  14.360 -0.0745 -1.1235  2.1013
 3794TIP3    H232798   0.729   4.253  14.267 -0.6384  0.9294 -0.7342
 3795TIP3   OH232799   0.521   3.148   0.615 -0.0628 -0.1690 -0.5608
 3795TIP3    H132800   0.523   3.181   0.525  2.6050 -0.6865 -0.7741
 3795TIP3    H232801   0.587   3.079   0.616  2.4497  2.0302  2.5735
 3796TIP3   OH232802   5.741   2.413   5.436 -0.1295 -0.3873  0.4717
 3796TIP3    H132803   5.757   2.442   5.346 -3.4803  1.1061  0.2141
 3796TIP3    H232804   5.787   2.477   5.490 -1.4210  1.1680 -0.1921
 3797TIP3   OH232805   1.855   1.940   6.739 -0.4606  0.0386 -0.3693
 3797TIP3    H132806   1.886   1.850   6.727  0.0216  0.0614  0.5924
 3797TIP3    H232807   1.881   1.985   6.659 -1.0896 -0.7742 -1.0449
 3798TIP3   OH232808   5.294   4.221   4.858 -0.2962  0.1079 -0.0218
 3798TIP3    H132809   5.288   4.141   4.910 -0.4344 -0.4864 -0.9195
 3798TIP3    H232810   5.341   4.283   4.913 -1.0440 -0.2704  1.0762
 3799TIP3   OH232811   3.528   5.900   4.636 -0.1887  0.0665  0.1134
 3799TIP3    H132812   3.573   5.936   4.712  1.1214  0.1655 -0.6685
 3799TIP3    H232813   3.439   5.935   4.641  0.7112  2.5731 -0.0239
 3800TIP3   OH232814   6.597   2.346  15.220  0.6530  0.1786 -0.0334
 3800TIP3    H132815   6.547   2.272  15.186 -0.5727  0.7318  0.5110
 3800TIP3    H232816   6.649   2.309  15.292  0.3608 -0.2379 -0.0347
 3801TIP3   OH232817   4.643   3.801  11.288 -0.7359 -0.2996 -0.2335
 3801TIP3    H132818   4.667   3.873  11.345  0.2386 -1.0972  0.3900
 3801TIP3    H232819   4.620   3.842  11.205 -0.3977  0.7316  0.1744
 3802TIP3   OH232820   5.161   5.555  11.420  0.2451 -0.0246  0.1206
 3802TIP3    H132821   5.187   5.472  11.378 -0.9443 -0.3673  0.0337
 3802TIP3    H232822   5.084   5.583  11.372 -2.3310 -1.3538  3.0804
 3803TIP3   OH232823   3.192   2.259   5.667 -0.0672  0.0361  0.3874
 3803TIP3    H132824   3.171   2.194   5.734 -0.6312  0.6098  0.7794
 3803TIP3    H232825   3.260   2.314   5.708 -2.3742  2.1391  1.6519
 3804TIP3   OH232826   5.085   4.586   0.099 -0.1526  0.0373 -0.4665
 3804TIP3    H132827   5.148   4.550   0.036  0.5883 -1.4617  1.0404
 3804TIP3    H232828   5.002   4.544   0.075 -0.0527  0.1085 -0.9467
 3805TIP3   OH232829   4.049   1.056  11.115 -0.3318 -0.0226  0.0537
 3805TIP3    H132830   4.028   1.011  11.033  0.9807 -0.3835 -0.1263
 3805TIP3    H232831   4.140   1.031  11.132 -0.6050 -0.0265  1.6734
 3806TIP3   OH232832   2.705   2.789   3.532  1.0864  0.1584 -0.3542
 3806TIP3    H132833   2.789   2.807   3.489  2.1747  0.0873  1.6166
 3806TIP3    H232834   2.703   2.694   3.543 -0.3472 -0.1126 -2.3874
 3807TIP3   OH232835   5.709   6.532  13.044 -0.1621 -0.2401 -0.4291
 3807TIP3    H132836   5.754   6.535  13.128 -1.2511 -1.1990  0.2158
 3807TIP3    H232837   5.635   6.473  13.058  0.3769 -1.4789 -2.4210
 3808TIP3   OH232838   3.901   0.007   2.284  0.3368  0.3421  0.2773
 3808TIP3    H132839   3.941   0.034   2.202  1.8002 -0.6289  0.6437
 3808TIP3    H232840   3.947   0.058   2.351 -0.1289  0.3591  0.5882
 3809TIP3   OH232841   5.966   0.850   4.504 -0.4859 -0.3739 -0.1543
 3809TIP3    H132842   6.057   0.838   4.530 -0.4176 -1.3334 -0.7853
 3809TIP3    H232843   5.969   0.918   4.436 -0.4868  0.9941  1.1600
 3810TIP3   OH232844   5.329   1.944  15.057  0.1539  0.1589  0.2750
 3810TIP3    H132845   5.340   1.954  15.151 -2.3598  3.8915  0.4067
 3810TIP3    H232846   5.324   2.034  15.024 -0.6482 -0.9929 -3.2142
 3811TIP3   OH232847   5.522   2.629   2.437 -0.2743 -0.2942  0.1553
 3811TIP3    H132848   5.454   2.654   2.375  0.7263  0.8388 -0.5496
 3811TIP3    H232849   5.527   2.703   2.498 -0.2302 -0.7311  0.6875
 3812TIP3   OH232850   4.234   1.052   0.548  0.4016 -0.0579 -0.8260
 3812TIP3    H132851   4.175   1.024   0.479  0.0678  0.0827 -0.6038
 3812TIP3    H232852   4.256   0.972   0.596 -0.9806  0.1097  0.1425
 3813TIP3   OH232853   1.879   3.775  14.973  0.2641 -0.1449 -0.7093
 3813TIP3    H132854   1.947   3.713  14.948  1.5718  0.5189  1.0351
 3813TIP3    H232855   1.798   3.723  14.970  1.1216 -1.5432 -0.6657
 3814TIP3   OH232856   1.941   5.996  12.708 -0.7134 -0.4082  0.3201
 3814TIP3    H132857   1.887   6.013  12.631  0.3713 -0.6930 -0.5251
 3814TIP3    H232858   1.973   6.082  12.735 -0.6270 -0.3674  0.0917
 3815TIP3   OH232859   3.877   0.950   4.750  0.9037  0.7363  0.5632
 3815TIP3    H132860   3.915   1.023   4.702  1.6553  0.4395  0.6959
 3815TIP3    H232861   3.847   0.988   4.833  2.9080  0.5864  1.4023
 3816TIP3   OH232862   6.413   5.522  11.357  0.2483 -0.1856 -0.1483
 3816TIP3    H132863   6.485   5.571  11.317 -0.4381  1.3503  0.3825
 3816TIP3    H232864   6.440   5.510  11.448 -0.0490  0.2157  0.0006
 3817TIP3   OH232865   6.300   2.585  16.726  0.0493  0.9671  0.2129
 3817TIP3    H132866   6.391   2.556  16.737 -0.3170 -0.1229  0.5042
 3817TIP3    H232867   6.283   2.574  16.632 -0.2233 -0.2351  0.3891
 3818TIP3   OH232868   0.133   0.218   3.445  0.0346 -0.1063 -0.0310
 3818TIP3    H132869   0.039   0.235   3.451 -0.1058  1.3865 -3.9189
 3818TIP3    H232870   0.174   0.294   3.486 -0.3703 -0.7378  1.6304
 3819TIP3   OH232871   1.425   0.914   4.292 -0.1284  0.2853  0.1090
 3819TIP3    H132872   1.488   0.956   4.350  0.0194  1.1588 -0.6520
 3819TIP3    H232873   1.452   0.823   4.289  2.3740  0.9638 -1.7412
 3820TIP3   OH232874   2.146   6.468   6.378  0.3191  0.6584  0.1233
 3820TIP3    H132875   2.157   6.562   6.364 -0.8397  0.8438  0.3454
 3820TIP3    H232876   2.134   6.459   6.473  1.0867  0.2117  0.1791
 3821TIP3   OH232877   4.209   3.912  17.285 -0.4864 -0.4867  0.3613
 3821TIP3    H132878   4.161   3.848  17.339 -0.3716 -0.7730  0.1242
 3821TIP3    H232879   4.234   3.863  17.207 -2.6134  0.4954 -1.0210
 3822TIP3   OH232880   6.771   0.407   2.438  0.4503 -0.1128 -0.0190
 3822TIP3    H132881   6.779   0.345   2.511 -0.1950  1.5594  1.5613
 3822TIP3    H232882   6.857   0.449   2.432  0.2550  0.3590  0.3850
 3823TIP3   OH232883   1.462   6.058   0.641 -0.7015  0.1880  0.2950
 3823TIP3    H132884   1.410   6.084   0.717  1.2396  2.5991  0.9295
 3823TIP3    H232885   1.398   6.052   0.570 -2.1601  0.7806  1.5006
 3824TIP3   OH232886   0.766   4.456   5.839 -0.1892  0.0549 -0.3758
 3824TIP3    H132887   0.843   4.418   5.797  1.0393  2.1695 -0.1672
 3824TIP3    H232888   0.768   4.548   5.814  0.7804  1.6163  4.3850
 3825TIP3   OH232889   0.642   1.568  13.251 -0.4206 -0.0471 -0.0700
 3825TIP3    H132890   0.661   1.622  13.328 -2.2005 -0.5121  0.7709
 3825TIP3    H232891   0.555   1.596  13.223  0.0181 -0.1946 -1.6757
 3826TIP3   OH232892   6.745   1.075   5.071 -0.5878 -0.6036  0.5521
 3826TIP3    H132893   6.677   1.091   5.006 -1.0449 -0.2774  1.0998
 3826TIP3    H232894   6.748   1.155   5.124  1.4997  0.1404 -0.5804
 3827TIP3   OH232895   0.239   5.848  12.781  0.2152  0.2559 -0.2557
 3827TIP3    H132896   0.184   5.892  12.845  1.4337 -1.0689  1.8302
 3827TIP3    H232897   0.322   5.896  12.783  0.0817  0.5431 -1.2780
 3828TIP3   OH232898   4.255   2.558   2.683  0.5833 -0.5214  0.0989
 3828TIP3    H132899   4.179   2.539   2.629 -0.2390 -0.7475  1.2990
 3828TIP3    H232900   4.257   2.487   2.748  0.0498  1.0611  1.9408
 3829TIP3   OH232901   3.198   3.559   2.260  0.1116  0.0724 -0.0206
 3829TIP3    H132902   3.171   3.470   2.239  2.6557 -0.5931 -0.7423
 3829TIP3    H232903   3.229   3.555   2.351  1.3019 -0.0637 -0.4233
 3830TIP3   OH232904   1.156   5.664  12.148  0.5216 -0.0536  0.3902
 3830TIP3    H132905   1.097   5.734  12.175  0.7636  0.4061 -0.2583
 3830TIP3    H232906   1.098   5.591  12.126  0.0637  0.8437 -1.6273
 3831TIP3   OH232907   2.556   3.322   4.362 -0.5754  0.1893 -0.2341
 3831TIP3    H132908   2.570   3.350   4.272  2.4048 -0.5185 -0.0654
 3831TIP3    H232909   2.591   3.393   4.416  1.4342 -1.1016  0.2575
 3832TIP3   OH232910   6.752   3.405  15.584  0.1308 -0.0591  0.0480
 3832TIP3    H132911   6.694   3.356  15.526  0.6404  0.6866 -1.1299
 3832TIP3    H232912   6.720   3.385  15.672 -1.5840 -0.1000 -0.5376
 3833TIP3   OH232913   0.855   0.024  11.200  0.1779 -0.1832 -0.6604
 3833TIP3    H132914   0.944  -0.010  11.187  0.2722  0.4439 -1.7883
 3833TIP3    H232915   0.799  -0.040  11.155  0.2803  0.6564 -2.0232
 3834TIP3   OH232916   1.800   1.176  12.985  0.1514 -0.2281 -0.1746
 3834TIP3    H132917   1.828   1.086  13.003 -0.4789 -0.9078 -2.2437
 3834TIP3    H232918   1.830   1.193  12.896  0.9723  1.9509  0.4549
 3835TIP3   OH232919   6.267   5.770   2.525  0.1588 -0.7592  0.9404
 3835TIP3    H132920   6.286   5.676   2.524  0.1068 -0.7694  0.9176
 3835TIP3    H232921   6.173   5.775   2.511  0.2060 -0.6906  0.6565
 3836TIP3   OH232922   0.649   3.349  15.047 -0.0510  0.7195 -0.4401
 3836TIP3    H132923   0.589   3.358  14.972 -0.9131  0.5531  0.2137
 3836TIP3    H232924   0.605   3.395  15.118 -0.1774 -0.7904  0.4863
 3837TIP3   OH232925   4.871   2.235  11.943  0.2020  0.0227 -0.5552
 3837TIP3    H132926   4.831   2.152  11.915 -0.5763  0.8195 -1.8797
 3837TIP3    H232927   4.946   2.245  11.885  1.2336 -0.4887  0.6329
 3838TIP3   OH232928   3.430   2.363  12.392  0.1387  0.0761 -0.3210
 3838TIP3    H132929   3.370   2.343  12.320  2.2944 -1.5995 -1.7996
 3838TIP3    H232930   3.382   2.338  12.471 -1.1270 -1.1844 -1.4376
 3839TIP3   OH232931   0.974   3.481  15.276 -0.0013 -0.3629 -0.7073
 3839TIP3    H132932   0.900   3.424  15.255 -0.0354 -0.2209 -0.9857
 3839TIP3    H232933   1.051   3.425  15.267 -0.1808 -1.0723  1.5977
 3840TIP3   OH232934   4.395   5.144  14.198 -0.0079  0.4471 -0.5966
 3840TIP3    H132935   4.469   5.168  14.143 -0.3385  1.7134 -0.5059
 3840TIP3    H232936   4.352   5.227  14.220 -0.3612 -0.0949  0.9050
 3841TIP3   OH232937   4.211   0.321   5.821  0.3268  0.3568 -0.2207
 3841TIP3    H132938   4.284   0.277   5.864  0.3005 -0.8712 -1.3669
 3841TIP3    H232939   4.241   0.338   5.732 -0.4730  0.6400 -0.4511
 3842TIP3   OH232940   2.338   5.529   1.432  0.1567 -0.6221  0.2704
 3842TIP3    H132941   2.410   5.560   1.488  0.7934 -0.1940 -0.7636
 3842TIP3    H232942   2.379   5.512   1.347 -0.6335 -2.0590  0.1420
 3843TIP3   OH232943   5.590   4.444  10.444 -0.5042 -0.0359  0.4887
 3843TIP3    H132944   5.649   4.459  10.371  0.5559 -0.0087  1.3314
 3843TIP3    H232945   5.603   4.519  10.501 -0.6669 -0.4936  1.1370
 3844TIP3   OH232946   3.230   4.232   6.350 -0.2266 -0.7308 -0.4409
 3844TIP3    H132947   3.213   4.139   6.337  1.7413 -0.9965 -1.4035
 3844TIP3    H232948   3.310   4.235   6.404 -0.7700  0.4184  0.3516
 3845TIP3   OH232949   1.006   4.615  11.854 -0.1898 -0.1558  0.0149
 3845TIP3    H132950   1.000   4.710  11.844  0.1716 -0.3211 -2.5957
 3845TIP3    H232951   0.987   4.580  11.767  0.6324 -2.4447  0.6559
 3846TIP3   OH232952   4.926   0.587  11.917 -0.6734  0.7219  0.0659
 3846TIP3    H132953   4.991   0.527  11.953  0.6127  2.2008  0.3074
 3846TIP3    H232954   4.897   0.545  11.835 -1.7473 -1.4434  1.4586
 3847TIP3   OH232955   6.237   1.857   5.609  0.1822 -0.2647 -0.2183
 3847TIP3    H132956   6.321   1.884   5.572  0.0082  0.4275 -0.1137
 3847TIP3    H232957   6.261   1.798   5.681  0.5812  0.0692 -0.0731
 3848TIP3   OH232958   5.396   2.898  16.853 -0.1521 -0.0621 -0.4240
 3848TIP3    H132959   5.322   2.946  16.816 -0.0677  0.1672 -0.3015
 3848TIP3    H232960   5.460   2.894  16.781 -0.1678 -0.0067 -0.4408
 3849TIP3   OH232961   6.619   1.713  12.985  0.1269  0.2032 -0.3225
 3849TIP3    H132962   6.642   1.782  13.049  1.2712  0.0635 -0.5634
 3849TIP3    H232963   6.573   1.760  12.915 -0.7869  0.4206  0.3912
 3850TIP3   OH232964   5.495   6.227  16.613  0.2788  0.2950  0.1393
 3850TIP3    H132965   5.583   6.261  16.599  1.4049 -1.5065  2.2794
 3850TIP3    H232966   5.457   6.283  16.680 -0.6840  1.7282 -1.5258
 3851TIP3   OH232967   5.514   6.510   3.374  0.1504  0.6261  0.3420
 3851TIP3    H132968   5.592   6.565   3.374  1.1360 -0.6673 -1.4403
 3851TIP3    H232969   5.475   6.523   3.461  0.4102  3.9263  0.1068
 3852TIP3   OH232970   2.036   0.378  15.819 -0.3757  0.3300  0.2414
 3852TIP3    H132971   2.066   0.287  15.815 -0.4542  0.3082  0.1306
 3852TIP3    H232972   1.992   0.384  15.904 -1.0176  0.0565 -0.0596
 3853TIP3   OH232973   5.884   0.764  12.487 -0.6058 -0.3709 -0.8142
 3853TIP3    H132974   5.813   0.741  12.427 -0.1801 -0.8705 -1.1302
 3853TIP3    H232975   5.845   0.758  12.574 -1.1460  0.0580 -1.0220
 3854TIP3   OH232976   2.360   2.832  13.411 -0.4239  0.5114  0.2238
 3854TIP3    H132977   2.320   2.772  13.348 -2.0326  0.9334  0.8111
 3854TIP3    H232978   2.423   2.882  13.358  0.5055 -1.2177 -0.3911
 3855TIP3   OH232979   5.643   0.401   4.353 -0.0823  0.0506 -0.3092
 3855TIP3    H132980   5.732   0.431   4.368 -0.5927  0.1030  3.6795
 3855TIP3    H232981   5.650   0.306   4.343  0.5774  0.2976 -3.2046
 3856TIP3   OH232982   4.330   3.125  14.064  0.2655  0.1433  0.7585
 3856TIP3    H132983   4.328   3.181  14.141  0.9868  1.6610 -0.2714
 3856TIP3    H232984   4.401   3.063  14.081  0.4197  0.4608  1.3075
 3857TIP3   OH232985   1.339   3.972  16.524  0.1256  0.6562 -0.1372
 3857TIP3    H132986   1.351   4.066  16.518  0.1066  0.7960  1.7436
 3857TIP3    H232987   1.307   3.956  16.612  0.3822 -1.1440 -0.3201
 3858TIP3   OH232988   1.023   3.161   2.118  0.1614 -0.5523  0.0623
 3858TIP3    H132989   1.037   3.203   2.032 -0.7935  0.6062  0.4392
 3858TIP3    H232990   1.104   3.113   2.135  1.2347  0.9608 -0.5252
 3859TIP3   OH232991   1.263   3.140   3.970 -0.3812  0.2205 -0.0899
 3859TIP3    H132992   1.205   3.087   4.024  2.8992 -3.5960  0.2251
 3859TIP3    H232993   1.287   3.081   3.898  1.0617  2.5214 -1.5921
 3860TIP3   OH232994   4.044   6.730   3.334 -0.2516  0.1454  0.1383
 3860TIP3    H132995   3.964   6.782   3.328 -0.9170 -0.6945  1.3439
 3860TIP3    H232996   4.016   6.640   3.313  0.9865  0.2759 -2.4953
 3861TIP3   OH232997   1.241   5.716   0.251 -0.3683 -0.5257 -0.1827
 3861TIP3    H132998   1.187   5.672   0.186  0.9120  0.6410 -2.1587
 3861TIP3    H232999   1.192   5.795   0.275 -0.2296 -0.2264 -0.8520
 3862TIP3   OH233000   0.381   2.689  13.857  0.4633 -0.0303 -0.0761
 3862TIP3    H133001   0.456   2.631  13.847  0.7928 -0.3575  3.2164
 3862TIP3    H233002   0.413   2.774  13.826  1.0457 -0.8309 -1.8126
 3863TIP3   OH233003   3.699   5.034  15.860  0.0176  0.0455  0.6305
 3863TIP3    H133004   3.783   4.999  15.891 -1.9457 -4.1174  1.9834
 3863TIP3    H233005   3.709   5.040  15.765  1.6286 -1.1064  0.6905
 3864TIP3   OH233006   4.127   0.815  13.441  0.5260 -0.2016 -0.5810
 3864TIP3    H133007   4.097   0.905  13.452 -0.0373 -0.2336 -1.7070
 3864TIP3    H233008   4.122   0.799  13.347  0.3255 -1.5100 -0.3733
 3865TIP3   OH233009   6.337   2.022   0.150  0.1996 -0.1901  0.3016
 3865TIP3    H133010   6.403   2.085   0.122  0.6824 -0.9884 -0.3747
 3865TIP3    H233011   6.254   2.069   0.142  0.5843  0.4769  0.1591
 3866TIP3   OH233012   4.392   6.120   0.292  0.1392  0.1208  0.3364
 3866TIP3    H133013   4.454   6.075   0.350  1.4803 -1.0024 -1.8528
 3866TIP3    H233014   4.374   6.057   0.222 -1.8162  1.2389 -0.2495
 3867TIP3   OH233015   0.704   3.161  11.682  0.6403 -0.5552  1.1547
 3867TIP3    H133016   0.646   3.156  11.607  2.0621  0.8847 -0.1072
 3867TIP3    H233017   0.733   3.071  11.696  0.5629 -0.8042 -0.1940
 3868TIP3   OH233018   0.478   2.528  10.984 -0.3326 -0.1688 -0.1399
 3868TIP3    H133019   0.495   2.605  10.929  0.4537 -1.4017 -1.7003
 3868TIP3    H233020   0.557   2.518  11.037  0.1729 -0.6964 -0.9655
 3869TIP3   OH233021   5.402   5.785   3.322 -0.4772  0.0743  0.6285
 3869TIP3    H133022   5.422   5.760   3.232  0.2306  1.9916  0.2121
 3869TIP3    H233023   5.468   5.851   3.345 -1.3236  0.4507  2.1564
 3870TIP3   OH233024   0.428   1.816  17.277  0.2014 -0.2062 -0.1978
 3870TIP3    H133025   0.456   1.737  17.323 -1.1209 -1.3900 -1.3063
 3870TIP3    H233026   0.374   1.863  17.341 -1.3965 -1.6938 -0.3695
 3871TIP3   OH233027   1.417   3.725  16.710 -0.2052  0.5659  0.0479
 3871TIP3    H133028   1.334   3.722  16.758 -1.0216  1.6026 -1.2307
 3871TIP3    H233029   1.407   3.659  16.641  0.5462 -0.1766  0.6213
 3872TIP3   OH233030   0.888   4.493   3.560 -0.6079  0.1514  0.4309
 3872TIP3    H133031   0.841   4.444   3.628  2.1599 -0.6174  1.9170
 3872TIP3    H233032   0.966   4.527   3.603  0.4033  1.1326 -1.9636
 3873TIP3   OH233033   5.500   1.080   2.020  0.1401  0.4798 -0.4149
 3873TIP3    H133034   5.412   1.102   2.052 -0.3107 -0.9249 -0.6310
 3873TIP3    H233035   5.523   1.153   1.962 -2.6165 -0.9410 -3.6688
 3874TIP3   OH233036   0.741   4.197  12.046  0.5207 -0.2485 -0.0837
 3874TIP3    H133037   0.753   4.145  11.967  0.3083 -0.0555 -0.2447
 3874TIP3    H233038   0.824   4.188  12.093  0.1323 -1.5541  0.3940
 3875TIP3   OH233039   1.489   2.846  12.152 -0.1547  0.0993 -0.5214
 3875TIP3    H133040   1.533   2.812  12.230 -1.1762 -0.6351 -0.2478
 3875TIP3    H233041   1.521   2.790  12.081 -0.6456 -0.4429 -0.3217
 3876TIP3   OH233042   4.435   4.172   0.758  0.3611  0.5556  0.4426
 3876TIP3    H133043   4.474   4.128   0.833  0.0221  0.0459  0.3255
 3876TIP3    H233044   4.503   4.168   0.690 -0.5679 -2.1904 -0.4558
 3877TIP3   OH233045   4.317   5.078  12.549  0.6089 -0.1314  0.7858
 3877TIP3    H133046   4.356   5.034  12.473  0.8854  1.3100  0.0424
 3877TIP3    H233047   4.388   5.082  12.613  1.5371  1.7705 -0.2607
 3878TIP3   OH233048   2.853   2.009  12.078  0.1022  0.1865  0.1117
 3878TIP3    H133049   2.789   2.080  12.086 -0.4839 -0.3677  0.3101
 3878TIP3    H233050   2.854   1.968  12.164  3.1577  2.2410  1.2326
 3879TIP3   OH233051   0.836   4.187  16.933 -0.4599  0.4029  0.6732
 3879TIP3    H133052   0.917   4.141  16.911 -0.2170  1.8049 -1.7153
 3879TIP3    H233053   0.861   4.280  16.937 -1.7130  0.7436  1.1545
 3880TIP3   OH233054   4.414   6.275   6.765 -0.0817 -0.1962  0.2200
 3880TIP3    H133055   4.459   6.191   6.757  0.5376  0.0410  1.1095
 3880TIP3    H233056   4.432   6.320   6.683 -1.4018 -1.3873 -0.7706
 3881TIP3   OH233057   5.728   1.498  14.464  0.4205 -0.1314  0.4570
 3881TIP3    H133058   5.804   1.477  14.410  0.7769  1.2630  0.3720
 3881TIP3    H233059   5.674   1.419  14.462  2.0568 -1.3046  0.8683
 3882TIP3   OH233060   1.359   5.186   1.871  0.5473 -0.3581 -0.9144
 3882TIP3    H133061   1.395   5.144   1.949 -0.2816 -0.3691 -0.5238
 3882TIP3    H233062   1.315   5.115   1.823  0.9725 -0.3344 -1.3528
 3883TIP3   OH233063   3.494   3.937  16.282  0.1280  0.7605 -0.3575
 3883TIP3    H133064   3.546   3.907  16.357 -0.9166 -0.1398  0.0350
 3883TIP3    H233065   3.559   3.963  16.217  1.1260 -1.7889 -0.4867
 3884TIP3   OH233066   5.036   3.438   4.329 -0.2801 -0.0595 -0.0876
 3884TIP3    H133067   4.964   3.424   4.267 -0.2377  0.6766 -0.3199
 3884TIP3    H233068   4.993   3.451   4.413 -0.5163  1.5377 -0.4207
 3885TIP3   OH233069   2.011   4.294  16.374  0.3474  0.3224  0.1955
 3885TIP3    H133070   1.961   4.229  16.423 -0.1277  0.9768  0.5925
 3885TIP3    H233071   2.084   4.316  16.432 -0.0855  0.9253  0.5179
 3886TIP3   OH233072   2.597   6.432  13.735  0.0028  0.0070 -0.2912
 3886TIP3    H133073   2.628   6.388  13.656 -0.4334 -0.5211 -0.1752
 3886TIP3    H233074   2.638   6.519  13.732  0.7135 -0.3338 -0.6199
 3887TIP3   OH233075   0.437   3.420   5.642 -0.6985 -0.0413 -0.3050
 3887TIP3    H133076   0.434   3.450   5.551  1.2199 -1.2129 -0.8109
 3887TIP3    H233077   0.528   3.432   5.668 -0.6603 -1.9476  0.6334
 3888TIP3   OH233078   6.571   2.301   5.485  0.1407 -0.4050 -0.4040
 3888TIP3    H133079   6.498   2.359   5.466 -1.2623 -2.2559 -0.9451
 3888TIP3    H233080   6.548   2.261   5.569  0.5920 -0.9198 -0.5249
 3889TIP3   OH233081   2.300   3.865  12.492 -0.3458  0.4188 -0.1002
 3889TIP3    H133082   2.317   3.942  12.437 -0.5520  0.0274 -0.7248
 3889TIP3    H233083   2.215   3.883  12.533 -0.4061  0.5217 -0.2664
 3890TIP3   OH233084   1.695   6.288   2.932  0.3551  0.2862 -0.4001
 3890TIP3    H133085   1.715   6.372   2.974 -1.7234 -0.6811  2.8884
 3890TIP3    H233086   1.775   6.236   2.944 -0.0538  0.1527  2.3520
 3891TIP3   OH233087   6.185   6.082   3.811  0.1416  0.0792 -0.1317
 3891TIP3    H133088   6.244   6.093   3.885 -1.9003  0.2112  1.5782
 3891TIP3    H233089   6.114   6.028   3.845 -1.3277  0.9222 -1.7072
 3892TIP3   OH233090   4.394   2.506   0.632  0.0080 -0.2398  0.2867
 3892TIP3    H133091   4.316   2.561   0.618 -0.1306  0.0859  2.1665
 3892TIP3    H233092   4.463   2.549   0.581 -0.7230  0.1588 -0.3976
 3893TIP3   OH233093   0.604   1.665   3.816  0.0433  0.3642  0.5760
 3893TIP3    H133094   0.524   1.636   3.771  0.6277 -0.7086  0.1807
 3893TIP3    H233095   0.675   1.627   3.764  0.7968  0.8352  1.2450
 3894TIP3   OH233096   4.263   5.826  15.626  0.0442 -0.3964  0.0899
 3894TIP3    H133097   4.326   5.761  15.595  1.0352  0.4412  0.2839
 3894TIP3    H233098   4.283   5.835  15.719 -1.0273 -0.8304  0.3712
 3895TIP3   OH233099   1.898   4.389  12.285  0.2145  0.1226  0.3487
 3895TIP3    H133100   1.914   4.478  12.315 -0.4614  0.0286  1.0230
 3895TIP3    H233101   1.985   4.355  12.262  0.4012  1.1712 -0.5746
 3896TIP3   OH233102   3.551   6.205  14.431 -0.2955 -0.5704  0.2997
 3896TIP3    H133103   3.458   6.197  14.452 -0.0443 -1.0324  1.2801
 3896TIP3    H233104   3.591   6.125  14.465  0.5323 -0.1867  0.2771
 3897TIP3   OH233105   4.691   4.216  15.116  0.5218  0.2513  0.4213
 3897TIP3    H133106   4.653   4.141  15.070 -0.3245  0.4287  0.8017
 3897TIP3    H233107   4.624   4.285  15.109  0.1921  0.1723  2.2047
 3898TIP3   OH233108   6.474   3.924   0.381  0.5131  0.1350 -0.5320
 3898TIP3    H133109   6.555   3.912   0.332 -0.0888  0.1764 -1.5568
 3898TIP3    H233110   6.405   3.891   0.323 -0.2716  0.6987  0.0555
 3899TIP3   OH233111   2.162   4.470  17.230 -0.7097 -0.5165 -0.7109
 3899TIP3    H133112   2.219   4.431  17.297 -1.0355 -0.1208 -0.1932
 3899TIP3    H233113   2.209   4.456  17.148  0.6280  0.6940 -0.1883
 3900TIP3   OH233114   3.499   0.014   2.866 -0.2265 -0.2801  0.1761
 3900TIP3    H133115   3.590  -0.014   2.879 -0.4575 -1.2491 -0.2139
 3900TIP3    H233116   3.505   0.109   2.856  0.8313 -0.3889 -0.4830
 3901TIP3   OH233117   6.012   4.645   4.965 -0.4068  0.6148  0.0789
 3901TIP3    H133118   5.932   4.593   4.965 -0.3715  0.5466  0.9629
 3901TIP3    H233119   5.994   4.717   4.905 -1.6772  1.4083  1.3480
 3902TIP3   OH233120   6.514   5.051  17.033  0.4312  0.1531 -0.3926
 3902TIP3    H133121   6.559   5.023  17.113  1.1531  0.1804 -0.7802
 3902TIP3    H233122   6.437   4.995  17.029 -0.0495  0.7044  0.7471
 3903TIP3   OH233123   1.830   2.821   2.619  0.4026  0.4463 -0.0342
 3903TIP3    H133124   1.859   2.798   2.531  2.2055  1.8911  0.1281
 3903TIP3    H233125   1.734   2.822   2.614  0.3684 -2.0881 -1.2486
 3904TIP3   OH233126   1.387   1.560  13.593 -0.2821 -0.1767  0.3191
 3904TIP3    H133127   1.386   1.505  13.514 -0.3132  0.2124  0.0432
 3904TIP3    H233128   1.295   1.566  13.619 -0.5969  1.6202 -0.9932
 3905TIP3   OH233129   3.111   2.158   4.549  0.0654 -0.1114  0.0859
 3905TIP3    H133130   3.176   2.133   4.614 -0.0530  1.2092  0.7276
 3905TIP3    H233131   3.134   2.247   4.523 -2.9428  1.5025  2.3125
 3906TIP3   OH233132   2.413   3.063  12.780  0.3197  0.1070 -0.3017
 3906TIP3    H133133   2.340   3.097  12.832  0.8609 -0.2483  0.7151
 3906TIP3    H233134   2.465   3.140  12.758 -0.2355  0.3343 -0.8334
 3907TIP3   OH233135   4.668   2.851   5.509  0.3660  0.4733  0.3214
 3907TIP3    H133136   4.764   2.860   5.508  0.3981  0.1884 -0.7190
 3907TIP3    H233137   4.652   2.775   5.566  0.7001  1.0079  1.1451
 3908TIP3   OH233138   5.655   6.068  15.803  0.1726  0.2553 -0.0620
 3908TIP3    H133139   5.722   6.121  15.846 -0.5191  2.3699 -1.4393
 3908TIP3    H233140   5.681   5.978  15.821  4.3116  0.8587 -1.7288
 3909TIP3   OH233141   5.046   0.020  16.302  0.4006 -0.0615 -0.0538
 3909TIP3    H133142   5.129   0.066  16.315 -0.0805  1.5389 -2.0827
 3909TIP3    H233143   4.984   0.065  16.358  0.6573 -0.5143  0.5985
 3910TIP3   OH233144   4.732   3.117  17.068  0.1734  0.3359 -0.3325
 3910TIP3    H133145   4.725   3.025  17.092 -1.0276  0.8768  1.6053
 3910TIP3    H233146   4.692   3.164  17.141  3.8990  2.6084  0.5478
 3911TIP3   OH233147   4.657   2.957   5.878 -0.0866  0.4142  0.4607
 3911TIP3    H133148   4.652   2.868   5.915 -0.7539  0.7086  1.1107
 3911TIP3    H233149   4.623   3.013   5.948 -0.2688  1.1104 -0.1856
 3912TIP3   OH233150   1.435   6.556  16.484 -0.6546  0.2105 -0.3965
 3912TIP3    H133151   1.416   6.508  16.564 -0.0450  0.4845 -0.0848
 3912TIP3    H233152   1.363   6.533  16.425  1.2398 -3.7303 -1.4790
 3913TIP3   OH233153   3.195   5.612   3.972  0.0405 -0.0359  0.4099
 3913TIP3    H133154   3.125   5.548   3.961  0.5341 -0.2765 -1.7977
 3913TIP3    H233155   3.210   5.647   3.884  0.7551  2.0970  1.3200
 3914TIP3   OH233156   2.756   4.626  14.621  0.1701  0.5346 -0.4729
 3914TIP3    H133157   2.773   4.646  14.530 -0.9487  0.9105 -0.6218
 3914TIP3    H233158   2.667   4.658  14.636  0.0180 -0.2884  0.5158
 3915TIP3   OH233159   4.084   2.779  16.764 -0.1752  0.1296  0.0530
 3915TIP3    H133160   4.147   2.749  16.699  1.3418  3.1389 -0.0351
 3915TIP3    H233161   4.004   2.795  16.715 -0.3138 -1.4046 -0.2738
 3916TIP3   OH233162   4.790   5.245  14.000 -0.3170  0.0675 -0.2633
 3916TIP3    H133163   4.741   5.163  14.001 -0.8232  0.3701  0.8199
 3916TIP3    H233164   4.724   5.313  14.012  0.3979  0.4366  1.9805
 3917TIP3   OH233165   5.926   4.596  16.065 -0.2514  0.2722 -0.0782
 3917TIP3    H133166   5.935   4.669  16.126 -0.0944 -0.1860  0.4632
 3917TIP3    H233167   6.016   4.577  16.037 -0.4895  1.9231 -2.2382
 3918TIP3   OH233168   2.019   4.103  16.844 -0.0263 -0.0445  0.0372
 3918TIP3    H133169   2.064   4.146  16.771 -1.8564 -0.2415 -1.2640
 3918TIP3    H233170   1.986   4.022  16.807 -3.5264  1.1571  0.1568
 3919TIP3   OH233171   1.004   4.748  13.157  0.0827 -0.2339 -0.1816
 3919TIP3    H133172   0.964   4.731  13.072 -0.5394 -1.6604  0.3575
 3919TIP3    H233173   1.090   4.785  13.137 -0.3200  0.0661 -1.4038
 3920TIP3   OH233174   3.543   1.219   5.712 -0.5591  0.1672  0.3739
 3920TIP3    H133175   3.620   1.264   5.748 -0.2587  1.3107 -1.5558
 3920TIP3    H233176   3.579   1.142   5.670 -0.3382  1.0371 -1.0918
 3921TIP3   OH233177   4.860   2.518  13.997  0.3628  0.1388 -0.0921
 3921TIP3    H133178   4.864   2.471  14.080  0.4334 -0.6247 -0.5192
 3921TIP3    H233179   4.949   2.552  13.984 -0.0507  1.7463  0.9679
 3922TIP3   OH233180   1.918   0.910  15.447 -0.2910  0.9467 -0.7856
 3922TIP3    H133181   1.831   0.891  15.483  1.3846 -1.4924  2.5351
 3922TIP3    H233182   1.933   0.839  15.385 -0.0743  0.3645 -0.0875
 3923TIP3   OH233183   0.725   0.182  11.393  0.3034 -0.2054  0.2822
 3923TIP3    H133184   0.794   0.121  11.366 -0.9290 -0.6649 -2.1784
 3923TIP3    H233185   0.754   0.267  11.361 -0.0875 -0.3598 -0.5376
 3924TIP3   OH233186   3.768   4.683   1.328  0.5005 -0.1626 -0.2690
 3924TIP3    H133187   3.861   4.703   1.315  0.8021 -1.6126 -0.4702
 3924TIP3    H233188   3.768   4.597   1.369 -0.7551  0.1173  0.3767
 3925TIP3   OH233189   0.549   3.573  16.382  0.2526  0.1616  0.2752
 3925TIP3    H133190   0.610   3.532  16.444  0.3494 -0.1027  0.0101
 3925TIP3    H233191   0.576   3.538  16.297  0.2810  0.7223  0.0535
 3926TIP3   OH233192   0.253   1.137  16.068  0.5703 -0.1676  0.2588
 3926TIP3    H133193   0.166   1.125  16.107  0.5668 -1.8565 -0.2043
 3926TIP3    H233194   0.237   1.140  15.974  1.0603 -1.1136  0.1345
 3927TIP3   OH233195   0.167   6.431  12.762  0.4965  0.1075  0.5050
 3927TIP3    H133196   0.250   6.477  12.772  0.1449  0.6244  1.1944
 3927TIP3    H233197   0.188   6.353  12.711  0.9358  1.4841 -1.5248
 3928TIP3   OH233198   1.034   5.713   0.869  0.3095  0.1308 -0.8620
 3928TIP3    H133199   1.021   5.748   0.957 -0.0038 -0.0137 -0.8491
 3928TIP3    H233200   1.126   5.688   0.867  0.2342 -0.2005 -0.4527
 3929TIP3   OH233201   4.573   2.030   3.993  0.2821 -0.6708  0.4474
 3929TIP3    H133202   4.597   2.050   3.902  0.6423  0.0390  0.6891
 3929TIP3    H233203   4.543   2.114   4.028 -1.8002 -1.3227  0.4017
 3930TIP3   OH233204   1.577   6.717   6.587  0.2139  0.4907 -0.0691
 3930TIP3    H133205   1.588   6.622   6.585  1.9952  0.6300  0.7698
 3930TIP3    H233206   1.649   6.751   6.534  0.7253  1.4006  1.1301
 3931TIP3   OH233207   1.799   5.242  16.656 -0.6376  0.0353 -0.3726
 3931TIP3    H133208   1.765   5.316  16.706 -0.5240 -0.5584  0.6162
 3931TIP3    H233209   1.891   5.236  16.681 -0.5043 -0.0969 -0.8771
 3932TIP3   OH233210   2.335   4.413  10.769  0.6374 -0.3263 -0.1142
 3932TIP3    H133211   2.287   4.369  10.840  0.2565  0.5726  0.2042
 3932TIP3    H233212   2.291   4.497  10.760  1.8561  0.3272 -0.1553
 3933TIP3   OH233213   6.223   2.689  15.521  0.3551  0.0746  0.5457
 3933TIP3    H133214   6.309   2.721  15.494  0.0541  0.5477  0.1147
 3933TIP3    H233215   6.203   2.739  15.601  0.3554  0.1727  0.4841
 3934TIP3   OH233216   1.787   3.495   0.193 -0.0762  0.7751  0.5972
 3934TIP3    H133217   1.783   3.435   0.267 -0.9890  0.4524  0.3101
 3934TIP3    H233218   1.728   3.567   0.217 -1.0568  0.2497 -0.1464
 3935TIP3   OH233219   3.347   3.747   0.522 -0.5590  0.4218 -0.0752
 3935TIP3    H133220   3.399   3.753   0.442  0.1593 -1.9661  0.1401
 3935TIP3    H233221   3.411   3.750   0.593 -0.8181 -1.0002  0.2523
 3936TIP3   OH233222   5.498   0.928  13.064  0.3114 -0.6745  0.1294
 3936TIP3    H133223   5.532   0.853  13.015 -3.3451 -1.5204 -1.4511
 3936TIP3    H233224   5.502   1.001  13.003  0.5481 -0.4185  0.4413
 3937TIP3   OH233225   1.363   4.470   5.189  0.1208 -0.3567 -0.0863
 3937TIP3    H133226   1.440   4.527   5.184 -0.1598  0.1977  1.3430
 3937TIP3    H233227   1.318   4.498   5.269 -1.3118 -0.9950 -0.6369
 3938TIP3   OH233228   4.064   4.233  14.598 -0.4512  0.3249  0.4355
 3938TIP3    H133229   4.109   4.234  14.514  1.6226 -0.1288  1.4710
 3938TIP3    H233230   4.084   4.147  14.635 -1.4817  0.4513  1.3281
 3939TIP3   OH233231   5.892   1.633  11.257 -0.2817 -0.3338  0.3718
 3939TIP3    H133232   5.917   1.711  11.207  0.7258 -0.2477  0.9605
 3939TIP3    H233233   5.942   1.562  11.217 -0.1218 -0.4158  0.7133
 3940TIP3   OH233234   3.848   2.330  11.408  0.4985  0.4483 -0.1887
 3940TIP3    H133235   3.871   2.423  11.406  1.7868  0.2500  2.0653
 3940TIP3    H233236   3.831   2.311  11.501  2.8517 -2.1020 -0.1480
 3941TIP3   OH233237   0.404   3.764  17.032 -0.0929 -0.9361 -0.2187
 3941TIP3    H133238   0.350   3.812  16.969 -0.8858 -2.4603 -0.7714
 3941TIP3    H233239   0.374   3.673  17.024  0.3484 -1.3056  1.7887
 3942TIP3   OH233240   2.677   2.795  13.737 -0.0353 -0.1628 -0.0457
 3942TIP3    H133241   2.679   2.890  13.753  1.0854 -0.3825  1.3184
 3942TIP3    H233242   2.584   2.774  13.731 -0.3344  0.8972  0.5213
 3943TIP3   OH233243   2.899   4.505   5.937  0.1922 -0.9055  0.7890
 3943TIP3    H133244   2.924   4.581   5.990  0.0954 -1.6838  1.9793
 3943TIP3    H233245   2.973   4.444   5.946 -0.6849 -1.8620  1.6593
 3944TIP3   OH233246   2.219   0.917   2.304  0.3891 -0.5010 -0.7056
 3944TIP3    H133247   2.172   0.999   2.312 -0.2263 -1.0664  2.8714
 3944TIP3    H233248   2.201   0.887   2.215 -3.4548  0.8453 -0.5259
 3945TIP3   OH233249   1.593   3.353   2.343  0.4638  0.2045 -0.2047
 3945TIP3    H133250   1.647   3.428   2.370  1.1670 -0.6026  0.7124
 3945TIP3    H233251   1.650   3.302   2.286 -0.2371  0.6899 -1.3692
 3946TIP3   OH233252   6.352   6.699   5.811  0.3307  0.2909  0.0954
 3946TIP3    H133253   6.258   6.709   5.827  0.4712  0.2745  1.0074
 3946TIP3    H233254   6.372   6.611   5.842  0.4802 -0.0770 -1.0013
 3947TIP3   OH233255   2.614   6.430  12.854  0.0518  0.1916  0.4351
 3947TIP3    H133256   2.526   6.409  12.823  0.2943 -0.6511  0.3006
 3947TIP3    H233257   2.672   6.396  12.785  0.5280 -0.2669  1.0589
 3948TIP3   OH233258   5.436   0.228   0.047  0.1368 -0.6160  0.6506
 3948TIP3    H133259   5.356   0.211   0.097 -0.2229 -1.1931 -0.0978
 3948TIP3    H233260   5.411   0.214  -0.044  1.0242 -0.5218  0.3796
 3949TIP3   OH233261   3.447   5.799  13.521 -0.1522  0.2406 -0.4808
 3949TIP3    H133262   3.494   5.744  13.459 -1.2465  0.0870 -1.2159
 3949TIP3    H233263   3.477   5.771  13.607  0.8758 -0.0280 -0.9196
 3950TIP3   OH233264   6.330   4.116  17.237 -0.3407 -0.1132  0.3661
 3950TIP3    H133265   6.384   4.169  17.295 -0.7553  0.8430 -0.1023
 3950TIP3    H233266   6.386   4.100  17.161  0.0953 -1.1108  0.8836
 3951TIP3   OH233267   3.198   4.099  15.649  0.1093 -0.0338 -0.1760
 3951TIP3    H133268   3.194   4.068  15.559  3.2805 -1.3677  0.0031
 3951TIP3    H233269   3.123   4.158  15.658 -2.0283 -2.1212 -2.7435
 3952TIP3   OH233270   4.041   0.943  11.544 -0.1530 -0.2463 -0.0925
 3952TIP3    H133271   4.015   0.949  11.636  2.2859  1.6673  0.5802
 3952TIP3    H233272   3.959   0.932  11.496 -1.9711  2.8746  2.0012
 3953TIP3   OH233273   6.543   1.042  16.820 -0.0702  1.0584 -0.1362
 3953TIP3    H133274   6.516   1.133  16.812 -0.8682  0.6848 -2.1148
 3953TIP3    H233275   6.462   0.992  16.814  0.5079  0.1543 -0.5969
 3954TIP3   OH233276   0.626   0.225   3.167 -0.0229 -0.7347 -0.1274
 3954TIP3    H133277   0.685   0.213   3.241  0.0573 -0.6974 -0.1847
 3954TIP3    H233278   0.632   0.319   3.146 -2.0802 -0.1681  1.5231
 3955TIP3   OH233279   2.502   1.544   3.957  0.7743  0.2065 -0.2736
 3955TIP3    H133280   2.590   1.575   3.935  1.7905 -0.3298  2.5924
 3955TIP3    H233281   2.494   1.461   3.910  1.1411  0.9923 -1.7906
 3956TIP3   OH233282   2.234   3.137  10.768  0.2192 -0.7152  0.6224
 3956TIP3    H133283   2.301   3.078  10.734 -0.4889 -0.0107 -2.2840
 3956TIP3    H233284   2.155   3.117  10.718 -0.6762  1.1098  1.1894
 3957TIP3   OH233285   4.894   0.356   5.585  0.1748 -0.0907 -0.4569
 3957TIP3    H133286   4.987   0.339   5.598 -0.0550 -2.3983 -1.4068
 3957TIP3    H233287   4.891   0.415   5.509  0.8878  1.7392  0.8687
 3958TIP3   OH233288   5.182   1.640  11.885 -0.4483 -0.4489 -0.0708
 3958TIP3    H133289   5.227   1.664  11.804 -0.5925 -1.1259 -0.3631
 3958TIP3    H233290   5.165   1.546  11.876 -2.3149 -0.1497 -0.1912
 3959TIP3   OH233291   3.368   2.154   3.610 -0.2724  0.5503  0.2009
 3959TIP3    H133292   3.310   2.195   3.546  0.6754  0.9472 -0.4376
 3959TIP3    H233293   3.371   2.216   3.683  0.3156  1.1244 -0.3017
 3960TIP3   OH233294   2.381   6.151  13.382 -0.0196 -0.0617  0.8887
 3960TIP3    H133295   2.418   6.096  13.313 -0.6775  0.4220  0.1363
 3960TIP3    H233296   2.362   6.234  13.339 -1.2499 -0.0413  1.4303
 3961TIP3   OH233297   2.412   2.643   1.566  0.8468 -0.2642  0.3998
 3961TIP3    H133298   2.349   2.588   1.520  2.6303 -1.8031 -0.3177
 3961TIP3    H233299   2.475   2.668   1.499  2.0889 -0.4119  1.4855
 3962TIP3   OH233300   1.547   3.642   3.806 -0.3188  0.0519  0.0958
 3962TIP3    H133301   1.578   3.662   3.894 -0.4563 -0.4769  0.2671
 3962TIP3    H233302   1.483   3.572   3.818  1.9195 -2.2720 -0.6808
 3963TIP3   OH233303   5.401   3.809   1.305 -0.2650  0.2765  0.0103
 3963TIP3    H133304   5.316   3.771   1.281 -0.0530  0.6474 -1.4574
 3963TIP3    H233305   5.456   3.733   1.323 -0.6716 -0.0009  0.1059
 3964TIP3   OH233306   4.583   1.961   1.547 -0.4444 -0.1435  0.4993
 3964TIP3    H133307   4.672   1.982   1.578 -0.8147 -0.4294  1.8134
 3964TIP3    H233308   4.583   1.866   1.537 -0.6048 -0.1448  0.5100
 3965TIP3   OH233309   0.483   1.539   0.069 -0.2379  0.0242 -0.4201
 3965TIP3    H133310   0.550   1.480   0.104 -1.0266 -1.4420 -1.2826
 3965TIP3    H233311   0.468   1.508  -0.020 -0.4855  1.7298 -1.0005
 3966TIP3   OH233312   2.698   5.874   5.187 -0.5682  0.0502 -0.0754
 3966TIP3    H133313   2.792   5.881   5.173 -0.3504 -1.0483  0.7041
 3966TIP3    H233314   2.687   5.880   5.282 -1.2051 -0.5125 -0.1039
 3967TIP3   OH233315   1.931   5.030  16.816 -0.2158  0.0004 -0.1719
 3967TIP3    H133316   2.009   4.976  16.800  0.7644  1.2681  0.1874
 3967TIP3    H233317   1.966   5.117  16.836 -1.7440  0.6447 -0.2139
 3968TIP3   OH233318   0.240   6.652  15.930 -0.4335  0.0279  0.4555
 3968TIP3    H133319   0.309   6.685  15.872 -0.5112 -1.8150 -0.7765
 3968TIP3    H233320   0.285   6.593  15.990 -0.7527 -0.1096  0.5610
 3969TIP3   OH233321   5.705   1.486  17.006  0.2067 -0.3783  0.5451
 3969TIP3    H133322   5.768   1.558  16.996 -2.4613  2.0151 -0.1030
 3969TIP3    H233323   5.681   1.489  17.099  0.2667 -0.6028  0.5683
 3970TIP3   OH233324   1.021   6.711  15.528 -0.0597 -0.3468  0.1704
 3970TIP3    H133325   1.050   6.700  15.437 -1.6818  0.5186 -0.4987
 3970TIP3    H233326   1.016   6.622  15.562  0.6418 -0.6842 -0.5601
 3971TIP3   OH233327   0.117   6.435   2.520 -0.1600 -0.1805 -0.2338
 3971TIP3    H133328   0.173   6.367   2.556 -0.4349 -0.7913 -0.9455
 3971TIP3    H233329   0.097   6.492   2.594 -0.3615 -1.1626  0.4791
 3972TIP3   OH233330   3.170   6.467  16.712  0.0170 -0.1664  0.0092
 3972TIP3    H133331   3.154   6.393  16.654 -0.7989  0.0734 -0.0782
 3972TIP3    H233332   3.125   6.443  16.794  0.3051 -0.0559  0.2014
 3973TIP3   OH233333   4.356   5.328   5.895  0.3600 -0.3491 -0.0995
 3973TIP3    H133334   4.323   5.369   5.975  1.4347 -1.8966  1.2094
 3973TIP3    H233335   4.445   5.361   5.886 -0.1020  0.6487 -1.3118
 3974TIP3   OH233336   5.695   1.807  13.044  0.3565  0.3857  0.3652
 3974TIP3    H133337   5.784   1.837  13.062  0.6557  0.7611 -1.5062
 3974TIP3    H233338   5.644   1.888  13.032  0.5109  0.2391 -1.7246
 3975TIP3   OH233339   4.236   1.561   0.678 -0.4494 -0.0586  0.2917
 3975TIP3    H133340   4.179   1.524   0.611  0.9524  2.2668 -2.4230
 3975TIP3    H233341   4.177   1.586   0.749 -2.3086 -0.7798 -0.9175
 3976TIP3   OH233342   0.088   0.571   0.233  0.2957 -0.3221 -0.3092
 3976TIP3    H133343   0.178   0.541   0.244  0.0849 -0.5453  1.0628
 3976TIP3    H233344   0.035   0.493   0.253 -0.2048  0.0343 -0.2410
 3977TIP3   OH233345   2.591   1.062  12.946  0.4710 -0.0361 -0.2191
 3977TIP3    H133346   2.545   1.144  12.966 -1.1512 -1.0035  0.0869
 3977TIP3    H233347   2.603   1.064  12.851  2.5724  1.6097 -0.0180
 3978TIP3   OH233348   4.309   6.246  15.686  0.1247  0.3119 -0.4737
 3978TIP3    H133349   4.340   6.231  15.596 -1.1703 -0.4936 -0.8191
 3978TIP3    H233350   4.247   6.318  15.679 -1.3016 -0.8637 -0.5739
 3979TIP3   OH233351   4.405   3.597  12.024  0.2896  0.3807 -0.2778
 3979TIP3    H133352   4.480   3.547  11.992  0.3130 -0.2114  0.6514
 3979TIP3    H233353   4.443   3.663  12.081  0.0617 -0.6434  1.1148
 3980TIP3   OH233354   5.732   4.634  15.573  0.6530 -0.6075 -0.3600
 3980TIP3    H133355   5.666   4.646  15.642 -0.2243  0.6886 -1.3668
 3980TIP3    H233356   5.793   4.707  15.586  0.3967 -0.2641 -1.0095
 3981TIP3   OH233357   2.486   0.064  16.866 -0.2706  0.7106  0.2798
 3981TIP3    H133358   2.463   0.154  16.844  1.2642  0.9749 -0.3540
 3981TIP3    H233359   2.561   0.071  16.924  0.5070 -0.1609 -0.5811
 3982TIP3   OH233360   2.115   1.652   2.853  0.5811 -0.2566 -0.4219
 3982TIP3    H133361   2.198   1.658   2.806  0.3495  0.4222 -0.7489
 3982TIP3    H233362   2.081   1.565   2.832  1.2850 -0.6058 -0.1505
 3983TIP3   OH233363   6.384   1.763   2.630 -0.6937 -0.7575 -0.0680
 3983TIP3    H133364   6.442   1.743   2.557 -0.1277  3.1540 -0.9181
 3983TIP3    H233365   6.429   1.728   2.707  0.9051 -1.1271 -1.1349
 3984TIP3   OH233366   3.669   6.738  13.857  0.4363 -0.0545  0.2635
 3984TIP3    H133367   3.684   6.744  13.763  0.4303  0.4686  0.2918
 3984TIP3    H233368   3.583   6.696  13.866 -0.5561  1.8062 -0.0222
 3985TIP3   OH233369   0.708   1.643  12.300 -0.1867  0.0522  0.3326
 3985TIP3    H133370   0.759   1.569  12.267 -0.9244  0.0486 -0.8648
 3985TIP3    H233371   0.673   1.612  12.384 -0.9470 -1.2108 -0.4054
 3986TIP3   OH233372   4.365   6.247  13.649 -0.4170 -0.5296  0.0724
 3986TIP3    H133373   4.319   6.163  13.649 -1.0253 -0.2166  1.4039
 3986TIP3    H233374   4.301   6.309  13.615  0.4128 -0.7655 -2.0346
 3987TIP3   OH233375   4.811   2.584   1.607 -0.0883 -0.0411 -0.1846
 3987TIP3    H133376   4.816   2.630   1.691 -0.5114 -1.0253  0.3862
 3987TIP3    H233377   4.788   2.653   1.544  0.6491  0.7879  0.4133
 3988TIP3   OH233378   6.269   2.836  10.658 -0.0561 -0.0259 -0.1353
 3988TIP3    H133379   6.212   2.768  10.623 -0.3546  1.0394 -1.8299
 3988TIP3    H233380   6.216   2.881  10.723 -1.1162  0.7919 -1.5193
 3989TIP3   OH233381   1.067   1.304  11.005  0.4424 -0.7833  0.5228
 3989TIP3    H133382   0.972   1.312  10.991  0.4498 -0.1795  0.7900
 3989TIP3    H233383   1.097   1.248  10.933 -0.0372 -0.5306  0.1194
 3990TIP3   OH233384   2.039   5.163   1.971  0.6712 -0.3467  0.7808
 3990TIP3    H133385   1.996   5.114   1.902 -0.4477  1.8097 -0.1537
 3990TIP3    H233386   2.120   5.195   1.932  0.5655 -0.0473  0.7974
 3991TIP3   OH233387   0.295   3.135   5.109  0.0332 -0.0954  0.3634
 3991TIP3    H133388   0.300   3.051   5.063  3.4246  0.4165 -0.4576
 3991TIP3    H233389   0.349   3.123   5.187  0.7166  1.3709  0.1419
 3992TIP3   OH233390   2.849   4.389  16.357  0.0959  0.1125  0.1702
 3992TIP3    H133391   2.903   4.440  16.417  0.6110 -0.0784 -0.1230
 3992TIP3    H233392   2.904   4.376  16.280 -0.7002  0.7058 -0.5223
 3993TIP3   OH233393   2.026   3.329  10.959 -0.1828  0.2609  0.2378
 3993TIP3    H133394   2.083   3.370  10.894 -0.1753  0.3637  0.3092
 3993TIP3    H233395   2.014   3.239  10.927 -0.5176  0.4319 -0.1242
 3994TIP3   OH233396   5.955   1.789   1.675 -0.1820 -0.4641  0.7761
 3994TIP3    H133397   6.040   1.798   1.632 -0.7652 -2.3956 -0.9486
 3994TIP3    H233398   5.975   1.790   1.768  1.9293 -2.0239  0.4211
 3995TIP3   OH233399   6.348   5.809   5.243  0.0817 -0.0078 -0.3173
 3995TIP3    H133400   6.403   5.740   5.207  0.3476  0.3377 -0.5909
 3995TIP3    H233401   6.271   5.764   5.279 -0.1341 -0.3782 -1.2139
 3996TIP3   OH233402   5.807   5.295   5.198  0.3522  0.1387 -0.1943
 3996TIP3    H133403   5.888   5.315   5.245  0.8380 -2.6373  0.3491
 3996TIP3    H233404   5.835   5.243   5.123 -0.8893 -0.7778 -0.0504
 3997TIP3   OH233405   2.924   5.588   3.766  0.1870 -0.4973 -0.4526
 3997TIP3    H133406   2.885   5.669   3.733  0.3459  0.2341  1.0628
 3997TIP3    H233407   2.873   5.518   3.725 -0.5483  0.3840 -1.0834
 3998TIP3   OH233408   6.499   3.359   5.234 -0.1358 -0.2633  0.0123
 3998TIP3    H133409   6.553   3.416   5.290 -0.6348 -1.3608  1.7071
 3998TIP3    H233410   6.410   3.373   5.265 -0.7066  0.4935 -1.8329
 3999TIP3   OH233411   0.224   4.863  10.572 -0.4285 -0.3255  0.5437
 3999TIP3    H133412   0.253   4.912  10.495  1.0559 -1.2231  0.4771
 3999TIP3    H233413   0.254   4.773  10.555 -2.1137 -1.0434  1.1409
 4000TIP3   OH233414   6.685   0.714  14.731  0.0688 -0.9361  0.4161
 4000TIP3    H133415   6.677   0.619  14.731 -0.3239 -0.9606 -2.0280
 4000TIP3    H233416   6.651   0.742  14.646  0.0238  1.4173  1.1166
 4001TIP3   OH233417   2.966   6.550   0.275 -0.5363  0.3488 -0.1489
 4001TIP3    H133418   2.904   6.561   0.202  0.6556  0.2275 -1.2242
 4001TIP3    H233419   3.050   6.533   0.232  0.1326 -0.1007  1.2781
 4002TIP3   OH233420   3.053   2.812   3.994 -0.8122  0.2577  0.3032
 4002TIP3    H133421   3.099   2.767   3.924  1.1923  1.7514  0.5632
 4002TIP3    H233422   3.074   2.762   4.073  0.2124  0.7833  0.3812
 4003TIP3   OH233423   3.471   4.437   1.013 -0.0109 -0.4591 -0.3491
 4003TIP3    H133424   3.498   4.513   1.065 -1.0678 -0.1590 -0.2038
 4003TIP3    H233425   3.502   4.456   0.924  0.5702 -0.3145 -0.1192
 4004TIP3   OH233426   5.131   2.088   3.364  0.1577 -0.3373  0.4347
 4004TIP3    H133427   5.117   2.106   3.271 -1.1428 -0.6156  0.5567
 4004TIP3    H233428   5.157   1.996   3.366 -1.9333 -0.9991  0.4600
 4005TIP3   OH233429   5.226   6.649  12.798  0.3162  0.0431  0.0968
 4005TIP3    H133430   5.174   6.636  12.877  0.0960  0.4561  0.0228
 4005TIP3    H233431   5.223   6.564  12.753  1.9971 -0.7797  1.4404
 4006TIP3   OH233432   0.507   4.068   1.180  0.1250  0.1905  0.8632
 4006TIP3    H133433   0.524   4.136   1.245 -0.1679 -1.0116  2.2424
 4006TIP3    H233434   0.509   4.114   1.096  2.9873  1.3669  1.4752
 4007TIP3   OH233435   3.361   5.290   2.543 -0.5631 -0.1535  0.5741
 4007TIP3    H133436   3.370   5.216   2.483 -0.6755 -0.5480  1.0465
 4007TIP3    H233437   3.394   5.258   2.627  0.7743  0.7690  0.4475
 4008TIP3   OH233438   3.073   0.438   3.645  0.1633  0.7583 -0.3111
 4008TIP3    H133439   3.047   0.419   3.555 -0.4427  2.4213 -0.5311
 4008TIP3    H233440   3.093   0.353   3.683 -1.3146 -0.1705 -1.4905
 4009TIP3   OH233441   3.495   5.794  13.178  0.2933  0.5497  0.2095
 4009TIP3    H133442   3.534   5.870  13.134 -1.2358  1.2898  0.0626
 4009TIP3    H233443   3.488   5.728  13.109  1.2352  0.3989  0.2367
 4010TIP3   OH233444   1.855   2.923  16.080 -0.0457  0.1722 -0.2346
 4010TIP3    H133445   1.876   2.831  16.062 -1.1874 -0.4573  1.3654
 4010TIP3    H233446   1.860   2.929  16.176 -2.5809  1.0805 -0.0892
 4011TIP3   OH233447   1.526   2.558  16.014  0.1461 -0.2158  0.5608
 4011TIP3    H133448   1.538   2.474  15.970 -1.1660 -0.2793  0.3012
 4011TIP3    H233449   1.431   2.568  16.022  0.2392  1.6325 -0.1477
 4012TIP3   OH233450   3.530   1.737   0.649  0.2766  0.6294 -0.0186
 4012TIP3    H133451   3.504   1.647   0.631  0.5079  0.7738 -1.1782
 4012TIP3    H233452   3.447   1.784   0.662  0.1293  0.3525  0.0428
 4013TIP3   OH233453   6.378   1.781  15.937  0.1509  0.9418 -0.3008
 4013TIP3    H133454   6.473   1.773  15.942  0.1922  0.2668 -1.7291
 4013TIP3    H233455   6.347   1.758  16.024  1.1471 -1.4176 -0.4974
 4014TIP3   OH233456   3.851   5.754   2.573  0.1968 -0.3496  0.2188
 4014TIP3    H133457   3.905   5.763   2.495  1.1011 -1.2340  0.7199
 4014TIP3    H233458   3.762   5.743   2.539  0.7818 -2.5870 -0.8145
 4015TIP3   OH233459   1.413   6.467   4.351 -0.4726 -0.3155 -0.1133
 4015TIP3    H133460   1.391   6.389   4.402  0.9859 -0.4250  0.3942
 4015TIP3    H233461   1.450   6.432   4.270  1.4615 -0.2384  0.6612
 4016TIP3   OH233462   1.681   2.311  16.351  0.1053 -0.0043  0.0550
 4016TIP3    H133463   1.736   2.362  16.411  1.1078  2.2465 -2.5543
 4016TIP3    H233464   1.618   2.267  16.408  2.1673  0.4121  2.8687
 4017TIP3   OH233465   3.509   3.154   3.209 -0.0230 -0.0297  0.3057
 4017TIP3    H133466   3.581   3.109   3.164 -0.0375 -1.5780  1.7598
 4017TIP3    H233467   3.439   3.158   3.145  1.3661  1.6835 -1.2203
 4018TIP3   OH233468   5.841   4.180   0.906 -0.0594  0.3610  0.0217
 4018TIP3    H133469   5.890   4.129   0.842 -0.1399  0.7654 -0.3662
 4018TIP3    H233470   5.907   4.234   0.950  0.1048 -0.4740  0.8185
 4019TIP3   OH233471   2.590   1.393  12.261 -0.3931 -0.4147 -0.0973
 4019TIP3    H133472   2.593   1.359  12.171  1.4799 -0.6910  0.0249
 4019TIP3    H233473   2.655   1.463  12.263 -1.8286  0.9556  0.5548
 4020TIP3   OH233474   5.871   0.006  13.595  0.3076  0.1821  0.6461
 4020TIP3    H133475   5.850  -0.028  13.682  2.6273 -1.0939  0.7739
 4020TIP3    H233476   5.865  -0.070  13.537 -0.6422  0.8992 -0.2407
 4021TIP3   OH233477   0.620   0.906   5.320 -0.5303 -0.1559  0.0686
 4021TIP3    H133478   0.642   0.998   5.338 -0.7726 -0.4480  2.0080
 4021TIP3    H233479   0.553   0.884   5.384 -1.3859 -1.3580 -1.1771
 4022TIP3   OH233480   5.286   5.318   4.498  0.1841 -0.4711  0.5888
 4022TIP3    H133481   5.198   5.354   4.486  0.6200  0.2651 -0.5202
 4022TIP3    H233482   5.271   5.229   4.529 -0.9385 -0.0340  1.3514
 4023TIP3   OH233483   4.320   2.758  13.069 -0.2953 -0.1154 -0.3958
 4023TIP3    H133484   4.284   2.671  13.088 -0.2932 -0.3782 -1.5447
 4023TIP3    H233485   4.264   2.818  13.120 -0.6816 -0.7330 -0.0796
 4024TIP3   OH233486   0.227   1.392   1.530 -0.2873  0.7201 -0.4752
 4024TIP3    H133487   0.244   1.298   1.518  0.3478  0.5445  1.3714
 4024TIP3    H233488   0.312   1.427   1.558 -0.2727  2.0520 -2.0919
 4025TIP3   OH233489   2.004   3.273   1.931 -0.3564 -0.5155 -0.4853
 4025TIP3    H133490   2.079   3.331   1.915  0.7682 -2.0442 -0.9867
 4025TIP3    H233491   1.928   3.323   1.902  0.4734  1.0054 -0.1498
 4026TIP3   OH233492   1.792   3.816   3.532  0.1124 -0.1407  0.3708
 4026TIP3    H133493   1.865   3.769   3.491  0.2253  0.8357 -0.6155
 4026TIP3    H233494   1.831   3.860   3.608  0.8668  1.3308 -0.8082
 4027TIP3   OH233495   1.901   5.542   2.972  0.0006 -0.0364  0.2247
 4027TIP3    H133496   1.929   5.475   3.035 -0.8487 -0.7569 -0.1506
 4027TIP3    H233497   1.811   5.518   2.950 -0.4218  1.4210  0.3174
 4028TIP3   OH233498   2.752   3.127  14.373 -0.0427  0.1687  0.3555
 4028TIP3    H133499   2.844   3.152  14.371 -0.2145  1.0420  1.6937
 4028TIP3    H233500   2.726   3.124  14.280  1.5375 -1.0209 -0.0774
 4029TIP3   OH233501   4.318   4.516  14.912  0.2826  0.2952 -0.4674
 4029TIP3    H133502   4.272   4.587  14.957  0.4558 -1.2593  2.4281
 4029TIP3    H233503   4.269   4.502  14.832 -1.8497  1.3767  0.5771
 4030TIP3   OH233504   1.955   1.605  12.780 -0.4617 -0.0838 -0.2894
 4030TIP3    H133505   1.886   1.630  12.842  0.7809 -0.6116  1.3767
 4030TIP3    H233506   1.952   1.509  12.779  0.9565 -0.1628  0.6837
 4031TIP3   OH233507   5.068   4.684   4.092  0.3643 -0.1524  0.2285
 4031TIP3    H133508   5.114   4.600   4.083  0.1346 -0.2839  0.2523
 4031TIP3    H233509   5.109   4.741   4.027  0.4295 -0.3267  0.1138
 4032TIP3   OH233510   2.750   5.057   0.177 -0.3081 -0.2771 -0.8755
 4032TIP3    H133511   2.761   5.140   0.131  0.0479  1.3253  1.8502
 4032TIP3    H233512   2.699   5.080   0.255  0.0862 -2.5535  0.1282
 4033TIP3   OH233513   3.964   2.134  11.657 -0.1156 -0.1328 -0.0212
 4033TIP3    H133514   3.878   2.162  11.688  0.5255  1.0526  0.7437
 4033TIP3    H233515   3.972   2.044  11.688 -0.4788  0.2368  1.2111
 4034TIP3   OH233516   4.920   2.486   2.272 -0.2568 -0.2679 -0.5626
 4034TIP3    H133517   4.918   2.409   2.216  0.1990  0.2504 -1.3084
 4034TIP3    H233518   4.842   2.477   2.327  0.7171 -2.1183  0.5727
 4035TIP3   OH233519   1.241   6.179   2.487  0.1639  0.0336 -0.1302
 4035TIP3    H133520   1.174   6.183   2.419  0.9652  1.4401 -0.8893
 4035TIP3    H233521   1.275   6.090   2.482 -1.5472 -0.6839  0.2092
 4036TIP3   OH233522   6.065   3.690   4.975  0.3620  0.2072  0.5721
 4036TIP3    H133523   6.002   3.696   4.903 -1.6540  2.5402  2.3506
 4036TIP3    H233524   6.149   3.673   4.932 -1.1532 -1.3043 -2.0493
 4037TIP3   OH233525   3.121   4.692   1.891 -0.1358  0.4094 -0.5915
 4037TIP3    H133526   3.033   4.714   1.921 -0.0060 -0.8941  0.9107
 4037TIP3    H233527   3.107   4.651   1.806 -1.7224 -4.4238  1.6238
 4038TIP3   OH233528   2.643   3.383   2.447 -0.1536  0.4342  0.2673
 4038TIP3    H133529   2.680   3.321   2.384  0.1698  0.6815  0.2133
 4038TIP3    H233530   2.559   3.344   2.471  0.3078 -0.3236  0.6848
 4039TIP3   OH233531   4.079   2.108   4.184  0.2363 -0.2008 -0.4902
 4039TIP3    H133532   4.072   2.142   4.273  0.6718  1.2998 -1.0075
 4039TIP3    H233533   3.989   2.105   4.153  0.1415 -0.0974 -0.2296
 4040TIP3   OH233534   3.789   1.443   4.943 -0.4891 -0.3070  0.2944
 4040TIP3    H133535   3.862   1.473   4.888 -1.3056  2.3280  0.5290
 4040TIP3    H233536   3.730   1.399   4.882 -0.8370  1.5717 -0.7961
 4041TIP3   OH233537   0.155   5.707  17.187  0.2908  0.1016 -0.0117
 4041TIP3    H133538   0.215   5.683  17.116 -0.6302 -1.2817 -0.3771
 4041TIP3    H233539   0.172   5.643  17.256  0.1005  0.4837  0.3955
 4042TIP3   OH233540   0.072   2.700   2.667  0.1468 -0.0965  0.3328
 4042TIP3    H133541   0.095   2.634   2.732  0.1287 -1.5764 -1.1285
 4042TIP3    H233542   0.114   2.780   2.699  2.6290 -1.4394  0.6469
 4043TIP3   OH233543   6.077   5.500  13.442  0.0654  0.2407  0.2875
 4043TIP3    H133544   6.125   5.528  13.364 -0.3496 -1.6617 -0.7087
 4043TIP3    H233545   5.996   5.550  13.439  0.8993  1.6683  0.6472
 4044TIP3   OH233546   4.973   1.255  14.087  0.6341  0.2736 -0.3018
 4044TIP3    H133547   4.921   1.334  14.103  1.3367  0.6736  0.0610
 4044TIP3    H233548   4.908   1.185  14.078 -0.0818  1.1232 -2.1618
 4045TIP3   OH233549   5.398   0.117   3.416 -0.3759  0.4534 -0.0188
 4045TIP3    H133550   5.445   0.166   3.348  2.0306 -0.4121  0.8903
 4045TIP3    H233551   5.433   0.152   3.499 -2.2849  0.6021  0.7639
 4046TIP3   OH233552   2.951   6.521  15.621 -0.0168  0.3836 -0.2487
 4046TIP3    H133553   2.974   6.589  15.558 -0.9827 -0.1740 -1.2460
 4046TIP3    H233554   2.961   6.563  15.707 -0.7438  1.8277 -0.8428
 4047TIP3   OH233555   2.939   2.539  12.998 -0.1527  0.1609 -0.4705
 4047TIP3    H133556   3.029   2.507  12.992 -0.6643 -1.3938 -0.2930
 4047TIP3    H233557   2.888   2.477  12.945 -1.6623 -1.2927  2.4569
 4048TIP3   OH233558   3.994   2.137   0.171  0.3620  0.3245  0.3104
 4048TIP3    H133559   4.045   2.103   0.244  2.9383  1.8277 -0.6821
 4048TIP3    H233560   3.977   2.060   0.116  5.1669  0.1728 -1.3742
 4049TIP3   OH233561   1.500   2.346  14.689  0.2547  0.0621 -0.4306
 4049TIP3    H133562   1.532   2.257  14.696  1.5927  0.6509  1.8838
 4049TIP3    H233563   1.447   2.360  14.767 -0.1842  1.1980 -0.8996
 4050TIP3   OH233564   5.598   4.671  11.920 -0.0978  0.0620 -0.2262
 4050TIP3    H133565   5.533   4.608  11.951  0.4319 -0.6684 -0.5595
 4050TIP3    H233566   5.677   4.650  11.970  0.4385 -0.3839 -1.2255
 4051TIP3   OH233567   1.760   3.164  12.786  0.0309 -0.3504 -0.0367
 4051TIP3    H133568   1.742   3.258  12.780 -1.8933 -0.6973 -0.3866
 4051TIP3    H233569   1.747   3.143  12.878 -0.8111 -0.4713 -0.1694
 4052TIP3   OH233570   3.575   0.652   4.177 -0.1429  0.4636 -0.0115
 4052TIP3    H133571   3.660   0.689   4.151 -1.0694  1.5183 -1.6811
 4052TIP3    H233572   3.593   0.612   4.262  2.1454  0.2007 -0.5320
 4053TIP3   OH233573   4.071   0.602  10.593  0.5429 -0.6694  0.4856
 4053TIP3    H133574   4.096   0.530  10.651  1.3540 -0.2859  0.6200
 4053TIP3    H233575   3.980   0.620  10.615  0.8330 -0.5470  1.6115
 4054TIP3   OH233576   0.522   0.642  12.551  0.0318  0.0094  0.0789
 4054TIP3    H133577   0.436   0.629  12.590  0.1322  0.8538  0.6143
 4054TIP3    H233578   0.549   0.729  12.580 -0.0235  0.8425 -2.1741
 4055TIP3   OH233579   4.627   4.013  11.726  0.0282  0.2069 -0.2038
 4055TIP3    H133580   4.631   3.929  11.773 -0.9710 -0.4532 -1.2380
 4055TIP3    H233581   4.604   4.077  11.794 -2.3688 -0.8772  0.1191
 4056TIP3   OH233582   0.980   0.319  13.368 -0.5122 -0.5746 -0.1631
 4056TIP3    H133583   0.982   0.290  13.459  0.2107 -0.1075 -0.0243
 4056TIP3    H233584   1.069   0.305  13.336 -0.1421  1.4307 -0.0978
 4057TIP3   OH233585   5.365   6.597  15.873 -0.1412  0.0608 -0.2731
 4057TIP3    H133586   5.336   6.526  15.817 -0.8183 -1.6998  2.1497
 4057TIP3    H233587   5.381   6.670  15.813  2.0551 -2.4882 -3.0947
 4058TIP3   OH233588   4.378   5.192   5.234  0.4578  0.6474  0.4589
 4058TIP3    H133589   4.383   5.275   5.281  1.1761  0.7698  0.1923
 4058TIP3    H233590   4.459   5.189   5.183  1.4480 -1.1205  1.9789
 4059TIP3   OH233591   0.907   0.054  15.208  0.2815 -0.2460  0.1757
 4059TIP3    H133592   0.847   0.032  15.278 -0.0735  1.1429  0.3364
 4059TIP3    H233593   0.966   0.120  15.246 -0.2325  0.9003 -0.9475
 4060TIP3   OH233594   2.166   2.899   4.453  0.3172 -0.2521 -0.1221
 4060TIP3    H133595   2.224   2.824   4.461 -0.0106 -0.3637  1.5326
 4060TIP3    H233596   2.152   2.928   4.543 -2.4575 -0.4279 -0.4194
 4061TIP3   OH233597   4.421   5.607   3.542 -0.4058 -0.1175 -0.3701
 4061TIP3    H133598   4.329   5.633   3.544 -0.5369 -0.4530 -1.4205
 4061TIP3    H233599   4.419   5.512   3.529  0.0805 -0.4643  1.6486
 4062TIP3   OH233600   6.315   0.101   3.183 -0.1052 -0.4776 -0.3579
 4062TIP3    H133601   6.407   0.126   3.187 -0.0216 -0.8877  0.2861
 4062TIP3    H233602   6.272   0.155   3.249 -0.0479 -1.4750  0.5148
 4063TIP3   OH233603   3.728   6.740  16.453 -0.3753 -0.2249 -0.3214
 4063TIP3    H133604   3.779   6.663  16.478  0.0986  0.2596  0.2484
 4063TIP3    H233605   3.665   6.751  16.525  0.8229  1.0228  0.5974
 4064TIP3   OH233606   6.297   5.337   3.650  0.3281 -0.4783 -0.2478
 4064TIP3    H133607   6.248   5.379   3.721 -1.2567 -0.9729 -1.0113
 4064TIP3    H233608   6.337   5.409   3.601 -1.6676  0.1319 -1.0523
 4065TIP3   OH233609   1.204   1.483   5.626  0.5054 -0.3018 -0.5560
 4065TIP3    H133610   1.273   1.549   5.624  0.4111 -0.2059 -2.3492
 4065TIP3    H233611   1.202   1.448   5.537 -1.4069 -0.6738 -0.4027
 4066TIP3   OH233612   5.128   4.586  12.828  0.0222  0.0689  0.9617
 4066TIP3    H133613   5.182   4.562  12.903  0.6917 -0.2180  0.3955
 4066TIP3    H233614   5.143   4.680  12.816  3.4791 -0.6183 -1.5317
 4067TIP3   OH233615   1.301   0.728   3.542  0.6120 -0.6396 -0.2181
 4067TIP3    H133616   1.288   0.706   3.634 -3.8772 -1.4954 -0.7970
 4067TIP3    H233617   1.251   0.809   3.530  0.4891 -0.9435 -2.0130
 4068TIP3   OH233618   0.125   4.394  13.067 -0.3478  0.5618 -0.0933
 4068TIP3    H133619   0.036   4.420  13.043  0.1119  1.8738 -0.4164
 4068TIP3    H233620   0.180   4.469  13.044  0.6330  0.4153  1.5857
 4069TIP3   OH233621   2.203   3.364   4.865 -0.2858  0.5074 -0.4072
 4069TIP3    H133622   2.184   3.386   4.773 -0.6187 -1.5401 -0.8835
 4069TIP3    H233623   2.291   3.327   4.863 -0.2339  0.5985  0.1268
 4070TIP3   OH233624   3.390   0.292   0.967  0.4150  0.1391  0.8015
 4070TIP3    H133625   3.320   0.332   0.915  2.9042  2.3575 -1.0787
 4070TIP3    H233626   3.408   0.355   1.036 -0.2879 -1.0606  2.1355
 4071TIP3   OH233627   4.903   1.025  15.196  0.0531  0.0023 -0.0502
 4071TIP3    H133628   4.980   0.976  15.166 -0.5465 -1.5311  0.8146
 4071TIP3    H233629   4.832   0.962  15.192 -1.1351  1.3283 -0.5912
 4072TIP3   OH233630   5.268   0.159  16.376 -0.0213 -0.0166 -0.1076
 4072TIP3    H133631   5.363   0.151  16.384 -0.0455  1.2754  2.6249
 4072TIP3    H233632   5.235   0.146  16.465 -2.1225  2.3708 -0.4311
 4073TIP3   OH233633   0.903   6.081  10.628  0.5677 -0.1586 -0.1565
 4073TIP3    H133634   0.969   6.011  10.635  0.4471 -0.5990 -2.6945
 4073TIP3    H233635   0.954   6.161  10.617  0.6739 -0.1173  0.5537
 4074TIP3   OH233636   4.325   6.319   5.653 -0.2278 -0.0419 -0.2556
 4074TIP3    H133637   4.364   6.302   5.739 -1.1411  1.5253  0.5021
 4074TIP3    H233638   4.288   6.407   5.659  0.1236  0.3270 -2.4309
 4075TIP3   OH233639   5.423   2.064   6.583 -0.5469 -0.2101 -0.0345
 4075TIP3    H133640   5.466   2.118   6.517 -0.7983  0.2764  0.1937
 4075TIP3    H233641   5.384   2.127   6.644  2.0470 -0.5881  2.2058
 4076TIP3   OH233642   3.410   2.803   5.899  0.3235  0.2865  0.0742
 4076TIP3    H133643   3.501   2.811   5.928  0.3171  2.1487 -0.2904
 4076TIP3    H233644   3.359   2.809   5.979  0.3968  3.4212  0.0093
 4077TIP3   OH233645   6.234   0.099  15.203 -0.1080  0.0860 -0.4728
 4077TIP3    H133646   6.257   0.132  15.290  0.8100  0.2454 -0.7602
 4077TIP3    H233647   6.141   0.077  15.209 -0.2369  0.7940  0.3317
 4078TIP3   OH233648   1.482   5.814  11.996 -0.2876 -0.4841 -0.4687
 4078TIP3    H133649   1.565   5.861  11.991 -0.9323  0.7520  0.1553
 4078TIP3    H233650   1.415   5.882  11.988 -1.2457 -1.2933  0.3897
 4079TIP3   OH233651   1.225   5.422   3.835 -0.3939  0.1569 -0.0705
 4079TIP3    H133652   1.249   5.476   3.760 -0.0858  1.7706  1.1465
 4079TIP3    H233653   1.253   5.333   3.810  0.5403  0.8019 -1.4686
 4080TIP3   OH233654   1.656   5.548  13.082 -0.0142 -0.0627  0.0206
 4080TIP3    H133655   1.614   5.464  13.100 -0.6602  0.4553  1.0586
 4080TIP3    H233656   1.627   5.605  13.154  2.5762  0.2875  0.9114
 4081TIP3   OH233657   2.040   5.614  16.008 -0.1606 -0.1795 -0.1471
 4081TIP3    H133658   2.083   5.686  16.054 -0.3480 -1.0888  1.5623
 4081TIP3    H233659   2.108   5.576  15.952 -0.1070  1.3891 -1.2041
 4082TIP3   OH233660   2.906   6.302   0.383  0.5122 -0.5284  0.1452
 4082TIP3    H133661   2.899   6.302   0.478  0.2329 -1.3179  0.1300
 4082TIP3    H233662   2.919   6.394   0.360 -0.8363 -0.1436  0.8420
 4083TIP3   OH233663   2.172   2.315  11.906 -0.1447 -0.0229 -0.6704
 4083TIP3    H133664   2.093   2.286  11.952 -1.0992  1.1839 -1.4884
 4083TIP3    H233665   2.214   2.375  11.967 -0.7265  0.5835 -0.8592
 4084TIP3   OH233666   5.931   6.092  13.050  0.0821  0.0537  0.1864
 4084TIP3    H133667   6.000   6.026  13.045 -1.3268 -1.4690 -0.5221
 4084TIP3    H233668   5.940   6.143  12.970 -0.2089 -0.8066 -0.4144
 4085TIP3   OH233669   6.481   4.966   1.019  0.0423 -0.4726  0.2616
 4085TIP3    H133670   6.405   5.002   1.065  1.6417  2.3122  0.9230
 4085TIP3    H233671   6.545   4.947   1.087  1.4214  1.1068 -0.5235
 4086TIP3   OH233672   6.480   2.399   6.506 -0.1709  0.0011 -0.7827
 4086TIP3    H133673   6.449   2.316   6.543  0.5417 -0.2680 -0.7786
 4086TIP3    H233674   6.528   2.374   6.427  0.9625  0.3115 -0.2127
 4087TIP3   OH233675   6.690   4.180   1.918  0.2277 -0.6577 -0.2209
 4087TIP3    H133676   6.759   4.120   1.947  0.5586  0.0288  0.4803
 4087TIP3    H233677   6.733   4.236   1.854  0.5178  0.1643  0.6615
 4088TIP3   OH233678   4.159   4.290  16.739 -0.0034  0.6801  0.2459
 4088TIP3    H133679   4.242   4.333  16.719  0.7008 -0.7422  0.0235
 4088TIP3    H233680   4.121   4.268  16.654  0.8564 -1.3616  0.3494
 4089TIP3   OH233681   1.571   0.199  11.578  0.1638  0.1342 -0.2879
 4089TIP3    H133682   1.592   0.225  11.667  1.5165  1.3941 -0.9408
 4089TIP3    H233683   1.523   0.274  11.542 -0.9781 -0.6380 -0.4346
 4090TIP3   OH233684   4.597   0.405   0.660  0.7488  0.6564  0.2810
 4090TIP3    H133685   4.615   0.442   0.746 -1.5723  1.1854  0.6042
 4090TIP3    H233686   4.600   0.310   0.673  1.5619  0.7299  0.6628
 4091TIP3   OH233687   4.406   3.318  11.454  0.2575 -0.3864 -0.4202
 4091TIP3    H133688   4.339   3.340  11.390  0.3852 -0.2316 -0.4999
 4091TIP3    H233689   4.414   3.222  11.447  2.8627 -0.1129 -3.2862
 4092TIP3   OH233690   0.606   3.065   2.246 -0.0088  0.2239 -0.3784
 4092TIP3    H133691   0.576   3.132   2.185 -1.2662  1.4212  1.4501
 4092TIP3    H233692   0.686   3.101   2.283 -1.0237  1.1029  1.0786
 4093TIP3   OH233693   2.118   6.211  16.102 -0.6461 -0.0198  0.0815
 4093TIP3    H133694   2.056   6.275  16.135 -0.3801  0.1853  0.1888
 4093TIP3    H233695   2.174   6.192  16.178 -0.0542  0.4243 -0.2383
 4094TIP3   OH233696   2.553   2.502  13.104  0.3542  0.2709  0.5562
 4094TIP3    H133697   2.535   2.585  13.147 -2.5144 -0.6968  1.4881
 4094TIP3    H233698   2.564   2.440  13.176  4.4724  0.0012 -0.0315
 4095TIP3   OH233699   1.418   4.653  12.677  0.5441 -0.0877 -0.2080
 4095TIP3    H133700   1.495   4.597  12.691  0.7762 -0.0806 -1.3603
 4095TIP3    H233701   1.383   4.625  12.593 -0.2509  0.4524 -0.0652
 4096TIP3   OH233702   3.310   0.431   4.237  0.2478 -0.3503 -0.6393
 4096TIP3    H133703   3.246   0.371   4.274  0.0515  0.2584  0.0252
 4096TIP3    H233704   3.382   0.431   4.299  0.0767  0.3957 -0.4341
 4097TIP3   OH233705   5.202   6.194   1.591  0.0104  0.0372  0.6251
 4097TIP3    H133706   5.117   6.171   1.628 -0.5519 -1.0350 -1.1746
 4097TIP3    H233707   5.182   6.261   1.525  0.9972  2.0182  2.2410
 4098TIP3   OH233708   3.924   5.662   1.615  0.6053  0.0094 -0.2893
 4098TIP3    H133709   3.843   5.653   1.563 -1.5867 -0.3399  2.8836
 4098TIP3    H233710   3.954   5.751   1.596 -3.1155  1.9143  1.5489
 4099TIP3   OH233711   5.077   6.100  13.266 -0.0877  0.4604 -0.5381
 4099TIP3    H133712   5.084   6.104  13.171  0.1129 -2.8350 -0.7765
 4099TIP3    H233713   4.989   6.133  13.284 -0.8780 -0.5955 -2.1224
 4100TIP3   OH233714   2.257   3.359   5.620 -0.2368  0.1759 -0.0315
 4100TIP3    H133715   2.265   3.269   5.587 -0.2468  0.4390 -0.7881
 4100TIP3    H233716   2.297   3.357   5.707  0.6573 -0.3464 -0.4411
 4101TIP3   OH233717   3.418   1.670   1.351  0.1440 -0.0094 -0.0513
 4101TIP3    H133718   3.325   1.650   1.362 -0.0499  1.1923  0.6757
 4101TIP3    H233719   3.456   1.656   1.437  1.0363 -2.2969 -0.7580
 4102TIP3   OH233720   0.386   6.384   1.643  0.1894 -0.2284  0.2044
 4102TIP3    H133721   0.391   6.293   1.670  0.1428  0.5612  3.2236
 4102TIP3    H233722   0.474   6.406   1.613  0.2061 -1.2193 -0.5036
 4103TIP3   OH233723   3.322   1.865  16.855  0.2903  0.2015  0.1491
 4103TIP3    H133724   3.285   1.866  16.943 -2.3606  3.1897 -0.7803
 4103TIP3    H233725   3.397   1.924  16.860  1.3220 -1.1136  0.7396
 4104TIP3   OH233726   1.746   2.506   0.360  0.6392  0.1283  0.3427
 4104TIP3    H133727   1.656   2.480   0.379 -0.0282  3.1981  2.0044
 4104TIP3    H233728   1.799   2.462   0.427  0.1168 -0.0594  0.6324
 4105TIP3   OH233729   2.414   3.935  17.050  0.5862  0.2311  0.8036
 4105TIP3    H133730   2.432   3.843  17.070 -0.1441  0.0267  0.5667
 4105TIP3    H233731   2.318   3.941  17.053  0.5194  0.5465 -1.1022
 4106TIP3   OH233732   3.583   4.788  12.170  0.1070 -0.1772  0.3328
 4106TIP3    H133733   3.634   4.710  12.150 -1.0225 -0.4765 -1.5121
 4106TIP3    H233734   3.635   4.860  12.133 -1.4184 -0.6204 -2.9415
 4107TIP3   OH233735   0.697   5.060  15.513 -0.0249  0.1112 -0.2349
 4107TIP3    H133736   0.703   5.129  15.447  1.0303  0.8080  0.5675
 4107TIP3    H233737   0.610   5.071  15.551 -0.4036  0.0905 -1.0704
 4108TIP3   OH233738   1.549   5.225  11.712  0.0983  0.1022 -0.1756
 4108TIP3    H133739   1.560   5.253  11.803 -1.2927 -1.0214  0.3777
 4108TIP3    H233740   1.635   5.238  11.673  1.4682 -1.6778  1.9669
 4109TIP3   OH233741   0.676   4.162  13.701  0.0178 -0.3300  0.1808
 4109TIP3    H133742   0.690   4.194  13.790  0.6361 -2.2954  0.8504
 4109TIP3    H233743   0.611   4.092  13.712 -1.1198  0.4635 -1.1699
 4110TIP3   OH233744   3.908   6.187  15.592 -0.2827  0.1397 -0.4461
 4110TIP3    H133745   3.838   6.177  15.528 -0.2309 -0.9090 -0.3486
 4110TIP3    H233746   3.962   6.109  15.581  0.8178  0.8902 -0.4451
 4111TIP3   OH233747   1.991   1.375  16.996  0.3997  0.1545  0.1213
 4111TIP3    H133748   1.901   1.404  16.982  1.0318  1.6652 -1.0865
 4111TIP3    H233749   2.014   1.329  16.915  0.0147 -2.2612  1.3031
 4112TIP3   OH233750   5.503   4.515  17.182 -0.8320 -0.4269 -0.8139
 4112TIP3    H133751   5.520   4.588  17.243  0.9705 -0.6491 -1.0081
 4112TIP3    H233752   5.449   4.455  17.233 -3.4375  1.5387 -1.0381
 4113TIP3   OH233753   6.188   2.981  14.924 -0.6536 -0.6435 -0.1248
 4113TIP3    H133754   6.149   3.041  14.987 -0.8475 -0.2473 -0.6118
 4113TIP3    H233755   6.172   3.022  14.839  1.1383 -0.2862 -0.3299
 4114TIP3   OH233756   1.643   0.644   0.431  0.3483  0.3299 -0.6190
 4114TIP3    H133757   1.622   0.715   0.491  0.5984 -0.4229  0.3791
 4114TIP3    H233758   1.737   0.631   0.441 -0.0105 -1.5768  0.8574
 4115TIP3   OH233759   2.823   5.949  15.205 -0.8785 -0.2849  0.3710
 4115TIP3    H133760   2.797   5.903  15.125  0.1461 -0.7820  0.3055
 4115TIP3    H233761   2.776   5.904  15.275 -0.2679 -1.1264  0.2510
 4116TIP3   OH233762   1.113   2.309   0.218 -0.0746  0.7187  0.1023
 4116TIP3    H133763   1.209   2.310   0.216 -0.0272 -1.0516 -0.6410
 4116TIP3    H233764   1.087   2.365   0.144  0.4839 -0.8227 -1.3373
 4117TIP3   OH233765   6.174   2.246  15.658  0.1586  0.3298  0.5698
 4117TIP3    H133766   6.262   2.212  15.640 -0.5088 -2.0260  1.4579
 4117TIP3    H233767   6.165   2.320  15.597  1.5285 -1.4022 -1.9474
 4118TIP3   OH233768   6.482   3.630   0.506  0.9332 -0.3908 -0.5783
 4118TIP3    H133769   6.520   3.718   0.506  2.2680 -0.8441  2.4302
 4118TIP3    H233770   6.419   3.631   0.578  2.0677 -2.2543  0.5138
 4119TIP3   OH233771   5.456   5.876  16.879 -0.1173  0.2712  0.1737
 4119TIP3    H133772   5.509   5.937  16.931  0.1048  0.6041 -0.4395
 4119TIP3    H233773   5.443   5.801  16.937  2.0484 -0.3709 -0.0492
 4120TIP3   OH233774   1.088   1.366   2.053  0.7063 -0.7744  0.2271
 4120TIP3    H133775   1.080   1.275   2.082 -0.5198 -1.1884 -1.2754
 4120TIP3    H233776   1.179   1.374   2.023  0.1828 -2.3505 -2.0918
 4121TIP3   OH233777   2.696   0.800  12.267  0.7308  0.1619  0.7303
 4121TIP3    H133778   2.693   0.843  12.182  0.3125 -0.9407  0.1593
 4121TIP3    H233779   2.608   0.763  12.278  1.1683 -0.8397  1.0094
 4122TIP3   OH233780   2.252   1.014   4.206 -0.4926  0.1337  0.0791
 4122TIP3    H133781   2.286   1.014   4.296 -1.1459 -2.0653  0.3814
 4122TIP3    H233782   2.157   1.003   4.217 -0.4463 -1.4381 -0.8704
 4123TIP3   OH233783   6.213   2.945  16.078 -0.1547  0.1109 -0.0080
 4123TIP3    H133784   6.211   2.897  16.161 -1.6803  0.8587  0.4237
 4123TIP3    H233785   6.269   3.021  16.096 -0.2095  0.0952  0.2343
 4124TIP3   OH233786   2.893   1.217   3.887  0.0287  0.2194  0.0325
 4124TIP3    H133787   2.872   1.145   3.828 -0.0042  0.1034  0.1839
 4124TIP3    H233788   2.903   1.293   3.830  4.4409 -0.6685 -0.7676
 4125TIP3   OH233789   6.217   4.452   1.880  0.3061  0.4062 -0.0316
 4125TIP3    H133790   6.184   4.371   1.843  1.5961  0.2327 -0.8604
 4125TIP3    H233791   6.195   4.519   1.816  0.9570  0.3950 -0.2705
 4126TIP3   OH233792   5.544   1.141  17.147  0.4039  0.1973  0.0424
 4126TIP3    H133793   5.581   1.214  17.196 -0.8292  1.3559 -0.6793
 4126TIP3    H233794   5.526   1.177  17.060 -1.3053 -0.6148  0.0162
 4127TIP3   OH233795   1.015   3.954   3.646  0.1079 -0.4876 -1.1533
 4127TIP3    H133796   1.013   3.865   3.613 -0.8704 -0.0947 -2.2248
 4127TIP3    H233797   0.924   3.984   3.642  0.2480  0.2319  0.1561
 4128TIP3   OH233798   2.781   2.792   1.243 -0.2106 -0.0306  0.3156
 4128TIP3    H133799   2.740   2.842   1.172  0.3115 -1.4465 -1.0491
 4128TIP3    H233800   2.869   2.828   1.250 -0.1108 -0.1947 -0.0806
 4129TIP3   OH233801   4.905   5.085   3.170 -0.3047  0.2725  0.3491
 4129TIP3    H133802   4.966   5.046   3.233 -0.5814 -1.4209 -0.3766
 4129TIP3    H233803   4.828   5.028   3.172 -0.1146 -0.1815 -1.8735
 4130TIP3   OH233804   3.518   6.730  12.236 -0.7070 -1.1601 -0.1227
 4130TIP3    H133805   3.452   6.705  12.171 -1.0470  1.5685 -0.9505
 4130TIP3    H233806   3.477   6.710  12.320 -0.7150 -3.6768 -0.6504
 4131TIP3   OH233807   3.712   4.787  14.418  0.1406 -0.2041  0.0696
 4131TIP3    H133808   3.776   4.765  14.486  1.5193 -0.6069 -1.3036
 4131TIP3    H233809   3.641   4.724  14.431  0.7259 -0.7524  0.6721
 4132TIP3   OH233810   0.738   5.350   4.716 -0.6646 -0.5882  0.1345
 4132TIP3    H133811   0.770   5.420   4.772 -0.4974  1.0489 -1.8831
 4132TIP3    H233812   0.799   5.277   4.730  1.4497  0.9794 -0.4267
 4133TIP3   OH233813   6.744   0.010  14.090 -0.3558 -0.2236 -0.1289
 4133TIP3    H133814   6.767   0.095  14.127  0.9122 -0.9390  0.7842
 4133TIP3    H233815   6.670   0.028  14.033 -1.5512  1.1413  1.7576
 4134TIP3   OH233816   0.746   0.520   5.219 -0.0808 -0.1189 -0.1998
 4134TIP3    H133817   0.716   0.575   5.147 -1.8705  0.9314  1.2440
 4134TIP3    H233818   0.839   0.538   5.226  0.0082  0.2365 -1.8175
 4135TIP3   OH233819   3.388   6.351  11.741  0.6672 -0.2649 -0.1738
 4135TIP3    H133820   3.387   6.317  11.651  0.4375  0.2357 -0.3673
 4135TIP3    H233821   3.481   6.367  11.759  0.8985 -1.9924  0.3212
 4136TIP3   OH233822   0.266   0.716  16.399 -0.3756 -0.1431  0.2148
 4136TIP3    H133823   0.284   0.777  16.471  2.8273  1.4556 -1.7014
 4136TIP3    H233824   0.259   0.772  16.322  0.0201 -2.0484 -1.2786
 4137TIP3   OH233825   6.092   1.460   2.300 -0.6561 -0.1930  0.2397
 4137TIP3    H133826   6.060   1.405   2.228  0.8245 -2.6452  1.3159
 4137TIP3    H233827   6.184   1.433   2.312  0.0693  2.3606  1.0544
 4138TIP3   OH233828   3.929   0.489  16.219  0.2228 -0.0191 -0.1775
 4138TIP3    H133829   3.876   0.565  16.195  0.5325  0.6510  1.1902
 4138TIP3    H233830   4.019   0.515  16.201  0.1892 -0.8652 -1.7333
 4139TIP3   OH233831   0.358   0.272  13.745 -0.2312  0.0616  0.0192
 4139TIP3    H133832   0.385   0.319  13.666 -0.6471 -0.4593 -0.4410
 4139TIP3    H233833   0.326   0.340  13.804  0.8710  0.5479  0.0777
 4140TIP3   OH233834   3.665   1.961  10.657  0.8640 -0.0934  0.2556
 4140TIP3    H133835   3.679   2.046  10.617  3.1490  0.4612  2.0674
 4140TIP3    H233836   3.685   1.973  10.749 -0.2959 -2.2532  0.8796
 4141TIP3   OH233837   2.376   0.310   2.053  0.3394 -0.5003  0.3680
 4141TIP3    H133838   2.365   0.322   1.959 -0.9465 -2.3291  0.2174
 4141TIP3    H233839   2.461   0.268   2.063 -0.6526 -2.8423 -0.3150
 4142TIP3   OH233840   4.532   6.468   1.598  0.4330 -0.0344 -0.2106
 4142TIP3    H133841   4.529   6.391   1.540  0.2880  0.0515 -0.3176
 4142TIP3    H233842   4.500   6.540   1.543 -0.0199 -0.0138  0.0749
 4143TIP3   OH233843   6.662   3.670  10.915  0.1510  0.0382 -0.3569
 4143TIP3    H133844   6.626   3.753  10.883 -0.8565 -1.5531 -3.8520
 4143TIP3    H233845   6.599   3.604  10.886  2.1292 -2.1694  0.0811
 4144TIP3   OH233846   5.649   0.182   3.995 -0.6677 -0.1878  0.4863
 4144TIP3    H133847   5.625   0.178   3.902  0.6208 -1.6415  0.1828
 4144TIP3    H233848   5.716   0.251   3.999  2.7625 -3.1575 -0.6087
 4145TIP3   OH233849   6.294   4.493  10.588 -1.0883 -0.2520 -0.0378
 4145TIP3    H133850   6.364   4.541  10.545 -0.3126  1.6524  3.0867
 4145TIP3    H233851   6.215   4.517  10.538 -0.0801  0.6449 -1.2676
 4146TIP3   OH233852   4.044   5.564  14.300  0.0777 -0.3655  0.1020
 4146TIP3    H133853   4.115   5.511  14.337  0.1766 -0.1312  0.2477
 4146TIP3    H233854   3.964   5.521  14.330  0.1526 -0.9644 -0.5372
 4147TIP3   OH233855   5.531   2.422  12.264 -0.4837 -0.2478 -0.1676
 4147TIP3    H133856   5.456   2.461  12.310  1.1640 -1.2060  3.7338
 4147TIP3    H233857   5.499   2.337  12.234 -0.8382 -1.0566  2.2886
 4148TIP3   OH233858   6.197   5.832  12.179  0.5161 -0.3608 -0.0962
 4148TIP3    H133859   6.140   5.822  12.255 -0.0051 -0.0950 -0.4461
 4148TIP3    H233860   6.212   5.926  12.172 -0.7832 -0.2114 -1.2797
 4149TIP3   OH233861   6.579   3.802   5.075 -0.1573 -0.1361 -0.1627
 4149TIP3    H133862   6.565   3.716   5.114  0.3720 -0.6068 -0.9700
 4149TIP3    H233863   6.496   3.848   5.086  0.2655  0.1748  2.4698
 4150TIP3   OH233864   4.369   3.410  16.485  0.6093  0.2724  0.0427
 4150TIP3    H133865   4.385   3.483  16.544  0.3480 -0.2845  0.8246
 4150TIP3    H233866   4.453   3.363  16.483  0.3942 -0.1614  0.6349
 4151TIP3   OH233867   0.422   4.255  16.725  0.6057 -0.4285  0.5643
 4151TIP3    H133868   0.389   4.345  16.729  0.9957 -0.3280  2.8309
 4151TIP3    H233869   0.343   4.200  16.721  0.3729 -0.0187 -1.3895
 4152TIP3   OH233870   4.354   5.653   0.966  0.2411  0.0372  0.1571
 4152TIP3    H133871   4.408   5.625   0.892 -0.1134  0.4951 -0.2789
 4152TIP3    H233872   4.281   5.701   0.926  0.3965  0.8576  0.8443
 4153TIP3   OH233873   4.817   3.069   2.136 -0.1042 -0.2329  0.3297
 4153TIP3    H133874   4.825   3.157   2.171 -1.7284 -0.8277  2.3589
 4153TIP3    H233875   4.728   3.042   2.158 -0.0714 -1.9308 -1.3686
 4154TIP3   OH233876   6.073   0.076  11.574 -0.2128  0.0568  0.3331
 4154TIP3    H133877   6.112   0.164  11.569  1.3557 -0.6668 -1.5979
 4154TIP3    H233878   6.118   0.034  11.647  1.7837 -0.3209 -1.0448
 4155TIP3   OH233879   5.135   0.027   1.659 -0.4672  0.2341 -0.0611
 4155TIP3    H133880   5.078  -0.038   1.619 -1.1958  0.3652  0.7247
 4155TIP3    H233881   5.162   0.083   1.586 -0.1049 -0.7325 -0.6877
 4156TIP3   OH233882   2.825   6.501   2.670  0.4771  0.5985  0.0859
 4156TIP3    H133883   2.869   6.434   2.618  0.5029 -0.4004  1.3700
 4156TIP3    H233884   2.881   6.578   2.661  1.5389 -0.1376  0.2474
 4157TIP3   OH233885   0.575   2.530   4.862 -0.1843  0.5795  0.1349
 4157TIP3    H133886   0.669   2.511   4.868 -0.1755  0.7902  0.7341
 4157TIP3    H233887   0.544   2.522   4.952 -1.3735 -2.6725 -0.4173
 4158TIP3   OH233888   2.310   5.739  15.740 -0.6795  0.1913 -0.4746
 4158TIP3    H133889   2.317   5.684  15.662 -0.0286  0.9630 -0.9705
 4158TIP3    H233890   2.250   5.809  15.714 -0.5770  0.3693 -0.2288
 4159TIP3   OH233891   3.181   1.703  15.741 -0.2928  0.7399 -0.2147
 4159TIP3    H133892   3.102   1.743  15.778  0.5810  2.0233  0.3394
 4159TIP3    H233893   3.246   1.709  15.812  0.7954  1.2852 -1.2233
 4160TIP3   OH233894   6.559   1.583  12.354  0.3228 -0.0684  0.2252
 4160TIP3    H133895   6.488   1.532  12.314  0.7491 -0.5034  0.0102
 4160TIP3    H233896   6.590   1.640  12.283 -2.1658  2.7617  1.2467
 4161TIP3   OH233897   4.866   3.453  15.328  0.0776 -0.0503  0.2808
 4161TIP3    H133898   4.938   3.418  15.277  0.9470 -1.8909  2.5705
 4161TIP3    H233899   4.789   3.404  15.299  0.6075 -1.2646  0.8909
 4162TIP3   OH233900   0.201   2.513  14.490  0.5931 -0.4681  0.2287
 4162TIP3    H133901   0.198   2.451  14.562  0.2997 -1.2601 -0.4576
 4162TIP3    H233902   0.112   2.549  14.486  0.6249 -0.3812  0.2969
 4163TIP3   OH233903   3.268   0.141  15.908  0.0877 -0.0273  0.3841
 4163TIP3    H133904   3.298   0.228  15.880  0.1690 -0.1012  0.2402
 4163TIP3    H233905   3.206   0.159  15.978  0.4359  0.1287  0.6553
 4164TIP3   OH233906   2.030   0.988   3.230  0.0153 -0.0703 -0.2358
 4164TIP3    H133907   1.971   0.970   3.303 -0.3938  0.4862 -0.4246
 4164TIP3    H233908   2.046   1.082   3.234  0.1836 -0.0745 -0.7172
 4165TIP3   OH233909   1.970   1.168  11.257 -0.0870  0.1941  0.2777
 4165TIP3    H133910   2.046   1.127  11.297 -0.6887  1.1085  2.5603
 4165TIP3    H233911   1.995   1.183  11.166  1.8649 -0.8991  0.5843
 4166TIP3   OH233912   0.410   5.913   0.693  0.5536 -0.3053 -0.2513
 4166TIP3    H133913   0.479   5.860   0.653 -0.3013 -0.9828 -0.8612
 4166TIP3    H233914   0.343   5.920   0.626  0.2996  0.9060  0.1043
 4167TIP3   OH233915   3.848   4.974   3.163 -0.7951 -0.2321  0.4878
 4167TIP3    H133916   3.835   5.047   3.225 -1.8806  1.0521 -1.1566
 4167TIP3    H233917   3.941   4.978   3.140 -0.6820  0.1538  0.9943
 4168TIP3   OH233918   1.751   0.524  14.259 -0.2294  0.1111 -0.9881
 4168TIP3    H133919   1.841   0.548  14.283  0.5672 -2.0010 -1.6449
 4168TIP3    H233920   1.713   0.490  14.340  0.5667 -1.6961 -1.3301
 4169TIP3   OH233921   2.588   5.008   3.043 -0.2800  0.0884  0.6338
 4169TIP3    H133922   2.657   5.060   3.083  0.8340  0.5999 -1.8079
 4169TIP3    H233923   2.629   4.965   2.969 -2.6655  0.9492 -1.3542
 4170TIP3   OH233924   3.072   5.565   5.646 -0.6595 -0.6400 -1.1748
 4170TIP3    H133925   3.164   5.541   5.639 -0.0626  0.4705  1.6388
 4170TIP3    H233926   3.028   5.511   5.581  1.6108 -3.2564 -0.7073
 4171TIP3   OH233927   1.579   5.768   4.995 -0.1220 -0.2348 -0.2696
 4171TIP3    H133928   1.569   5.779   5.089  2.7278 -2.2470  0.4034
 4171TIP3    H233929   1.532   5.688   4.974 -1.4901  0.6588 -0.8114
 4172TIP3   OH233930   3.298   1.237   0.116 -0.4231 -0.2224  1.0425
 4172TIP3    H133931   3.241   1.184   0.172 -3.1787  0.7970 -0.6101
 4172TIP3    H233932   3.348   1.173   0.066  1.0543 -1.1524  3.5146
 4173TIP3   OH233933   2.088   4.913   0.170  0.0296  0.0949 -0.5447
 4173TIP3    H133934   2.175   4.874   0.171  0.1459  0.3429 -0.8151
 4173TIP3    H233935   2.097   4.992   0.116 -0.5761 -0.3652 -1.3356
 4174TIP3   OH233936   2.840   5.593   3.347 -0.3825  0.4540 -0.3286
 4174TIP3    H133937   2.900   5.523   3.324  0.7024  1.5104 -0.8285
 4174TIP3    H233938   2.872   5.669   3.299 -2.2327  1.0187 -0.7487
 4175TIP3   OH233939   2.281   6.372  17.057 -0.0126 -0.6770 -0.5040
 4175TIP3    H133940   2.342   6.299  17.067  1.2695  0.2142 -1.6000
 4175TIP3    H233941   2.218   6.341  16.992  0.0826 -1.0648 -0.4161
 4176TIP3   OH233942   4.985   1.173   1.858 -0.2037 -0.0712 -0.4301
 4176TIP3    H133943   4.964   1.088   1.897  2.2951 -0.6964 -0.2829
 4176TIP3    H233944   4.977   1.159   1.764 -0.8560 -0.1486 -0.3668
 4177TIP3   OH233945   5.985   3.130  11.272  0.4088  0.0690  0.2880
 4177TIP3    H133946   5.953   3.171  11.192  0.5481  0.3781  0.3872
 4177TIP3    H233947   6.020   3.203  11.324  0.5586 -0.1612  0.5167
 4178TIP3   OH233948   1.552   2.330  15.883 -0.4148 -0.4668  0.0907
 4178TIP3    H133949   1.508   2.354  15.801  0.9032  1.6254 -0.0707
 4178TIP3    H233950   1.605   2.254  15.860 -0.4380 -0.2045 -0.8753
 4179TIP3   OH233951   0.506   1.802  14.165  0.3368 -0.1765 -0.0622
 4179TIP3    H133952   0.419   1.841  14.166  0.6071  0.4719 -0.9238
 4179TIP3    H233953   0.492   1.711  14.190 -0.3219  0.4039  1.9078
 4180TIP3   OH233954   0.219   2.828   0.688 -0.1509 -0.6255  0.3018
 4180TIP3    H133955   0.147   2.892   0.694  0.5114  0.1033  0.6439
 4180TIP3    H233956   0.250   2.818   0.778  3.3860  2.8662 -0.2474
 4181TIP3   OH233957   6.146   4.034  14.080  0.2693  0.0287  0.0672
 4181TIP3    H133958   6.098   4.047  13.998 -1.9550 -2.6418  0.8051
 4181TIP3    H233959   6.132   4.116  14.128 -0.8307  0.5345 -1.0452
 4182TIP3   OH233960   1.036   0.265  15.363  0.3392  0.3880 -0.0951
 4182TIP3    H133961   1.102   0.330  15.339  2.1829 -0.8240  1.4489
 4182TIP3    H233962   0.956   0.315  15.374  1.3872  2.1920 -0.3013
 4183TIP3   OH233963   1.678   2.193   4.931  0.0691  0.0041  0.0940
 4183TIP3    H133964   1.642   2.149   4.855 -0.1966  0.4445 -0.0340
 4183TIP3    H233965   1.618   2.265   4.950  0.9054  0.8039 -0.1739
 4184TIP3   OH233966   5.321   6.466  16.723 -0.0427  0.6458  0.2377
 4184TIP3    H133967   5.313   6.561  16.731  1.1241  0.7205  0.7693
 4184TIP3    H233968   5.237   6.432  16.754 -0.2193  1.4826  0.7173
 4185TIP3   OH233969   4.247   3.155   4.112  0.1958 -0.4634  0.1693
 4185TIP3    H133970   4.187   3.186   4.045  0.9629  0.7442  0.0148
 4185TIP3    H233971   4.308   3.098   4.066 -0.5522 -1.3642  0.2544
 4186TIP3   OH233972   4.468   5.996   4.431  0.2161  0.2469 -0.4588
 4186TIP3    H133973   4.538   6.030   4.487  1.4413 -2.1224 -0.4389
 4186TIP3    H233974   4.430   6.075   4.391 -0.3033  2.0267  3.0837
 4187TIP3   OH233975   2.347   1.204   1.748  0.0863 -0.1946 -0.1630
 4187TIP3    H133976   2.438   1.199   1.718 -0.8311 -1.1530 -3.0820
 4187TIP3    H233977   2.297   1.153   1.684 -2.4879 -0.0378  1.5720
 4188TIP3   OH233978   3.262   0.449  16.695  0.1047 -0.4403 -0.4104
 4188TIP3    H133979   3.267   0.374  16.637 -0.5985 -0.6370 -0.2206
 4188TIP3    H233980   3.326   0.431  16.763 -0.1741 -0.9510 -0.2757
 4189TIP3   OH233981   3.598   6.586   6.251 -0.2877 -0.0039 -0.1086
 4189TIP3    H133982   3.529   6.619   6.309 -0.7653  1.2062 -1.3046
 4189TIP3    H233983   3.622   6.661   6.197 -0.3366 -1.2301 -1.9240
 4190TIP3   OH233984   3.330   5.083   6.231  0.3107  0.1415 -0.6332
 4190TIP3    H133985   3.301   5.142   6.301  0.1886 -1.0263  0.3360
 4190TIP3    H233986   3.295   5.122   6.151  0.0093  1.2324  0.0005
 4191TIP3   OH233987   1.330   5.333   4.533 -0.5986 -0.1877 -0.2208
 4191TIP3    H133988   1.331   5.272   4.459 -1.3093 -0.4681 -0.0182
 4191TIP3    H233989   1.291   5.413   4.498  1.0898  0.4512 -0.6944
 4192TIP3   OH233990   5.454   3.186   3.640 -0.3417  0.3375  0.7634
 4192TIP3    H133991   5.413   3.174   3.725 -2.1209  1.4417  0.1296
 4192TIP3    H233992   5.444   3.102   3.596  0.7797 -0.3067  1.6798
 4193TIP3   OH233993   0.863   0.283   5.402  1.0386 -0.1011 -0.1779
 4193TIP3    H133994   0.776   0.303   5.370  2.0723  1.2706 -2.3916
 4193TIP3    H233995   0.888   0.360   5.454  1.0785 -0.3464  0.1743
 4194TIP3   OH233996   0.772   2.300  10.992  0.6618  0.1118  0.9070
 4194TIP3    H133997   0.715   2.299  10.916  0.3992  2.7137  0.9806
 4194TIP3    H233998   0.802   2.209  11.001 -0.8469 -0.6520 -1.0777
 4195TIP3   OH233999   4.074   3.746  15.239  0.2108 -0.4619  0.1200
 4195TIP3    H134000   4.101   3.693  15.314 -0.9535 -0.2394  0.7136
 4195TIP3    H234001   4.154   3.754  15.186  0.4543 -2.7403  0.0322
 4196TIP3   OH234002   3.662   4.287  15.846 -0.7046 -0.1968  0.7259
 4196TIP3    H134003   3.682   4.372  15.885 -1.2098 -0.3413  1.3029
 4196TIP3    H234004   3.741   4.266  15.795 -0.7323  0.7894  0.2573
 4197TIP3   OH234005   5.142   4.425   5.558  0.0852  0.8741  0.4034
 4197TIP3    H134006   5.074   4.359   5.547  0.5119  0.4549  0.2625
 4197TIP3    H234007   5.156   4.430   5.653  1.3185 -0.5523  0.3332
 4198TIP3   OH234008   0.515   2.745  16.773  0.0723  0.2829 -0.0699
 4198TIP3    H134009   0.578   2.807  16.809  0.1543  0.3971 -0.4056
 4198TIP3    H234010   0.437   2.799  16.754  0.6042  0.5602 -1.6175
 4199TIP3   OH234011   3.101   0.806   3.061  0.0389  0.1877  0.1298
 4199TIP3    H134012   3.177   0.816   3.118  0.2754 -1.5889  0.1902
 4199TIP3    H234013   3.137   0.773   2.979 -0.7063 -1.6351  0.4826
 4200TIP3   OH234014   0.934   4.678   5.078 -0.0442 -0.2309 -0.1488
 4200TIP3    H134015   0.888   4.745   5.027  0.0567  0.0806  0.1618
 4200TIP3    H234016   0.867   4.614   5.099 -0.5999  0.7185  1.1536
 4201TIP3   OH234017   6.545   5.137   1.824  0.5379 -0.3706 -0.3152
 4201TIP3    H134018   6.622   5.095   1.860  1.9781  0.1302 -2.5954
 4201TIP3    H234019   6.579   5.198   1.759 -1.7659  0.0503 -1.2244
 4202TIP3   OH234020   0.169   4.938  12.164 -0.4046  0.5092 -0.5431
 4202TIP3    H134021   0.082   4.973  12.147  0.1190  0.6360 -3.5388
 4202TIP3    H234022   0.212   5.005  12.217 -2.0547  0.4704  0.9129
 4203TIP3   OH234023   0.072   1.844   2.005  0.1267 -0.0566  0.5088
 4203TIP3    H134024   0.135   1.805   1.945 -1.3072 -0.3027 -0.8960
 4203TIP3    H234025   0.110   1.828   2.092  1.3925 -1.2752 -0.2080
 4204TIP3   OH234026   3.840   4.054   3.888 -0.1063  0.0047 -0.2928
 4204TIP3    H134027   3.783   3.985   3.921  0.5206 -0.4722 -0.1780
 4204TIP3    H234028   3.858   4.029   3.797  1.1243 -0.6842  0.1059
 4205TIP3   OH234029   3.150   5.521  11.981  0.7298  0.2174  0.3013
 4205TIP3    H134030   3.123   5.438  11.940  1.3208  0.2093 -0.0829
 4205TIP3    H234031   3.083   5.538  12.046  0.6145 -0.5884  0.4081
 4206TIP3   OH234032   0.473   6.614   6.189  0.3304 -0.1818  0.0120
 4206TIP3    H134033   0.463   6.664   6.270  3.0341 -0.2346  0.4578
 4206TIP3    H234034   0.440   6.527   6.210  0.0083  0.1062  0.7172
 4207TIP3   OH234035   1.635   4.254  16.271 -0.3063  0.3371  0.1692
 4207TIP3    H134036   1.593   4.179  16.229 -1.7106  1.0035  0.3567
 4207TIP3    H234037   1.691   4.292  16.203 -0.8845  0.1196 -0.4326
 4208TIP3   OH234038   0.675   6.051  17.192  0.2169  0.4405  0.9009
 4208TIP3    H134039   0.705   6.107  17.264  2.6457 -1.3541  1.4005
 4208TIP3    H234040   0.600   6.005  17.228 -0.8704  2.1761  0.9896
 4209TIP3   OH234041   1.137   1.501   0.574 -0.1899 -0.6011 -0.3139
 4209TIP3    H134042   1.152   1.408   0.592 -0.6233 -0.7078 -0.4995
 4209TIP3    H234043   1.203   1.546   0.626  1.7338 -1.0973 -2.2091
 4210TIP3   OH234044   3.404   4.469  11.690  0.1509 -0.5186 -0.2626
 4210TIP3    H134045   3.433   4.555  11.660  0.6773 -0.4693  0.3604
 4210TIP3    H234046   3.347   4.437  11.620  0.1460  0.2292 -0.6120
 4211TIP3   OH234047   5.693   0.279  13.931  0.2940 -0.6368  0.1176
 4211TIP3    H134048   5.712   0.301  13.840 -0.4059 -0.4063  0.0272
 4211TIP3    H234049   5.716   0.186  13.939  1.9304 -0.2657  0.1411
 4212TIP3   OH234050   3.786   2.183   1.933  0.3735  0.0388  0.2503
 4212TIP3    H134051   3.762   2.269   1.901  2.3457  0.6648  0.3369
 4212TIP3    H234052   3.734   2.122   1.880 -0.9779  1.2326  0.1317
 4213TIP3   OH234053   1.432   5.834  17.231 -0.1775  0.1620 -0.2828
 4213TIP3    H134054   1.411   5.907  17.289  0.3387 -0.2395  0.4230
 4213TIP3    H234055   1.361   5.833  17.167 -1.9082 -0.6188  1.5154
 4214TIP3   OH234056   5.111   3.286   1.511 -0.0309  0.3300  0.5814
 4214TIP3    H134057   5.130   3.232   1.588  1.1865  1.1786  0.9114
 4214TIP3    H234058   5.051   3.353   1.543  0.1989  0.4736  0.7154
 4215TIP3   OH234059   6.030   6.001  11.282 -0.0407 -0.0137  0.0048
 4215TIP3    H134060   5.976   5.934  11.325  1.2041 -1.7037 -0.9522
 4215TIP3    H234061   5.967   6.068  11.255 -1.2185 -0.3395  1.8018
 4216TIP3   OH234062   6.589   6.132   1.981 -0.0525  0.5051  0.4987
 4216TIP3    H134063   6.612   6.197   2.047  0.0881 -0.4653  1.4371
 4216TIP3    H234064   6.527   6.177   1.923  0.8874  1.8039  0.4558
 4217TIP3   OH234065   0.106   1.719  16.806  0.1713  0.5449  0.0680
 4217TIP3    H134066   0.124   1.652  16.740 -0.5339 -0.2994  0.7233
 4217TIP3    H234067   0.188   1.725  16.856 -0.4232 -1.4861  1.4376
 4218TIP3   OH234068   6.599   1.360  15.150 -0.4780 -0.0078  0.1119
 4218TIP3    H134069   6.680   1.369  15.099  0.7615 -1.4257  1.7129
 4218TIP3    H234070   6.575   1.268  15.143 -0.6689 -0.0893  1.4509
 4219TIP3   OH234071   2.620   6.398   0.645 -0.1401  0.5274 -0.2340
 4219TIP3    H134072   2.604   6.352   0.562 -1.3040  0.7390 -0.1453
 4219TIP3    H234073   2.715   6.408   0.649 -0.0379  0.1423 -1.3449
 4220TIP3   OH234074   6.523   2.349   2.143  0.8195  0.0936 -0.5024
 4220TIP3    H134075   6.450   2.293   2.117 -1.1687  0.8897  2.7284
 4220TIP3    H234076   6.505   2.434   2.102 -0.4135  0.4234  0.6710
 4221TIP3   OH234077   4.656   5.210   1.210  0.2158 -0.0165  0.1188
 4221TIP3    H134078   4.561   5.200   1.214  0.3293 -0.7412  1.3946
 4221TIP3    H234079   4.687   5.133   1.163  0.0749  0.9775 -1.6658
 4222TIP3   OH234080   3.066   0.382  12.010  0.0949 -0.4396 -0.7166
 4222TIP3    H134081   3.031   0.329  11.939 -0.5283 -2.4292  0.9687
 4222TIP3    H234082   2.989   0.419  12.053  0.1632 -2.0222  0.9046
 4223TIP3   OH234083   2.889   3.149   2.455  0.2902 -0.5669  0.0276
 4223TIP3    H134084   2.850   3.076   2.408  0.6149 -1.6768  1.4032
 4223TIP3    H234085   2.969   3.169   2.407 -0.9045  0.4320 -1.6673
 4224TIP3   OH234086   5.074   5.095   3.898  0.0136  0.6203 -0.3007
 4224TIP3    H134087   5.038   5.154   3.832 -0.4858 -0.4697 -1.0367
 4224TIP3    H234088   5.158   5.134   3.922 -0.6063  1.9982 -0.2274
 4225TIP3   OH234089   3.867   5.972   4.573 -0.2488 -0.7570 -0.2219
 4225TIP3    H134090   3.934   5.913   4.605  0.3733 -0.1657 -0.4143
 4225TIP3    H234091   3.788   5.918   4.567  0.0086 -1.2596  0.7761
 4226TIP3   OH234092   1.049   4.880  13.608 -0.4231  0.0407  0.2582
 4226TIP3    H134093   1.110   4.849  13.541  0.4543  0.4586  0.8424
 4226TIP3    H234094   1.095   4.954  13.650 -1.5001  0.6335  0.4338
 4227TIP3   OH234095   1.084   3.878   3.288  0.5678 -0.6673 -0.4920
 4227TIP3    H134096   1.084   3.789   3.252 -2.2240 -2.3937  3.1349
 4227TIP3    H234097   0.993   3.893   3.313  1.3250  2.4985  0.7854
 4228TIP3   OH234098   1.623   6.076  12.749 -0.0155 -0.4032  0.4970
 4228TIP3    H134099   1.554   6.062  12.684  1.3037 -3.3373 -0.4057
 4228TIP3    H234100   1.704   6.079  12.698  0.8451 -0.3731  1.8091
 4229TIP3   OH234101   1.005   3.908  14.341  0.3497  0.1973 -0.4953
 4229TIP3    H134102   0.989   3.881  14.251  0.3013 -1.1127 -0.1104
 4229TIP3    H234103   0.956   3.845  14.395  0.2008  1.0782  0.4496
 4230TIP3   OH234104   4.206   5.196   3.333 -0.2060  0.3724  0.3214
 4230TIP3    H134105   4.254   5.276   3.353 -1.9160  1.7048 -0.7034
 4230TIP3    H234106   4.122   5.206   3.376 -0.6288 -0.6539 -0.2173
 4231TIP3   OH234107   4.737   5.032  13.428  0.5197 -0.4933 -0.5650
 4231TIP3    H134108   4.674   5.003  13.493  1.6208 -0.0783  0.7312
 4231TIP3    H234109   4.791   4.955  13.411  0.9111 -0.3213 -0.1445
 4232TIP3   OH234110   6.169   0.046   4.334  0.3171  0.5412 -0.0927
 4232TIP3    H134111   6.105  -0.020   4.362  0.4495  0.7542  0.7557
 4232TIP3    H234112   6.254   0.005   4.351  0.4124  1.3228  1.5009
 4233TIP3   OH234113   5.282   4.606  16.002  0.1274 -0.4253 -0.2240
 4233TIP3    H134114   5.330   4.523  16.003  0.6583 -0.1213  0.2467
 4233TIP3    H234115   5.246   4.612  15.914 -0.7823 -1.6443  0.0328
 4234TIP3   OH234116   2.762   1.613  11.726 -0.3357  0.2230 -0.1182
 4234TIP3    H134117   2.759   1.635  11.819 -0.9761  0.7187 -0.2537
 4234TIP3    H234118   2.809   1.686  11.686 -1.1409  0.6176 -0.3535
 4235TIP3   OH234119   5.139   3.484  12.878 -0.0381 -0.1333 -0.1817
 4235TIP3    H134120   5.199   3.550  12.844  1.0337 -0.7599  0.4210
 4235TIP3    H234121   5.190   3.437  12.944 -1.0167 -1.0652 -0.0533
 4236TIP3   OH234122   1.189   3.047  12.635  0.3093  0.5376 -0.4984
 4236TIP3    H134123   1.127   3.076  12.702  0.2760 -0.9942  0.1849
 4236TIP3    H234124   1.256   3.115  12.634 -0.4214  1.3026  0.0705
 4237TIP3   OH234125   6.262   0.242  12.350 -0.0329  0.9152  0.3180
 4237TIP3    H134126   6.302   0.325  12.378  1.2100  0.2726  0.5402
 4237TIP3    H234127   6.320   0.175  12.386 -1.8579 -0.1143  1.4592
 4238TIP3   OH234128   5.267   4.504   4.108  0.3727 -0.2758 -0.0122
 4238TIP3    H134129   5.228   4.435   4.055  0.2242  0.2767 -0.6425
 4238TIP3    H234130   5.361   4.485   4.107  0.4939  0.2684 -1.3128
 4239TIP3   OH234131   0.254   1.450  12.283 -0.1375  1.1539  0.6133
 4239TIP3    H134132   0.262   1.538  12.320 -1.0710  0.1330  3.5821
 4239TIP3    H234133   0.262   1.392  12.359 -0.1953 -1.3027 -1.1542
 4240TIP3   OH234134   1.082   6.030  11.044  0.0797  0.0364  0.3039
 4240TIP3    H134135   1.052   5.939  11.039 -0.8777  0.3636  0.0652
 4240TIP3    H234136   1.037   6.065  11.121  2.2381 -0.3343  1.8374
 4241TIP3   OH234137   3.826   6.554  12.907  0.0018  0.0593 -0.4845
 4241TIP3    H134138   3.739   6.542  12.869 -0.8184  2.8817  0.2469
 4241TIP3    H234139   3.874   6.606  12.842 -0.1043  1.5529  0.5831
 4242TIP3   OH234140   1.399   6.396   3.887  0.1792 -0.2007  0.1444
 4242TIP3    H134141   1.433   6.418   3.801 -1.4465  1.5644 -0.1315
 4242TIP3    H234142   1.309   6.367   3.870 -0.4320  0.9412  1.2708
 4243TIP3   OH234143   4.515   5.756  10.765 -0.1864 -0.7329 -0.1299
 4243TIP3    H134144   4.450   5.742  10.696 -0.5260  1.4159 -0.3070
 4243TIP3    H234145   4.496   5.688  10.829 -0.6883 -1.9836 -1.5358
 4244TIP3   OH234146   0.335   3.596   5.946  1.1392  0.3093 -0.3846
 4244TIP3    H134147   0.429   3.616   5.948  1.3059 -0.2307 -1.6061
 4244TIP3    H234148   0.298   3.665   5.891  0.8511  0.4119 -0.0586
 4245TIP3   OH234149   2.364   6.509   3.274 -0.1730  0.3222 -0.0484
 4245TIP3    H134150   2.279   6.511   3.318 -0.6452  0.0538 -0.9277
 4245TIP3    H234151   2.416   6.446   3.323 -0.9607 -0.5705 -0.3390
 4246TIP3   OH234152   1.206   4.232  13.057  0.0216  0.3286  0.2244
 4246TIP3    H134153   1.155   4.279  12.991  1.2251 -0.4555 -1.3475
 4246TIP3    H234154   1.159   4.150  13.070 -0.6692  0.8398  0.9838
 4247TIP3   OH234155   0.630   3.979   3.822 -0.0450 -0.0892 -0.0288
 4247TIP3    H134156   0.547   3.935   3.840 -0.6286 -0.0172 -2.2530
 4247TIP3    H234157   0.697   3.914   3.842 -0.8643 -1.8235 -2.4925
 4248TIP3   OH234158   1.161   3.407  14.506 -0.3962  0.0772 -0.7350
 4248TIP3    H134159   1.186   3.366  14.588  0.7185  0.9776 -0.6072
 4248TIP3    H234160   1.235   3.392  14.448 -1.2711 -0.7711 -1.6910
 4249TIP3   OH234161   2.613   6.146  13.757 -0.5390 -0.6916 -0.1323
 4249TIP3    H134162   2.695   6.194  13.765 -1.0775  0.1172  0.6753
 4249TIP3    H234163   2.545   6.213  13.759 -1.1943 -1.1754 -2.6120
 4250TIP3   OH234164   3.549   0.456   4.403 -0.8795  0.7807 -0.4506
 4250TIP3    H134165   3.645   0.459   4.398 -0.8778 -0.3770 -1.8299
 4250TIP3    H234166   3.530   0.454   4.497  0.4848  0.2101 -0.1557
 4251TIP3   OH234167   1.349   0.387  11.509 -0.2553  0.1705 -0.3036
 4251TIP3    H134168   1.342   0.459  11.572  0.8861  1.6260 -1.7300
 4251TIP3    H234169   1.259   0.355  11.499 -0.6242  0.6625  1.1819
 4252TIP3   OH234170   1.126   6.725   1.960 -0.7559  0.0454 -0.0906
 4252TIP3    H134171   1.155   6.813   1.938 -1.6527  0.1613 -0.8662
 4252TIP3    H234172   1.031   6.732   1.967 -0.7100 -0.5018  1.5370
 4253TIP3   OH234173   5.566   0.777   3.504 -0.0518  0.5721  0.5551
 4253TIP3    H134174   5.542   0.864   3.474  1.3983  0.8574  0.1938
 4253TIP3    H234175   5.550   0.779   3.599 -4.7222 -0.3566  0.0470
 4254TIP3   OH234176   5.043   4.483   0.425 -0.2740 -0.1940  0.4446
 4254TIP3    H134177   5.091   4.515   0.349 -1.6838  0.1790 -0.3265
 4254TIP3    H234178   5.082   4.530   0.499  2.7419 -2.3163  0.3669
 4255TIP3   OH234179   1.015   3.386   5.457 -0.2849 -0.2761 -0.1537
 4255TIP3    H134180   0.925   3.417   5.466  0.2213  0.6501  2.9600
 4255TIP3    H234181   1.050   3.435   5.383 -1.7604  0.9565 -0.0906
 4256TIP3   OH234182   5.461   3.752   6.069  0.2246 -0.3462 -0.5577
 4256TIP3    H134183   5.497   3.727   5.984  1.2139  0.7920 -0.5007
 4256TIP3    H234184   5.482   3.678   6.126  0.6099 -0.6050 -1.0235
 4257TIP3   OH234185   6.768   0.801   4.397  0.0981 -0.1416  0.3121
 4257TIP3    H134186   6.824   0.747   4.341 -0.9488 -1.5471  0.5584
 4257TIP3    H234187   6.811   0.799   4.482  0.4907  0.1016  0.1233
 4258TIP3   OH234188   3.432   4.815   2.793 -0.5569 -0.4478  0.8904
 4258TIP3    H134189   3.517   4.790   2.755 -0.2178 -0.2536  1.5088
 4258TIP3    H234190   3.370   4.807   2.720 -0.2443 -1.8534  0.7669
 4259TIP3   OH234191   2.601   6.716  14.500  0.5437 -0.3265  0.7084
 4259TIP3    H134192   2.649   6.638  14.527  1.3725  0.5458  1.8681
 4259TIP3    H234193   2.626   6.729  14.409  1.0801 -0.9249  0.7623
 4260TIP3   OH234194   2.756   2.643  15.612 -0.1983 -0.1932 -0.3739
 4260TIP3    H134195   2.718   2.575  15.667 -0.0299  0.6070  0.7553
 4260TIP3    H234196   2.680   2.683  15.569 -0.3261 -0.8346 -0.7750
 4261TIP3   OH234197   0.904   2.092  15.607 -0.1461  0.1177 -0.1441
 4261TIP3    H134198   0.832   2.152  15.590 -0.5853 -0.5166 -0.5836
 4261TIP3    H234199   0.983   2.143  15.589 -0.4694  0.9480  0.7671
 4262TIP3   OH234200   3.907   2.855  13.013 -0.3311 -0.2987  0.2808
 4262TIP3    H134201   3.900   2.948  12.995  0.5137 -0.2333  0.2379
 4262TIP3    H234202   3.826   2.833  13.059 -0.4816  0.4817  0.4068
 4263TIP3   OH234203   4.995   2.526   4.567  0.1708  0.2162 -0.1341
 4263TIP3    H134204   5.057   2.480   4.511  1.7901  0.9665  0.9440
 4263TIP3    H234205   4.928   2.461   4.588 -0.0282 -0.3145 -2.1894
 4264TIP3   OH234206   6.223   5.085  13.680 -0.2180  0.3405 -0.9906
 4264TIP3    H134207   6.210   5.014  13.743  0.8515  1.6983  0.8869
 4264TIP3    H234208   6.137   5.099  13.640 -0.7810 -0.9834 -0.2904
 4265TIP3   OH234209   2.113   4.123   4.633  0.3196  0.0132 -0.1697
 4265TIP3    H134210   2.120   4.031   4.659  0.6362 -0.5099 -1.9783
 4265TIP3    H234211   2.191   4.139   4.580 -0.4986  0.8498 -1.1780
 4266TIP3   OH234212   5.752   6.635   3.373 -0.1441  0.1304  0.1862
 4266TIP3    H134213   5.819   6.611   3.309 -0.8982 -0.2540 -0.4738
 4266TIP3    H234214   5.773   6.725   3.398  0.0183  0.3642 -0.7831
 4267TIP3   OH234215   0.816   0.575   2.909 -0.1792  0.0436  0.6435
 4267TIP3    H134216   0.828   0.539   2.821 -0.9691 -1.1702  1.0100
 4267TIP3    H234217   0.855   0.662   2.905  0.4343 -0.2729 -0.7060
 4268TIP3   OH234218   0.065   3.577   0.474  0.3710 -0.1748  0.0715
 4268TIP3    H134219  -0.015   3.524   0.480 -0.8651  1.6872  0.9811
 4268TIP3    H234220   0.093   3.590   0.564  1.3981 -0.3254 -0.2112
 4269TIP3   OH234221   2.904   4.965   1.541  0.4030  0.0291 -0.2362
 4269TIP3    H134222   2.823   4.972   1.491  1.2562  1.4702 -1.5117
 4269TIP3    H234223   2.881   4.912   1.616 -1.8913  0.9174 -0.2230
 4270TIP3   OH234224   3.554   3.942  12.812  0.0132 -0.0771  0.1720
 4270TIP3    H134225   3.531   3.881  12.742  0.2365 -0.2278  0.2335
 4270TIP3    H234226   3.482   3.935  12.875  0.5978 -1.1129  0.7398
 4271TIP3   OH234227   3.949   6.020   3.098  0.0157  0.0365 -0.0146
 4271TIP3    H134228   4.007   5.948   3.120 -0.0555  0.2988  1.1116
 4271TIP3    H234229   3.877   5.980   3.049 -0.7302 -0.9059  1.7708
 4272TIP3   OH234230   5.018   1.303  15.404 -0.2220  0.1296 -0.4395
 4272TIP3    H134231   5.075   1.341  15.337 -0.4703 -1.6196 -1.7077
 4272TIP3    H234232   4.932   1.341  15.386  0.2977  2.1072  0.9391
 4273TIP3   OH234233   6.221   2.711  16.243 -0.4536 -0.3717  0.3152
 4273TIP3    H134234   6.295   2.670  16.198  0.3049  0.5291  0.7291
 4273TIP3    H234235   6.147   2.654  16.223 -0.1494 -0.0389 -2.0529
 4274TIP3   OH234236   3.760   3.619  15.296 -0.0710  0.1163  0.3026
 4274TIP3    H134237   3.696   3.690  15.297  0.6069  0.7358  0.6665
 4274TIP3    H234238   3.844   3.662  15.312  0.1600 -0.9671  2.4001
 4275TIP3   OH234239   5.505   0.683  12.545 -0.1813  0.1852  0.0910
 4275TIP3    H134240   5.489   0.728  12.462 -0.9443 -2.3636 -1.2498
 4275TIP3    H234241   5.569   0.737  12.590  2.2091  0.4476 -3.2606
 4276TIP3   OH234242   1.157   5.936   4.638 -0.3229 -0.2115  0.4259
 4276TIP3    H134243   1.244   5.940   4.598 -0.3877 -0.5811  0.2468
 4276TIP3    H234244   1.144   5.844   4.658 -1.6361 -0.5373 -1.6785
 4277TIP3   OH234245   2.272   4.053  13.979  0.2069 -0.1580  0.2439
 4277TIP3    H134246   2.200   4.032  14.038 -1.2361 -0.1209 -1.4050
 4277TIP3    H234247   2.284   4.148  13.987 -1.4056  0.1984 -0.9681
 4278TIP3   OH234248   1.199   4.618   4.438  0.4478  0.2738  0.3010
 4278TIP3    H134249   1.243   4.548   4.390  1.2269  1.4317 -0.7379
 4278TIP3    H234250   1.125   4.575   4.480  0.6777 -1.0901 -0.6175
 4279TIP3   OH234251   1.948   1.694   2.169  0.2186  0.4522  0.1607
 4279TIP3    H134252   1.907   1.779   2.150 -0.2381 -0.0921 -1.4094
 4279TIP3    H234253   1.982   1.704   2.258 -0.2457  2.1174  0.1921
 4280TIP3   OH234254   5.606   0.105   6.526 -0.0962 -0.0889 -0.5476
 4280TIP3    H134255   5.693   0.066   6.516 -0.3628 -0.8911  0.1815
 4280TIP3    H234256   5.584   0.091   6.618 -1.1278 -0.1702 -0.8000
 4281TIP3   OH234257   2.887   6.323  12.703  0.4351 -0.3397 -0.4271
 4281TIP3    H134258   2.954   6.327  12.771  1.6002 -3.6974 -1.1434
 4281TIP3    H234259   2.843   6.239  12.718 -2.9094  1.1954 -0.7211
 4282TIP3   OH234260   5.876   5.596  13.663  0.3924 -0.2096 -0.1135
 4282TIP3    H134261   5.860   5.572  13.755 -0.4392  0.0903 -0.1659
 4282TIP3    H234262   5.790   5.589  13.622  0.3662  1.5584 -0.4261
 4283TIP3   OH234263   6.318   3.561  13.191  0.2469  0.6242  0.8177
 4283TIP3    H134264   6.238   3.537  13.143  0.4963 -0.2219  0.7916
 4283TIP3    H234265   6.364   3.620  13.132  1.3287 -1.6569 -0.7850
 4284TIP3   OH234266   3.985   6.302   1.509  0.1570  0.6202  0.2848
 4284TIP3    H134267   3.893   6.292   1.535 -0.0113  0.2959 -0.4029
 4284TIP3    H234268   4.028   6.335   1.587 -0.7307  1.7323  0.3350
 4285TIP3   OH234269   5.944   6.740   3.727 -0.1924  0.6143 -0.0021
 4285TIP3    H134270   5.958   6.716   3.635 -0.2650  1.2755 -0.1972
 4285TIP3    H234271   5.866   6.691   3.753  0.0934  0.0736 -0.1550
 4286TIP3   OH234272   5.668   3.478   2.205 -1.2645 -0.6688  0.8564
 4286TIP3    H134273   5.685   3.410   2.270  1.6042  0.9470  1.9507
 4286TIP3    H234274   5.729   3.459   2.133 -1.0799  0.2092  0.7696
 4287TIP3   OH234275   5.215   6.772   2.290 -0.0634 -0.0451 -0.0306
 4287TIP3    H134276   5.299   6.812   2.267 -1.1643  1.4436 -1.7126
 4287TIP3    H234277   5.194   6.808   2.376  0.4230  0.5723 -0.1645
 4288TIP3   OH234278   6.467   5.753  16.311  0.2118  0.5211 -0.1674
 4288TIP3    H134279   6.544   5.804  16.336  0.4992 -0.6959  1.5455
 4288TIP3    H234280   6.503   5.676  16.267  0.0296 -0.2586  1.0098
 4289TIP3   OH234281   5.715   4.588   5.331 -0.4209 -0.3358 -0.7676
 4289TIP3    H134282   5.643   4.619   5.275 -0.0159 -0.1274 -1.1832
 4289TIP3    H234283   5.679   4.591   5.420 -0.6660  0.5568 -0.8847
 4290TIP3   OH234284   0.879   6.372   4.159  0.1688  0.6014 -0.3331
 4290TIP3    H134285   0.936   6.395   4.086  0.8721  0.3940  0.1436
 4290TIP3    H234286   0.933   6.318   4.216  0.2634  2.2972  1.2864
 4291TIP3   OH234287   2.514   5.738  15.345  0.2159  0.7317 -0.2926
 4291TIP3    H134288   2.440   5.709  15.292  0.5314 -0.0440 -0.3154
 4291TIP3    H234289   2.484   5.820  15.384 -0.9916 -0.0046  0.3916
 4292TIP3   OH234290   5.201   4.819   6.956 -0.5145  0.1630  0.2243
 4292TIP3    H134291   5.252   4.744   6.987 -0.6870 -0.4046 -0.8236
 4292TIP3    H234292   5.113   4.803   6.991 -0.9240 -0.9233 -1.1691
 4293TIP3   OH234293   3.963   3.157   2.732  0.4091 -0.6814 -0.7056
 4293TIP3    H134294   3.916   3.170   2.650 -0.3720  0.3597 -0.1210
 4293TIP3    H234295   3.901   3.183   2.800  1.2391 -0.9545  0.1844
 4294TIP3   OH234296   2.945   4.009  16.464 -0.3568 -0.4222 -0.0898
 4294TIP3    H134297   2.892   4.087  16.447  0.6756  0.8097  1.9235
 4294TIP3    H234298   2.979   3.984  16.378 -0.0191  1.8880 -0.7139
 4295TIP3   OH234299   2.282   4.596  15.739 -0.0658  0.4417 -0.2400
 4295TIP3    H134300   2.256   4.594  15.831 -0.3904  0.6755 -0.3255
 4295TIP3    H234301   2.328   4.679  15.728  0.0250  0.3868 -0.2734
 4296TIP3   OH234302   0.050   4.802   3.540  0.2181 -0.2586 -0.5141
 4296TIP3    H134303  -0.038   4.772   3.564  0.6927 -2.3991 -1.2424
 4296TIP3    H234304   0.036   4.888   3.501 -1.9035 -1.5714 -2.9193
 4297TIP3   OH234305   0.072   6.057  15.376  0.0386 -0.0567  0.5410
 4297TIP3    H134306   0.071   5.969  15.414  2.1891 -0.1325  0.5425
 4297TIP3    H234307   0.134   6.105  15.430 -0.8124  1.3749  0.2917
 4298TIP3   OH234308   4.918   5.430  16.819 -0.5242  0.3677 -0.2612
 4298TIP3    H134309   4.939   5.524  16.815 -1.1458  0.5505  0.5397
 4298TIP3    H234310   4.880   5.410  16.734 -3.2371  1.5648  0.5705
 4299TIP3   OH234311   0.836   2.863   6.111 -1.0092 -0.0967  0.1147
 4299TIP3    H134312   0.892   2.930   6.072  2.0826 -1.3545  1.9743
 4299TIP3    H234313   0.750   2.877   6.072  0.8352  1.1782 -3.9834
 4300TIP3   OH234314   0.087   2.018   5.695  0.1143 -0.0973  0.0431
 4300TIP3    H134315   0.075   2.021   5.600 -1.8725  1.2793  0.2784
 4300TIP3    H234316   0.094   1.925   5.715  0.9288 -0.3969 -1.4750
 4301TIP3   OH234317   5.940   6.244  16.492 -0.7542  0.3878 -0.6535
 4301TIP3    H134318   6.028   6.209  16.483 -0.4613  0.3080  1.8008
 4301TIP3    H234319   5.901   6.193  16.563 -1.2666  3.1357  1.2163
 4302TIP3   OH234320   4.616   4.144   2.919  0.1948  0.1949 -0.1981
 4302TIP3    H134321   4.644   4.053   2.909  0.1750  0.2198 -0.4913
 4302TIP3    H234322   4.559   4.160   2.844 -0.8721  0.0456  0.5486
 4303TIP3   OH234323   2.564   2.342   5.246 -0.2649  0.4216  0.9707
 4303TIP3    H134324   2.505   2.278   5.285  0.6585 -0.0411  1.6390
 4303TIP3    H234325   2.553   2.330   5.152  0.1605 -0.9658  1.0850
 4304TIP3   OH234326   0.623   4.582  15.308  0.6067  0.0757 -0.2026
 4304TIP3    H134327   0.655   4.647  15.371  2.0476 -2.4335  1.8691
 4304TIP3    H234328   0.683   4.507  15.319 -1.3112 -1.8497 -1.9799
 4305TIP3   OH234329   5.585   2.878   5.466 -0.5914  0.4300 -0.0371
 4305TIP3    H134330   5.647   2.949   5.445 -1.1563  0.5156 -1.5183
 4305TIP3    H234331   5.534   2.912   5.539 -0.2687  1.1950 -0.1547
 4306TIP3   OH234332   2.873   6.596  16.929 -0.4617  0.0431 -0.1869
 4306TIP3    H134333   2.780   6.579  16.915  0.2237 -3.3700 -1.8567
 4306TIP3    H234334   2.899   6.535  16.998  0.3399  1.8960  1.2231
 4307TIP3   OH234335   1.645   6.378   0.761 -0.0552  0.0772  0.1098
 4307TIP3    H134336   1.566   6.395   0.810  0.4947 -0.4297  1.2005
 4307TIP3    H234337   1.700   6.455   0.774 -0.4508  0.5411 -0.8539
 4308TIP3   OH234338   2.101   3.035  11.561  0.1165  0.2357 -0.0115
 4308TIP3    H134339   2.131   3.125  11.575 -1.5288  0.9992 -1.0465
 4308TIP3    H234340   2.072   3.033  11.470 -0.4980 -1.1503  0.1880
 4309TIP3   OH234341   1.015   2.127  11.778 -0.1341 -0.3727 -0.3150
 4309TIP3    H134342   1.109   2.136  11.760 -0.0537  0.3974  0.4500
 4309TIP3    H234343   1.011   2.088  11.865 -0.4666  2.6006  1.1308
 4310TIP3   OH234344   2.712   6.246  17.156  0.4245  0.3903 -0.3154
 4310TIP3    H134345   2.800   6.281  17.174  0.0574  0.9676  0.3737
 4310TIP3    H234346   2.713   6.158  17.193 -0.2973  1.5167  2.6222
 4311TIP3   OH234347   4.674   5.698   2.781  0.2609  0.8531 -0.3956
 4311TIP3    H134348   4.686   5.792   2.769  2.8646  0.9355  1.8232
 4311TIP3    H234349   4.609   5.691   2.851 -1.0144  0.9035 -1.5380
 4312TIP3   OH234350   5.410   0.689   2.212 -0.7353 -0.0621  0.3431
 4312TIP3    H134351   5.465   0.755   2.254 -1.1303  3.2052 -3.6507
 4312TIP3    H234352   5.321   0.716   2.231 -0.9052  0.4537 -1.0643
 4313TIP3   OH234353   4.261   3.232  14.638 -0.0452  0.1616  0.2144
 4313TIP3    H134354   4.312   3.168  14.689 -2.1648 -2.0888 -0.3128
 4313TIP3    H234355   4.191   3.260  14.697 -1.7692 -1.5039 -0.9383
 4314TIP3   OH234356   3.373   0.060   6.100  0.1182  0.0490 -0.1070
 4314TIP3    H134357   3.289   0.102   6.113  0.0794 -0.2428  0.6496
 4314TIP3    H234358   3.432   0.106   6.160  0.9078  1.3726 -1.8096
 4315TIP3   OH234359   1.468   1.331  13.957  0.1828 -0.7030  0.4622
 4315TIP3    H134360   1.499   1.333  13.867 -0.8877  0.1017  0.0916
 4315TIP3    H234361   1.383   1.375  13.954  0.1902 -0.5501  1.8884
 4316TIP3   OH234362   4.637   6.749  16.949  0.3463 -0.6117  0.1841
 4316TIP3    H134363   4.653   6.656  16.930  1.2968  0.1825 -4.0164
 4316TIP3    H234364   4.714   6.794  16.914 -0.5070  1.8680  1.2443
 4317TIP3   OH234365   4.960   4.057  11.494  0.5693 -0.7163  0.1628
 4317TIP3    H134366   4.923   4.106  11.421 -2.5675 -0.6086  1.6782
 4317TIP3    H234367   4.916   3.972  11.491  2.0934 -1.5550  0.6133
 4318TIP3   OH234368   4.942   2.658   4.260  0.4001  0.4178 -0.2427
 4318TIP3    H134369   4.947   2.613   4.344 -0.5739  3.1867  1.4446
 4318TIP3    H234370   4.872   2.722   4.271 -0.2767  0.4187 -3.4631
 4319TIP3   OH234371   4.595   4.378   5.357 -0.5287 -0.2887  0.2906
 4319TIP3    H134372   4.689   4.377   5.376 -0.2769  1.2075 -0.7377
 4319TIP3    H234373   4.556   4.336   5.434  0.7790  1.4428  2.0264
 4320TIP3   OH234374   3.208   5.299  14.671 -0.5305 -0.2679  0.3443
 4320TIP3    H134375   3.248   5.386  14.667 -1.7524  0.3267  0.6115
 4320TIP3    H234376   3.281   5.240  14.690  0.5276  0.5292 -1.0507
 4321TIP3   OH234377   6.536   6.059   3.002 -0.3393  0.5575 -0.2040
 4321TIP3    H134378   6.532   6.139   3.054  1.4006  0.2140  0.5134
 4321TIP3    H234379   6.571   5.992   3.062 -0.9272 -0.5361 -1.0348
 4322TIP3   OH234380   4.507   1.176  15.543  0.4253 -0.4364 -0.5704
 4322TIP3    H134381   4.453   1.112  15.590  0.2041  0.1980  0.0693
 4322TIP3    H234382   4.590   1.131  15.526  1.3588 -0.0222  2.3806
 4323TIP3   OH234383   2.543   1.325   6.088  0.1200 -0.5640  0.0778
 4323TIP3    H134384   2.608   1.394   6.101 -0.3872 -0.5052  3.1681
 4323TIP3    H234385   2.592   1.243   6.103  0.6522 -0.9765 -3.2637
 4324TIP3   OH234386   5.908   0.122   0.947 -0.2187  0.6241  0.3274
 4324TIP3    H134387   5.916   0.035   0.908 -2.1957  1.8529 -3.3344
 4324TIP3    H234388   5.991   0.165   0.929 -0.5329  0.6248 -1.2701
 4325TIP3   OH234389   1.569   1.243  15.947 -0.6081 -0.1009 -0.3808
 4325TIP3    H134390   1.611   1.217  15.864  0.3243 -1.2379  0.4111
 4325TIP3    H234391   1.500   1.178  15.959  0.8750 -1.5287  0.9456
 4326TIP3   OH234392   1.031   5.538   4.036  0.5187 -0.4255 -0.6620
 4326TIP3    H134393   1.074   5.493   3.963  1.0835  0.7965 -1.1049
 4326TIP3    H234394   0.938   5.542   4.010  0.4483 -1.3757 -0.5825
 4327TIP3   OH234395   6.541   5.350  15.836  0.2193  0.3261 -0.5289
 4327TIP3    H134396   6.548   5.442  15.812  0.1970  0.8559  1.3932
 4327TIP3    H234397   6.448   5.330  15.826 -0.1112  1.0628  0.8879
 4328TIP3   OH234398   0.929   3.341  14.363  0.0993  0.1494 -0.0119
 4328TIP3    H134399   0.983   3.265  14.342  2.7195  2.6970 -3.5040
 4328TIP3    H234400   0.970   3.379  14.441  0.8204 -0.2191 -0.2055
 4329TIP3   OH234401   3.727   1.491   3.644 -0.2825  0.2695  0.3390
 4329TIP3    H134402   3.686   1.432   3.707  0.0424 -0.2132  0.1067
 4329TIP3    H234403   3.720   1.445   3.560 -1.0378  1.0610 -0.0515
 4330TIP3   OH234404   0.059   4.638  10.766 -0.0220 -0.4208  0.4902
 4330TIP3    H134405   0.133   4.695  10.788 -0.5199  0.5499 -0.2646
 4330TIP3    H234406   0.005   4.690  10.707 -1.7849 -0.7728  1.7170
 4331TIP3   OH234407   5.377   2.413  16.241 -0.3698 -0.7718  0.1036
 4331TIP3    H134408   5.367   2.497  16.287  1.5782 -0.1383 -0.4871
 4331TIP3    H234409   5.335   2.349  16.298 -0.1368  0.3284  1.5814
 4332TIP3   OH234410   2.252   6.691   0.652 -0.6634  0.2738 -0.4091
 4332TIP3    H134411   2.272   6.597   0.661 -0.2277  0.4800  1.0731
 4332TIP3    H234412   2.333   6.735   0.679 -1.2689  1.0859  0.1159
 4333TIP3   OH234413   3.660   2.858  11.646 -0.5666  0.0416  0.2669
 4333TIP3    H134414   3.642   2.921  11.576 -1.3046 -1.0189 -0.5044
 4333TIP3    H234415   3.754   2.840  11.638 -0.7244 -0.3986 -0.7384
 4334TIP3   OH234416   2.414   4.833  11.874  0.0016 -0.8154  0.1078
 4334TIP3    H134417   2.496   4.819  11.921  0.8403  0.0110 -1.0430
 4334TIP3    H234418   2.354   4.768  11.910  0.3033  0.3105  2.9269
 4335TIP3   OH234419   1.692   4.431  14.976  0.4802  0.0268  0.2363
 4335TIP3    H134420   1.763   4.374  14.946 -1.0008 -0.7145 -2.1456
 4335TIP3    H234421   1.627   4.371  15.012 -0.4455  0.3224 -0.8988
 4336TIP3   OH234422   1.668   5.439   3.964 -0.0751  0.4590 -0.4268
 4336TIP3    H134423   1.609   5.514   3.954 -4.6020 -2.5296  0.8285
 4336TIP3    H234424   1.630   5.371   3.908  1.2456 -2.1968  1.6718
 4337TIP3   OH234425   5.860   3.833   5.297 -0.0240 -0.4339 -0.6659
 4337TIP3    H134426   5.939   3.791   5.262 -0.6565  0.3332 -3.2558
 4337TIP3    H234427   5.796   3.762   5.303  0.7036 -0.9987  1.1513
 4338TIP3   OH234428   2.547   3.259  12.204 -0.0589 -0.1851 -0.2320
 4338TIP3    H134429   2.539   3.210  12.286 -0.2079 -0.0643 -0.1768
 4338TIP3    H234430   2.632   3.303  12.211 -0.4224  0.4567  0.1923
 4339TIP3   OH234431   1.143   0.598   2.808  0.2799 -0.6929  0.5886
 4339TIP3    H134432   1.177   0.591   2.897  0.3077  1.3294  0.8020
 4339TIP3    H234433   1.213   0.640   2.759 -0.7840  0.9020  0.3509
 4340TIP3   OH234434   1.282   6.617  14.463  0.4016 -0.3095  0.1810
 4340TIP3    H134435   1.375   6.596  14.478  0.1001 -1.1598  0.9178
 4340TIP3    H234436   1.282   6.710  14.442  1.3318 -0.0725  1.1232
 4341TIP3   OH234437   5.562   3.990   1.949  0.1438 -0.4014 -0.5033
 4341TIP3    H134438   5.603   3.904   1.943  0.7889 -0.0928 -0.5177
 4341TIP3    H234439   5.634   4.051   1.959 -0.2635  0.2145 -1.2210
 4342TIP3   OH234440   1.036   3.581   3.301  0.1933 -0.1756 -0.5123
 4342TIP3    H134441   0.958   3.574   3.247 -1.5975  1.6128  1.6560
 4342TIP3    H234442   1.037   3.499   3.352  0.5245 -0.7750 -1.4467
 4343TIP3   OH234443   5.815   0.596  11.381  0.0710 -0.0487  0.2855
 4343TIP3    H134444   5.857   0.664  11.328 -0.2346  0.6383  0.8992
 4343TIP3    H234445   5.761   0.547  11.320 -1.2254  1.4791  0.1429
 4344TIP3   OH234446   1.676   2.572  12.193  0.0133 -0.5808  0.0239
 4344TIP3    H134447   1.692   2.624  12.114 -1.5322 -1.0005 -0.6173
 4344TIP3    H234448   1.722   2.489  12.177  2.8319  0.6282  1.2274
 4345TIP3   OH234449   4.614   3.114   4.384  0.0896  0.4400 -0.4842
 4345TIP3    H134450   4.705   3.089   4.394 -0.3814 -1.2314 -0.0111
 4345TIP3    H234451   4.600   3.183   4.449  0.5787 -0.5520  0.7102
 4346TIP3   OH234452   3.462   6.496   6.996 -0.1502 -0.7629 -0.9334
 4346TIP3    H134453   3.512   6.520   6.918  0.5969  0.0590 -0.2262
 4346TIP3    H234454   3.377   6.467   6.963  0.4594 -1.2678 -2.0989
 4347TIP3   OH234455   2.636   1.154   3.622 -0.5182 -0.1997  0.3762
 4347TIP3    H134456   2.712   1.098   3.608 -0.6351 -0.2578 -0.0146
 4347TIP3    H234457   2.592   1.157   3.538  0.0367  1.2992  0.1217
 4348TIP3   OH234458   6.223   1.623  11.335 -0.2014  0.7685 -0.1562
 4348TIP3    H134459   6.194   1.627  11.244  1.3494  1.4469 -0.6545
 4348TIP3    H234460   6.300   1.565  11.333 -0.2988  0.5888  0.7688
 4349TIP3   OH234461   3.118   6.247   6.588 -0.0041 -0.1519  0.6040
 4349TIP3    H134462   3.166   6.183   6.536  1.3288  1.1371  0.1844
 4349TIP3    H234463   3.140   6.226   6.678  0.4287 -0.2926  0.4691
 4350TIP3   OH234464   5.876   0.151   3.149  0.4660  0.2181  0.6258
 4350TIP3    H134465   5.916   0.144   3.236 -3.5593 -1.9459  2.6161
 4350TIP3    H234466   5.875   0.061   3.116 -0.0175  0.6869 -0.7045
 4351TIP3   OH234467   0.144   2.510  13.751  0.1188 -0.2894 -0.1322
 4351TIP3    H134468   0.227   2.522  13.798  1.2316 -1.3043 -1.7543
 4351TIP3    H234469   0.122   2.418  13.763 -1.2333  0.1331  0.9294
 4352TIP3   OH234470   4.291   2.466  16.847 -0.5649 -0.5977 -0.0954
 4352TIP3    H134471   4.360   2.439  16.786 -1.3807 -0.4791 -1.1014
 4352TIP3    H234472   4.313   2.557  16.869 -1.1804 -0.0574 -1.5846
 4353TIP3   OH234473   3.969   3.046  16.465 -0.2071  0.0297 -0.5032
 4353TIP3    H134474   4.011   3.069  16.382  0.2849 -1.0854 -0.5820
 4353TIP3    H234475   3.994   3.116  16.525  0.8220 -0.0123 -0.8621
 4354TIP3   OH234476   4.979   0.557  12.838  0.1858 -0.0125  0.1364
 4354TIP3    H134477   4.951   0.514  12.919 -0.0097 -0.7036 -0.2808
 4354TIP3    H234478   5.063   0.597  12.859 -1.8636  3.9063  2.0669
 4355TIP3   OH234479   0.862   1.452   3.022  0.2865 -0.3370  0.4664
 4355TIP3    H134480   0.893   1.527   3.072 -3.1588 -0.4863  3.2088
 4355TIP3    H234481   0.838   1.488   2.937  0.8444  1.1810  0.9157
 4356TIP3   OH234482   0.470   4.872   3.235 -0.5316  0.8230 -0.3725
 4356TIP3    H134483   0.514   4.833   3.311 -0.3486 -1.7623 -1.6794
 4356TIP3    H234484   0.376   4.863   3.254 -0.4853  0.2252 -0.4042
 4357TIP3   OH234485   2.832   3.677  14.472 -0.8885  0.2873 -0.6186
 4357TIP3    H134486   2.746   3.669  14.513 -0.0143  0.8788  1.5134
 4357TIP3    H234487   2.862   3.764  14.498  0.4472 -0.0064 -1.1098
 4358TIP3   OH234488   4.231   1.104   5.988  0.3708 -0.1615 -0.7278
 4358TIP3    H134489   4.211   1.041   6.057 -1.1747  1.4815  0.4335
 4358TIP3    H234490   4.165   1.087   5.920  0.6969 -0.5429 -0.9535
 4359TIP3   OH234491   5.850   5.022   0.197  0.3796 -0.5195  0.2788
 4359TIP3    H134492   5.927   5.028   0.254  1.7148  0.4013 -1.5138
 4359TIP3    H234493   5.789   5.086   0.233  2.2130  1.9432 -0.6858
 4360TIP3   OH234494   4.158   5.184  13.613  0.4503 -0.3397 -0.4985
 4360TIP3    H134495   4.117   5.215  13.695 -1.5616 -3.0382 -0.3540
 4360TIP3    H234496   4.241   5.232  13.609 -0.4065  1.6072  1.9055
 4361TIP3   OH234497   2.784   4.596   2.588 -0.5615 -0.1110  0.4492
 4361TIP3    H134498   2.695   4.574   2.616 -0.0039 -0.5900  1.9661
 4361TIP3    H234499   2.837   4.584   2.667  0.7687  0.6863 -0.2885
 4362TIP3   OH234500   6.258   1.339  11.394 -0.5271 -0.2987 -0.2213
 4362TIP3    H134501   6.315   1.333  11.471  0.8619  2.1317 -0.9627
 4362TIP3    H234502   6.187   1.396  11.421 -0.1310  0.4176 -0.6767
 4363TIP3   OH234503   2.922   0.322  11.740 -0.2464 -0.3001 -0.4127
 4363TIP3    H134504   2.904   0.416  11.751  0.5543 -0.1974  0.1162
 4363TIP3    H234505   2.835   0.282  11.727 -0.4497  0.9281 -4.2989
 4364TIP3   OH234506   1.493   0.947  13.789  0.0251 -0.2835  0.2355
 4364TIP3    H134507   1.587   0.934  13.777  0.3575  0.8084  1.4125
 4364TIP3    H234508   1.454   0.861  13.774  1.0581 -0.4797 -1.5068
 4365TIP3   OH234509   4.884   3.815   4.976  0.1039  0.0317 -0.3596
 4365TIP3    H134510   4.860   3.763   5.053 -0.0488 -1.3674 -1.3229
 4365TIP3    H234511   4.830   3.894   4.982 -1.6698 -1.1470 -0.2819
 4366TIP3   OH234512   2.830   6.593  12.589  0.5132  0.5049 -0.2589
 4366TIP3    H134513   2.917   6.632  12.597  0.6075  0.2977 -0.2711
 4366TIP3    H234514   2.843   6.501  12.613  0.0331  0.7728  1.1154
 4367TIP3   OH234515   6.029   2.122   6.006 -0.1431  0.4038  0.2285
 4367TIP3    H134516   6.036   2.152   5.915 -0.1781 -1.1363 -0.3137
 4367TIP3    H234517   6.021   2.026   5.999 -0.1037  0.2572  1.8599
 4368TIP3   OH234518   4.544   4.026   1.858  0.0730 -0.2199  0.6993
 4368TIP3    H134519   4.459   4.012   1.901 -0.4045 -3.2472 -0.9159
 4368TIP3    H234520   4.521   4.058   1.770  0.7100  0.5691  0.8146
 4369TIP3   OH234521   1.686   4.771   0.435  1.0976  0.1117  0.0391
 4369TIP3    H134522   1.655   4.699   0.489 -2.4672  0.5513 -1.1617
 4369TIP3    H234523   1.693   4.734   0.347 -1.1566  1.1842 -0.6674
 4370TIP3   OH234524   1.921   6.023  15.625  0.6896  0.0368  0.3014
 4370TIP3    H134525   1.953   6.048  15.712  0.9544  1.3856 -0.1543
 4370TIP3    H234526   1.830   5.995  15.640  0.7579  0.1862  1.0207
 4371TIP3   OH234527   2.600   3.917   0.445 -0.3522 -0.5102  0.0899
 4371TIP3    H134528   2.518   3.955   0.413 -0.0404  1.3631  1.3792
 4371TIP3    H234529   2.583   3.901   0.538  1.8384  3.5226  1.4125
 4372TIP3   OH234530   1.642   1.218   2.973  0.0549  0.0521 -0.2963
 4372TIP3    H134531   1.708   1.278   3.007 -0.9448  0.2961  1.3153
 4372TIP3    H234532   1.648   1.141   3.030 -0.2911 -0.3994 -0.8569
 4373TIP3   OH234533   0.053   2.520   5.767 -0.1979  0.3697  0.0875
 4373TIP3    H134534   0.098   2.437   5.783  0.4126  0.8278  0.8581
 4373TIP3    H234535   0.010   2.540   5.851 -0.6798  0.6297 -0.2172
 4374TIP3   OH234536   0.628   1.333   0.214  0.4733  0.4675 -0.4053
 4374TIP3    H134537   0.713   1.347   0.256  1.1392 -0.7450 -1.2873
 4374TIP3    H234538   0.645   1.268   0.146 -1.0679  0.5791 -0.9409
 4375TIP3   OH234539   1.185   0.346  12.307 -0.9382  0.1616  0.1593
 4375TIP3    H134540   1.247   0.306  12.245  2.0872  3.4009  0.7759
 4375TIP3    H234541   1.136   0.272  12.343  3.6275 -2.9738  0.7046
 4376TIP3   OH234542   3.095   0.656  12.559 -0.6023 -0.2080 -0.0023
 4376TIP3    H134543   3.149   0.637  12.482 -1.2355 -2.3297  0.0178
 4376TIP3    H234544   3.007   0.667  12.523 -0.6745  0.1288  0.2822
 4377TIP3   OH234545   2.873   1.179   1.475  0.3206  0.3560 -0.4630
 4377TIP3    H134546   2.921   1.134   1.545 -1.6899  1.1765  1.5701
 4377TIP3    H234547   2.872   1.271   1.502 -1.4386  0.5187 -0.9943
 4378TIP3   OH234548   4.841   5.682   0.310  0.3171  0.4838  0.1474
 4378TIP3    H134549   4.916   5.632   0.278  0.0434 -0.0742  0.3820
 4378TIP3    H234550   4.877   5.737   0.380  0.6581  0.7831 -0.2538
 4379TIP3   OH234551   0.423   2.227   1.421  0.1525 -0.7790  0.2267
 4379TIP3    H134552   0.408   2.133   1.433  0.6856 -0.8457  0.4189
 4379TIP3    H234553   0.420   2.264   1.509 -0.0066 -0.6239  0.1568
 4380TIP3   OH234554   3.113   0.010  12.125  0.7919  0.1115  0.1116
 4380TIP3    H134555   3.053   0.053  12.065 -1.5317  2.1080  3.5304
 4380TIP3    H234556   3.161   0.082  12.168  1.6094 -1.1170  1.3615
 4381TIP3   OH234557   3.298   4.001   5.472 -0.0560 -0.0295 -0.6480
 4381TIP3    H134558   3.340   4.050   5.402  0.4284  0.9401  0.3095
 4381TIP3    H234559   3.240   4.064   5.514 -0.6801 -0.7232 -0.4456
 4382TIP3   OH234560   0.367   1.196  11.649  0.2319 -0.2947  0.1714
 4382TIP3    H134561   0.278   1.196  11.684 -0.1926 -1.1669 -0.8388
 4382TIP3    H234562   0.361   1.246  11.567  0.8217  0.2083  0.4247
 4383TIP3   OH234563   3.322   1.792   2.964 -0.0129 -0.3175  0.4897
 4383TIP3    H134564   3.260   1.862   2.983  0.7613  0.9345 -1.4058
 4383TIP3    H234565   3.406   1.826   2.992  0.8670  0.8514 -3.0775
 4384TIP3   OH234566   5.654   1.473  15.096 -0.3159  0.0333  0.1666
 4384TIP3    H134567   5.656   1.472  15.001 -1.7259 -1.5247  0.1218
 4384TIP3    H234568   5.562   1.483  15.119  0.0081  0.5119  1.3908
 4385TIP3   OH234569   2.318   6.074  15.155 -0.2336 -0.1531 -0.3219
 4385TIP3    H134570   2.304   6.027  15.237  2.3025  0.7238  0.6977
 4385TIP3    H234571   2.394   6.031  15.115 -2.0161 -1.2359 -2.8226
 4386TIP3   OH234572   1.266   0.454  17.142  0.5868 -0.0923  0.3797
 4386TIP3    H134573   1.246   0.544  17.118  1.1720 -0.2791 -0.9005
 4386TIP3    H234574   1.336   0.462  17.207  2.2793  0.3632 -1.4183
 4387TIP3   OH234575   2.712   6.077  16.127 -0.7740 -0.0765 -0.4421
 4387TIP3    H134576   2.751   5.990  16.118  0.3835  0.2823  0.8263
 4387TIP3    H234577   2.630   6.072  16.076 -1.2730 -2.2216  0.4592
 4388TIP3   OH234578   2.911   6.336  13.659 -0.6615  0.3540 -0.1592
 4388TIP3    H134579   2.975   6.366  13.594 -1.1499  1.3827 -0.1820
 4388TIP3    H234580   2.935   6.381  13.740 -0.7639 -0.0205  0.0846
 4389TIP3   OH234581   4.391   0.043  15.314 -0.0823 -0.6965  0.0676
 4389TIP3    H134582   4.354  -0.045  15.307 -1.6342 -0.1853  1.4462
 4389TIP3    H234583   4.429   0.047  15.401  2.2224 -0.7751 -0.8607
 4390TIP3   OH234584   6.661   4.219   2.386  0.0273  0.1732 -0.2189
 4390TIP3    H134585   6.665   4.303   2.432 -1.4052  1.0741 -1.6103
 4390TIP3    H234586   6.651   4.243   2.294  2.6431 -1.5553 -1.0578
 4391TIP3   OH234587   1.892   0.006  16.640  0.1859 -0.1566  0.1271
 4391TIP3    H134588   1.942   0.087  16.626 -1.6762  1.0584  0.1813
 4391TIP3    H234589   1.834   0.001  16.564 -0.8106 -0.5882  0.9085
 4392TIP3   OH234590   2.953   6.648  12.887 -0.2052  0.5775  0.3057
 4392TIP3    H134591   3.035   6.604  12.867 -0.3024  0.0437  1.0004
 4392TIP3    H234592   2.954   6.728  12.835 -0.0229 -0.2568 -0.9978
 4393TIP3   OH234593   4.083   0.723  12.943 -0.2981 -0.1836 -0.9065
 4393TIP3    H134594   4.130   0.652  12.900  1.3315 -0.3283  0.9150
 4393TIP3    H234595   4.123   0.803  12.908 -2.2308 -0.0705 -3.0642
 4394TIP3   OH234596   4.094   4.163  17.249 -0.5778  0.3267 -0.1001
 4394TIP3    H134597   4.129   4.129  17.167  0.5770  0.8444  0.1621
 4394TIP3    H234598   4.112   4.094  17.313 -1.5959 -0.1343 -0.2757
 4395TIP3   OH234599   0.734   5.509   3.005  0.0661 -0.1331 -0.5514
 4395TIP3    H134600   0.797   5.578   3.027 -2.0812  1.7178  0.2051
 4395TIP3    H234601   0.680   5.499   3.083 -2.2375  0.3027 -1.9659
 4396TIP3   OH234602   6.325   2.047  14.104 -0.1437 -0.0096  0.1127
 4396TIP3    H134603   6.395   2.055  14.168  0.7054 -2.2272 -0.4650
 4396TIP3    H234604   6.369   2.027  14.021 -1.3522  0.5454 -0.7004
 4397TIP3   OH234605   3.823   4.322   5.395  0.5410  0.1212 -0.3749
 4397TIP3    H134606   3.878   4.388   5.352  0.3716  0.2062 -0.4644
 4397TIP3    H234607   3.801   4.260   5.326  0.7710 -0.0794 -0.2709
 4398TIP3   OH234608   1.944   1.746  11.529  0.3603 -0.1091 -0.6890
 4398TIP3    H134609   1.893   1.668  11.548  0.4084  0.1349  0.5210
 4398TIP3    H234610   1.884   1.801  11.478 -1.2229  0.8237  1.9687
 4399TIP3   OH234611   6.409   0.195   0.302 -0.4745  0.2110  0.5421
 4399TIP3    H134612   6.378   0.210   0.212  0.7410  1.2480  0.2770
 4399TIP3    H234613   6.489   0.246   0.309 -0.7692  0.4980  2.3710
 4400TIP3   OH234614   2.598   1.105  17.072  0.2112 -0.0010  0.1160
 4400TIP3    H134615   2.645   1.096  16.989 -0.1218  0.4913 -0.1256
 4400TIP3    H234616   2.667   1.098  17.139  0.2740 -2.2308 -0.1008
 4401TIP3   OH234617   6.385   1.193  13.192  0.4509 -0.3568 -0.1228
 4401TIP3    H134618   6.460   1.244  13.163 -0.7616  0.7356 -1.4681
 4401TIP3    H234619   6.406   1.170  13.283  1.0784  2.5843  0.5946
 4402TIP3   OH234620   4.862   4.844  12.315  0.2847 -0.0308  0.3373
 4402TIP3    H134621   4.820   4.837  12.229  0.6735 -0.1402  0.1566
 4402TIP3    H234622   4.944   4.795  12.306  1.0461  1.2044  0.3257
 4403TIP3   OH234623   6.557   2.478  13.189 -1.1494 -0.0541 -0.1514
 4403TIP3    H134624   6.646   2.485  13.224 -0.6788  1.0817 -1.5172
 4403TIP3    H234625   6.566   2.422  13.112 -1.5462  0.4101 -0.5369
 4404TIP3   OH234626   5.322   0.904   6.214  0.7852  0.0808 -0.2557
 4404TIP3    H134627   5.293   0.964   6.145 -1.1904 -0.4681  0.0318
 4404TIP3    H234628   5.413   0.929   6.231  0.0829  2.9280 -0.1723
 4405TIP3   OH234629   4.961   5.271   3.711  0.5758 -0.1210  0.3441
 4405TIP3    H134630   4.974   5.347   3.653 -0.3551 -0.5016 -0.3916
 4405TIP3    H234631   4.881   5.292   3.760 -2.0100 -2.1371 -2.5553
 4406TIP3   OH234632   1.330   5.207  12.971 -0.2667  0.1899  0.2689
 4406TIP3    H134633   1.381   5.239  13.045  0.3879  0.1549 -0.1509
 4406TIP3    H234634   1.394   5.161  12.917 -1.0311 -1.1242  0.4518
 4407TIP3   OH234635   1.421   2.570  15.479 -0.2693  0.4655  0.1167
 4407TIP3    H134636   1.436   2.551  15.572  1.0698 -0.6604 -0.3052
 4407TIP3    H234637   1.508   2.565  15.439 -0.4775  3.2076 -0.8420
 4408TIP3   OH234638   3.338   6.461  12.470  0.0561  0.6321  0.0876
 4408TIP3    H134639   3.366   6.551  12.485  1.5846  0.2991 -0.6060
 4408TIP3    H234640   3.341   6.420  12.556  0.0958  1.0349  0.2814
 4409TIP3   OH234641   1.784   2.616   4.653 -0.6795 -0.0735 -0.8376
 4409TIP3    H134642   1.706   2.642   4.703  0.3386  0.1235  0.7116
 4409TIP3    H234643   1.794   2.523   4.672 -0.7875 -0.2023 -1.4002
 4410TIP3   OH234644   0.988   4.895   2.891  0.2291  0.0144 -0.2319
 4410TIP3    H134645   1.058   4.953   2.919  0.7493 -0.9533  0.5596
 4410TIP3    H234646   0.927   4.892   2.965 -0.0435 -0.0643 -0.4554
 4411TIP3   OH234647   4.903   2.894  15.671 -0.1112 -0.1809  0.1451
 4411TIP3    H134648   4.856   2.973  15.645  0.9974  0.7891  0.9952
 4411TIP3    H234649   4.983   2.895  15.618  1.1068  0.6397  1.8898
 4412TIP3   OH234650   4.921   2.566   5.771 -0.7017  0.8586  0.4358
 4412TIP3    H134651   4.953   2.569   5.861  0.6347  0.4303  0.0082
 4412TIP3    H234652   4.943   2.652   5.735  1.4443  0.0887 -0.2878
 4413TIP3   OH234653   2.986   3.979   1.913  0.4428 -0.0450 -0.2099
 4413TIP3    H134654   3.017   3.889   1.926  1.1449  0.4558  2.0642
 4413TIP3    H234655   2.905   3.984   1.964  0.1333  0.4793 -0.7428
 4414TIP3   OH234656   5.311   4.829   2.803  0.0352  0.2308 -0.3437
 4414TIP3    H134657   5.306   4.916   2.762 -1.8109  1.5255  2.2996
 4414TIP3    H234658   5.230   4.785   2.777 -0.3631  0.4258  0.5248
 4415TIP3   OH234659   1.187   3.337  15.033  0.4318  0.3705  0.3086
 4415TIP3    H134660   1.124   3.265  15.025  2.3334 -1.4294  0.8188
 4415TIP3    H234661   1.187   3.379  14.947  0.1663 -1.0083 -0.3849
 4416TIP3   OH234662   4.221   0.371   2.663 -0.3230 -0.4343 -0.3391
 4416TIP3    H134663   4.160   0.404   2.598  0.2344  1.6068  0.1190
 4416TIP3    H234664   4.230   0.441   2.727  0.4248 -1.7388  1.0697
 4417TIP3   OH234665   2.813   5.801  12.045  0.0701 -0.3503 -0.0785
 4417TIP3    H134666   2.828   5.805  12.140  0.5938 -1.3275 -0.1151
 4417TIP3    H234667   2.874   5.864  12.008  0.5253 -0.6497  0.1637
 4418TIP3   OH234668   1.784   2.579  13.164  0.4170 -0.1919 -0.2927
 4418TIP3    H134669   1.788   2.485  13.185  0.4871 -0.4957 -1.5878
 4418TIP3    H234670   1.691   2.595  13.146  0.0477  0.4662  1.8376
 4419TIP3   OH234671   5.899   0.790   5.917  0.2362  0.3259  0.3954
 4419TIP3    H134672   5.986   0.769   5.949  0.7276  1.8996  0.1559
 4419TIP3    H234673   5.843   0.788   5.994  0.2445 -1.6468  0.4144
 4420TIP3   OH234674   4.672   0.342   5.296 -0.3096 -0.3160  0.4594
 4420TIP3    H134675   4.651   0.432   5.322  0.0716 -0.0671 -0.0555
 4420TIP3    H234676   4.592   0.310   5.255 -0.0802  0.2152 -0.4351
 4421TIP3   OH234677   5.221   1.726   3.043  0.7524 -0.4116 -0.0115
 4421TIP3    H134678   5.167   1.803   3.058  1.4435  0.1986 -0.5668
 4421TIP3    H234679   5.205   1.670   3.119 -1.1889 -0.5868 -0.4976
 4422TIP3   OH234680   4.073   5.772   3.175  0.0719 -0.7626 -0.2548
 4422TIP3    H134681   4.151   5.764   3.230 -0.6810  1.3068  1.2503
 4422TIP3    H234682   4.011   5.710   3.212 -0.1642  0.0795  0.8222
 4423TIP3   OH234683   2.051   5.133   2.245 -0.1137 -0.4224 -0.2007
 4423TIP3    H134684   2.043   5.141   2.150  1.4052  0.2901 -0.2992
 4423TIP3    H234685   2.145   5.141   2.262 -0.4360  0.3808  1.4326
 4424TIP3   OH234686   0.223   4.860  14.245  0.6524 -0.2393  0.5687
 4424TIP3    H134687   0.169   4.892  14.317  2.0229  1.6698  0.8189
 4424TIP3    H234688   0.258   4.777  14.277 -0.5116 -0.5100  1.1923
 4425TIP3   OH234689   0.791   0.083  12.341 -0.3746 -0.1857 -0.5377
 4425TIP3    H134690   0.720   0.025  12.368 -1.0090  0.8897  0.1889
 4425TIP3    H234691   0.806   0.140  12.417 -0.0106  0.8218 -1.3370
 4426TIP3   OH234692   5.809   2.244  12.855  0.9352 -0.0114 -0.3675
 4426TIP3    H134693   5.798   2.278  12.944  0.7901  0.1373 -0.4418
 4426TIP3    H234694   5.819   2.322  12.800  2.4036 -0.1354 -0.3037
 4427TIP3   OH234695   2.001   1.405   2.763  0.4744 -0.0760 -0.8454
 4427TIP3    H134696   2.096   1.399   2.761  0.7486  1.4284  2.3229
 4427TIP3    H234697   1.971   1.317   2.739  2.7904 -1.5298  1.1730
 4428TIP3   OH234698   2.726   5.842  14.975  0.7526 -0.0434  0.0895
 4428TIP3    H134699   2.719   5.902  14.901  1.3865 -1.1156 -0.8704
 4428TIP3    H234700   2.761   5.761  14.937  1.3109 -0.5436  1.5997
 4429TIP3   OH234701   4.625   4.398   2.583  0.2432 -0.0906 -0.1187
 4429TIP3    H134702   4.601   4.489   2.600 -1.0300 -0.3710 -0.2846
 4429TIP3    H234703   4.592   4.381   2.495 -1.2436 -1.2459  0.6121
 4430TIP3   OH234704   3.042   3.245  17.254  0.7808 -0.2835 -0.1599
 4430TIP3    H134705   3.023   3.275  17.165  0.4787  1.9077  0.5828
 4430TIP3    H234706   3.135   3.222  17.253  1.0908  0.9174 -0.7655
 4431TIP3   OH234707   1.965   2.516   3.516 -0.5823 -0.0124  0.1379
 4431TIP3    H134708   1.932   2.436   3.556  0.2652 -0.4820 -0.0827
 4431TIP3    H234709   2.059   2.516   3.535 -0.4675  0.6196 -0.3842
 4432TIP3   OH234710   2.150   2.108   3.563  0.4101 -0.5557 -0.1930
 4432TIP3    H134711   2.214   2.037   3.566 -0.5036 -1.3908 -0.0563
 4432TIP3    H234712   2.203   2.188   3.569  1.4730 -1.2079 -0.6262
 4433TIP3   OH234713   3.432   5.186  11.041  0.2407 -0.3409  0.3213
 4433TIP3    H134714   3.344   5.207  11.013 -0.6940 -0.8482  2.6197
 4433TIP3    H234715   3.471   5.141  10.967 -1.2677  0.2477 -0.8853
 4434TIP3   OH234716   2.187   5.812  16.584  0.3902 -0.3857  0.0006
 4434TIP3    H134717   2.176   5.907  16.588 -0.8926 -0.5380  0.2690
 4434TIP3    H234718   2.282   5.800  16.572  0.7322  0.8860  1.2128
 4435TIP3   OH234719   1.605   2.760   0.250 -0.1393 -0.3392  0.5267
 4435TIP3    H134720   1.645   2.674   0.236 -0.5721 -0.6476  1.1692
 4435TIP3    H234721   1.528   2.760   0.193  0.0422 -0.2490  0.2798
 4436TIP3   OH234722   2.404   3.697   4.614 -0.1549  0.0176 -0.4550
 4436TIP3    H134723   2.412   3.777   4.561  1.4172 -1.4274 -2.5292
 4436TIP3    H234724   2.368   3.632   4.554 -0.3931 -1.1552  0.9062
 4437TIP3   OH234725   1.213   1.542   1.710  0.8916  0.0543 -0.0608
 4437TIP3    H134726   1.267   1.587   1.645  0.6585  0.3994 -0.0224
 4437TIP3    H234727   1.137   1.600   1.721  2.1363  1.3979  2.4397
 4438TIP3   OH234728   6.608   5.526   4.892 -0.5386  0.0037  0.4773
 4438TIP3    H134729   6.673   5.573   4.840 -1.1459 -0.9019 -1.1895
 4438TIP3    H234730   6.629   5.547   4.983  0.9690  1.1395 -0.1019
 4439TIP3   OH234731   0.144   6.733   1.023  0.3114 -0.3298 -0.0681
 4439TIP3    H134732   0.128   6.757   1.114 -0.8741  0.4057 -0.4516
 4439TIP3    H234733   0.140   6.815   0.975 -0.3690 -0.8508 -0.9509
 4440TIP3   OH234734   5.529   5.920  11.747  0.0844  0.7596  0.3535
 4440TIP3    H134735   5.599   5.925  11.682  0.5271 -0.6033  0.6883
 4440TIP3    H234736   5.568   5.954  11.827  1.0820 -1.8213  1.0602
 4441TIP3   OH234737   2.790   0.239   1.758  0.6399  0.5514 -0.8398
 4441TIP3    H134738   2.715   0.181   1.748 -1.0480  2.5308 -0.3601
 4441TIP3    H234739   2.861   0.194   1.713 -1.1207 -0.8487 -2.3983
 4442TIP3   OH234740   1.363   4.811   3.394 -0.1441  0.3790  0.4779
 4442TIP3    H134741   1.407   4.837   3.476 -0.0775  1.7014  0.0533
 4442TIP3    H234742   1.271   4.805   3.418 -0.1655  1.0769  0.5896
 4443TIP3   OH234743   3.100   3.041   0.425  0.4870  0.0392  0.1776
 4443TIP3    H134744   3.133   3.116   0.375  0.5092 -1.1549 -1.6959
 4443TIP3    H234745   3.004   3.050   0.422  0.3666  2.5558  4.1431
 4444TIP3   OH234746   5.932   0.849  17.071  0.1651  0.1133 -0.0039
 4444TIP3    H134747   5.991   0.883  17.138 -0.8531 -0.4838  1.2582
 4444TIP3    H234748   5.851   0.898  17.083 -0.3941 -0.7809 -0.0435
 4445TIP3   OH234749   0.378   1.998   5.659 -0.3004 -0.5620  0.4763
 4445TIP3    H134750   0.446   2.054   5.699 -0.7678  1.0093 -0.8282
 4445TIP3    H234751   0.355   1.936   5.728  0.3856  0.7480  1.9575
 4446TIP3   OH234752   0.312   2.424  16.348 -0.2961 -0.1928  0.8716
 4446TIP3    H134753   0.229   2.377  16.349  0.3156 -1.2780  1.6103
 4446TIP3    H234754   0.310   2.479  16.426 -0.5193  0.1537  0.6263
 4447TIP3   OH234755   5.959   5.308  16.045  0.0110 -0.1540 -0.0159
 4447TIP3    H134756   5.920   5.368  15.981  0.9281 -0.6810 -1.1202
 4447TIP3    H234757   5.909   5.322  16.125 -1.3935  0.3164 -0.9320
 4448TIP3   OH234758   2.659   2.805  15.012  0.3781  0.5987  0.2634
 4448TIP3    H134759   2.748   2.818  15.044  0.3633 -0.3969  0.7240
 4448TIP3    H234760   2.654   2.712  14.990 -1.1040  0.2125  1.9965
 4449TIP3   OH234761   5.175   5.028  13.677  0.6693  0.8795 -0.0372
 4449TIP3    H134762   5.093   5.075  13.692  0.8694  1.6227 -1.1554
 4449TIP3    H234763   5.204   5.001  13.765 -1.4922 -0.6882  0.2702
 4450TIP3   OH234764   5.448   2.111   3.902  1.0578 -0.2308  0.0641
 4450TIP3    H134765   5.402   2.186   3.939  0.2591 -0.9783  0.6150
 4450TIP3    H234766   5.494   2.147   3.825  1.4289  0.9977  0.8310
 4451TIP3   OH234767   0.219   4.904  12.958 -0.1008 -0.1218 -0.2484
 4451TIP3    H134768   0.129   4.918  12.929 -0.8131 -1.4600  1.1736
 4451TIP3    H234769   0.249   4.991  12.985  0.1840  0.9556 -3.5934
 4452TIP3   OH234770   1.800   1.956   5.035  0.7616 -0.0075  0.3015
 4452TIP3    H134771   1.738   2.024   5.008 -0.1698 -0.7884  0.4155
 4452TIP3    H234772   1.832   1.985   5.121  1.1744  0.7965 -0.1093
 4453TIP3   OH234773   4.892   2.036   1.043  0.0243  0.6789 -0.5796
 4453TIP3    H134774   4.824   2.100   1.023 -0.1705  0.7876  0.3908
 4453TIP3    H234775   4.933   2.018   0.958 -0.5353  1.3759 -1.0140
 4454TIP3   OH234776   6.286   3.643  15.183 -0.5226  0.0035 -0.1622
 4454TIP3    H134777   6.331   3.723  15.157  1.0013 -0.8664 -0.3082
 4454TIP3    H234778   6.329   3.616  15.264 -1.0274 -0.6581 -0.1069
 4455TIP3   OH234779   5.540   6.273   1.155 -0.0659  0.4927 -0.3247
 4455TIP3    H134780   5.633   6.293   1.150 -0.3822  1.7902 -1.5546
 4455TIP3    H234781   5.496   6.353   1.127 -1.6495  0.6524  2.2140
 4456TIP3   OH234782   3.475   2.104  11.536 -0.6719 -0.4610  0.1621
 4456TIP3    H134783   3.405   2.081  11.475 -0.4183  0.0675 -0.3369
 4456TIP3    H234784   3.440   2.082  11.622 -0.7436 -1.9628 -0.2151
 4457TIP3   OH234785   4.347   0.469   4.476 -0.3938  0.4121  0.6590
 4457TIP3    H134786   4.370   0.486   4.384  0.8510 -0.9134  0.6981
 4457TIP3    H234787   4.262   0.427   4.472 -1.0089  1.6425  0.2239
 4458TIP3   OH234788   5.404   6.108   3.134  0.1684  0.3172 -0.2666
 4458TIP3    H134789   5.389   6.199   3.159 -0.2119  0.3278 -0.5190
 4458TIP3    H234790   5.322   6.081   3.092  0.1477 -0.2557  0.1351
 4459TIP3   OH234791   4.272   0.861  15.172 -0.6001 -0.0507 -0.2856
 4459TIP3    H134792   4.234   0.774  15.180 -2.2288  0.7721  1.8464
 4459TIP3    H234793   4.214   0.906  15.111 -0.5889 -0.0558 -0.2996
 4460TIP3   OH234794   0.661   0.712  13.322  0.4627 -0.5399  0.4275
 4460TIP3    H134795   0.619   0.755  13.248 -0.6582  0.2747  1.4780
 4460TIP3    H234796   0.623   0.756  13.399  1.0200 -1.8601  1.4909
 4461TIP3   OH234797   5.549   0.444   5.528  0.4589  0.3612 -0.1461
 4461TIP3    H134798   5.478   0.437   5.592 -0.4061 -2.8395 -1.2882
 4461TIP3    H234799   5.514   0.499   5.459 -2.5318 -3.7582 -2.3506
 4462TIP3   OH234800   3.307   1.289  11.914  0.4328 -0.1628  0.1592
 4462TIP3    H134801   3.263   1.351  11.972  0.0547 -0.6747  0.4225
 4462TIP3    H234802   3.259   1.207  11.924 -0.4072  0.0378 -1.7774
 4463TIP3   OH234803   5.932   4.805  11.559 -0.3955  0.0100  0.6980
 4463TIP3    H134804   6.022   4.811  11.590 -0.3734  0.4365  0.5539
 4463TIP3    H234805   5.887   4.751  11.624 -0.0627 -0.1060  0.8297
 4464TIP3   OH234806   5.469   0.646   3.275 -0.0504  0.4913 -0.3350
 4464TIP3    H134807   5.482   0.678   3.185  1.3697  0.4152 -0.1769
 4464TIP3    H234808   5.533   0.694   3.327 -0.1079 -0.2759  0.4590
 4465TIP3   OH234809   6.646   5.271   5.079  0.2390  0.2803 -0.7580
 4465TIP3    H134810   6.597   5.289   4.998 -2.2011 -0.4068  0.4716
 4465TIP3    H234811   6.688   5.355   5.100  1.4162  0.3385 -2.9730
 4466TIP3   OH234812   0.360   6.310  13.454 -0.0130 -0.1037 -0.0895
 4466TIP3    H134813   0.438   6.329  13.400  1.1222  0.7379  1.7337
 4466TIP3    H234814   0.322   6.397  13.471  0.9591 -0.0697  2.2571
 4467TIP3   OH234815   5.693   5.922  13.400 -0.1111  0.5152 -0.2316
 4467TIP3    H134816   5.650   6.007  13.406 -2.0666 -0.4599  0.2629
 4467TIP3    H234817   5.734   5.909  13.485 -0.8808  0.4390  0.1357
 4468TIP3   OH234818   4.517   1.071   1.905 -0.2380 -0.1937  0.2733
 4468TIP3    H134819   4.477   1.025   1.830 -1.8507 -0.1595  1.0702
 4468TIP3    H234820   4.461   1.146   1.919  2.5089  2.3378 -1.1747
 4469TIP3   OH234821   2.373   1.689   2.764 -0.2972  0.2134 -0.6994
 4469TIP3    H134822   2.389   1.779   2.733 -1.8032  0.1551 -1.7675
 4469TIP3    H234823   2.454   1.642   2.743  0.1673  1.1097 -0.9753
 4470TIP3   OH234824   0.402   3.821   0.112 -0.3742  0.5187 -0.5227
 4470TIP3    H134825   0.412   3.771   0.193 -2.3420  2.4784  1.0552
 4470TIP3    H234826   0.474   3.884   0.114  0.8690 -0.8202 -1.4598
 4471TIP3   OH234827   3.587   5.390   3.209  0.3056 -0.0884 -0.1767
 4471TIP3    H134828   3.593   5.302   3.172 -2.4808  0.1328 -1.4739
 4471TIP3    H234829   3.578   5.375   3.304  0.8631 -1.1228 -0.2686
 4472TIP3   OH234830   5.413   0.044  11.269 -0.3225 -0.0485 -0.8082
 4472TIP3    H134831   5.401  -0.028  11.208  2.8575 -0.9802 -0.4833
 4472TIP3    H234832   5.449   0.004  11.348 -0.3595  1.6510  0.1195
 4473TIP3   OH234833   6.106   3.006   1.820 -0.6079  0.6205  0.0053
 4473TIP3    H134834   6.067   2.923   1.844 -0.0140  0.0945 -0.7733
 4473TIP3    H234835   6.131   2.995   1.728 -0.8984  1.8022 -0.2376
 4474TIP3   OH234836   4.902   5.649  15.587  0.0704 -0.0839 -0.0832
 4474TIP3    H134837   4.983   5.699  15.580 -0.2900  0.4505 -0.5515
 4474TIP3    H234838   4.851   5.696  15.653 -0.3915  0.3575 -0.7374
 4475TIP3   OH234839   6.123   6.486   1.921  0.2726  0.2396  0.0661
 4475TIP3    H134840   6.194   6.542   1.954  0.6986 -0.6536  0.7050
 4475TIP3    H234841   6.086   6.535   1.847 -0.1164  1.8984  1.2848
 4476TIP3   OH234842   3.262   5.657   5.898  0.5771 -0.0833  0.1062
 4476TIP3    H134843   3.301   5.574   5.928 -1.6287 -1.2719 -0.1164
 4476TIP3    H234844   3.191   5.673   5.959  1.1449  1.8572  0.3088
 4477TIP3   OH234845   0.004   5.032  13.229 -0.0973  0.3973 -0.7013
 4477TIP3    H134846   0.019   4.993  13.315 -0.4157 -0.4288 -1.0036
 4477TIP3    H234847   0.090   5.061  13.200 -0.1823  1.8704  0.4358
 4478TIP3   OH234848   2.598   6.152   1.004 -0.2113 -0.2316 -0.6695
 4478TIP3    H134849   2.591   6.063   1.036  1.7620 -0.5465 -1.0225
 4478TIP3    H234850   2.690   6.163   0.979 -0.3989  1.8884 -0.6711
 4479TIP3   OH234851   1.243   0.879  12.072  0.5897 -0.1166 -0.0082
 4479TIP3    H134852   1.191   0.946  12.117 -0.8330 -0.3332 -1.2344
 4479TIP3    H234853   1.329   0.884  12.113  0.0822  1.4130  0.9738
 4480TIP3   OH234854   1.630   0.123   0.219  0.1827  0.2164 -0.1650
 4480TIP3    H134855   1.692   0.196   0.214  2.3857 -1.5117  0.1741
 4480TIP3    H234856   1.625   0.090   0.129  1.0931 -0.6161  0.0593
 4481TIP3   OH234857   0.329   4.488  14.617  0.0482 -0.0896 -0.1733
 4481TIP3    H134858   0.323   4.454  14.528 -0.8572  1.1176 -0.6158
 4481TIP3    H234859   0.259   4.554  14.622  0.5409  0.3753  1.1961
 4482TIP3   OH234860   4.902   6.247  17.266  0.2710 -0.3695  0.7818
 4482TIP3    H134861   4.823   6.276  17.311  0.4485  0.4530  0.5833
 4482TIP3    H234862   4.966   6.316  17.282  0.2852  0.0347 -0.8467
 4483TIP3   OH234863   6.736   6.464  13.772 -0.1573  0.5662 -0.4600
 4483TIP3    H134864   6.723   6.554  13.743 -0.1934  1.1969  1.3752
 4483TIP3    H234865   6.820   6.465  13.818 -0.1392 -0.3494 -0.4499
 4484TIP3   OH234866   3.199   5.733   3.145  0.1681  0.1130  0.6324
 4484TIP3    H134867   3.234   5.674   3.078 -0.0174  0.0827  0.5622
 4484TIP3    H234868   3.242   5.704   3.226  0.1294 -0.0749  0.5872
 4485TIP3   OH234869   3.930   4.466  14.848 -0.0921  0.5129  0.6868
 4485TIP3    H134870   3.982   4.546  14.837  1.8498 -0.5006  1.8272
 4485TIP3    H234871   3.897   4.471  14.938  0.4254 -0.1386  0.9251
 4486TIP3   OH234872   1.569   3.603   4.730 -0.2533  0.5218 -0.2762
 4486TIP3    H134873   1.611   3.637   4.651 -1.2079  0.7272 -0.7053
 4486TIP3    H234874   1.492   3.658   4.742 -0.8768 -0.3867  0.0001
 4487TIP3   OH234875   4.615   0.624  17.218 -0.1325 -0.0074  0.0609
 4487TIP3    H134876   4.681   0.693  17.213  1.9264 -1.8675 -0.1241
 4487TIP3    H234877   4.610   0.602  17.311 -0.0655 -0.2480  0.0079
 4488TIP3   OH234878   6.764   1.429  14.278  0.2168 -0.8268 -0.0032
 4488TIP3    H134879   6.702   1.356  14.277 -0.8262  0.0419 -0.7914
 4488TIP3    H234880   6.837   1.397  14.331 -1.4224 -1.4212  2.0336
 4489TIP3   OH234881   2.121   6.618  16.330 -0.5150  0.6364 -0.1292
 4489TIP3    H134882   2.195   6.635  16.272 -1.4701  0.4141 -1.4751
 4489TIP3    H234883   2.053   6.678  16.300 -1.8868 -1.2505 -0.9441
 4490TIP3   OH234884   3.951   6.705  12.496  0.3547 -0.1230  0.6159
 4490TIP3    H134885   3.934   6.736  12.585 -1.3165 -1.8284  0.9730
 4490TIP3    H234886   4.032   6.654  12.503  1.3456  1.4023  0.6835
 4491TIP3   OH234887   2.488   2.362   3.127 -0.2639  1.2704 -0.2388
 4491TIP3    H134888   2.419   2.303   3.098  0.3123  0.5540 -0.1858
 4491TIP3    H234889   2.467   2.446   3.088 -0.9734  0.9717 -0.5016
 4492TIP3   OH234890   1.926   1.804  17.258 -0.1149 -0.0611  0.8429
 4492TIP3    H134891   1.928   1.836  17.168  2.0941  0.2259  0.9351
 4492TIP3    H234892   1.834   1.784  17.275 -0.6306  0.2813 -1.3215
 4493TIP3   OH234893   2.114   5.335   3.675  0.0638  0.1319  0.1654
 4493TIP3    H134894   2.034   5.368   3.634 -0.2641 -0.3371  0.4138
 4493TIP3    H234895   2.122   5.245   3.642 -0.2103 -0.2534  1.1192
 4494TIP3   OH234896   4.040   4.337  11.050  0.6371 -0.4237 -0.1923
 4494TIP3    H134897   3.969   4.287  11.092  0.0851 -1.7632 -2.5199
 4494TIP3    H234898   4.119   4.308  11.095 -0.1877  1.4803  2.8244
 4495TIP3   OH234899   6.681   0.575  15.130 -0.1493 -0.1783 -0.9070
 4495TIP3    H134900   6.698   0.624  15.210 -0.4898  0.0234 -0.9547
 4495TIP3    H234901   6.590   0.548  15.137 -0.2586  0.0592 -1.3346
 4496TIP3   OH234902   4.742   2.638   4.502 -0.1748 -0.3252  0.4301
 4496TIP3    H134903   4.701   2.565   4.548  0.0902 -1.0303 -0.4386
 4496TIP3    H234904   4.822   2.656   4.552  0.0477 -1.0018  0.3193
 4497TIP3   OH234905   4.232   4.829  15.348  0.2623  0.0151  0.1881
 4497TIP3    H134906   4.322   4.801  15.363  1.5461  2.4621 -2.2171
 4497TIP3    H234907   4.208   4.874  15.429  1.7028  0.5397  0.3526
 4498TIP3   OH234908   2.997   2.527  12.095  0.3243  0.1691 -0.0507
 4498TIP3    H134909   2.931   2.597  12.096 -1.9160 -1.8281  0.0358
 4498TIP3    H234910   3.025   2.518  12.186 -0.9604 -0.4302  0.2983
 4499TIP3   OH234911   4.924   2.115   4.081  0.8877 -0.0611 -0.1416
 4499TIP3    H134912   4.936   2.038   4.026 -0.2624 -0.3863  0.0406
 4499TIP3    H234913   4.870   2.085   4.154 -2.3171  1.5736 -1.6757
 4500TIP3   OH234914   4.861   0.048  14.018  0.0174 -0.6946  0.4565
 4500TIP3    H134915   4.867  -0.038  14.059 -1.4296 -0.6966  0.7031
 4500TIP3    H234916   4.882   0.109  14.089  2.6991 -0.8392 -0.0995
 4501TIP3   OH234917   2.608   6.140  14.189 -0.2493  0.3270  0.1492
 4501TIP3    H134918   2.685   6.084  14.200  0.0041  0.7878  0.8199
 4501TIP3    H234919   2.634   6.202  14.120 -0.6002 -0.4768 -0.7285
 4502TIP3   OH234920   1.572   2.204  15.192 -0.2276 -0.3510  0.1474
 4502TIP3    H134921   1.605   2.286  15.156 -0.9461  0.1408  0.5755
 4502TIP3    H234922   1.558   2.148  15.116 -2.4864  0.9526 -0.5093
 4503TIP3   OH234923   3.274   0.594   1.614 -0.3858  0.3392  0.2181
 4503TIP3    H134924   3.250   0.624   1.701 -0.5962 -0.0535  0.3001
 4503TIP3    H234925   3.192   0.591   1.566 -0.2337  0.8084 -0.0739
 4504TIP3   OH234926   5.450   1.066   3.072  0.5584  0.1958 -0.5505
 4504TIP3    H134927   5.382   1.047   3.008 -0.0624  2.4385 -0.6335
 4504TIP3    H234928   5.515   0.996   3.060 -0.2029 -0.2236 -2.6324
 4505TIP3   OH234929   4.205   6.116  16.807 -0.2367 -0.1342  0.1749
 4505TIP3    H134930   4.282   6.163  16.838  0.7375 -0.3624 -1.7274
 4505TIP3    H234931   4.152   6.101  16.885  1.3906  0.4934  1.4442
 4506TIP3   OH234932   0.254   5.432   4.286 -0.0009 -0.2124 -0.3037
 4506TIP3    H134933   0.279   5.416   4.195 -1.2388  1.9779 -1.1100
 4506TIP3    H234934   0.308   5.506   4.313 -1.4801  0.8549 -0.1632
 4507TIP3   OH234935   5.963   0.572  15.000 -0.6574 -0.2453  0.3034
 4507TIP3    H134936   5.955   0.620  15.082 -1.5345 -0.1311  0.1618
 4507TIP3    H234937   5.895   0.609  14.944  1.4053  1.3342 -1.3272
 4508TIP3   OH234938   5.497   2.251  12.857  0.3217  0.1962 -0.1195
 4508TIP3    H134939   5.543   2.329  12.888  0.7015  0.2285 -0.7606
 4508TIP3    H234940   5.414   2.284  12.821  0.9832  0.4458 -1.4584
 4509TIP3   OH234941   1.491   0.320  11.274 -0.4552 -0.2092 -0.1207
 4509TIP3    H134942   1.583   0.306  11.296  0.2380  1.5895 -1.5953
 4509TIP3    H234943   1.451   0.351  11.356  1.0025  1.9814 -0.1375
 4510TIP3   OH234944   5.904   6.466   4.776 -0.5126 -0.3991  0.1195
 4510TIP3    H134945   5.819   6.426   4.795  0.3210 -1.3713  2.1400
 4510TIP3    H234946   5.922   6.521   4.852  0.6018 -0.0924 -0.3544
 4511TIP3   OH234947   2.414   4.835  15.739  1.0628 -0.0222  0.2469
 4511TIP3    H134948   2.419   4.802  15.828  0.5885  0.6844  0.5482
 4511TIP3    H234949   2.433   4.929  15.747 -0.7387  0.4258 -0.1163
 4512TIP3   OH234950   3.348   4.547   5.746 -0.2943 -0.1086 -0.4456
 4512TIP3    H134951   3.437   4.580   5.735 -0.1856  0.2577  1.3752
 4512TIP3    H234952   3.307   4.563   5.661  0.6051  2.1144 -0.5318
 4513TIP3   OH234953   2.891   2.581   3.669 -0.3596  0.3229  0.1085
 4513TIP3    H134954   2.894   2.532   3.587 -0.9228  1.6178 -0.7079
 4513TIP3    H234955   2.979   2.571   3.705 -0.3344 -0.9204 -0.2359
 4514TIP3   OH234956   6.707   1.041  14.451  0.0461  0.1510  0.0586
 4514TIP3    H134957   6.659   1.033  14.533  0.1203  1.5694  0.2718
 4514TIP3    H234958   6.640   1.035  14.383 -0.0002 -1.1503  0.1857
 4515TIP3   OH234959   2.187   5.119  17.073  0.0676 -0.6529  0.2735
 4515TIP3    H134960   2.239   5.115  17.153  1.8668 -0.6361 -0.8290
 4515TIP3    H234961   2.243   5.079  17.006 -1.4632 -0.8559 -0.9423
 4516TIP3   OH234962   2.545   5.600  12.991  0.1584  0.4065 -0.2538
 4516TIP3    H134963   2.471   5.649  13.028  1.3012  1.9625  0.0648
 4516TIP3    H234964   2.550   5.521  13.045 -1.1269  0.3643 -0.1527
 4517TIP3   OH234965   5.490   5.417  12.164  0.1609 -0.6543 -0.6912
 4517TIP3    H134966   5.432   5.342  12.152 -0.0694 -0.4392 -0.9453
 4517TIP3    H234967   5.556   5.408  12.096 -0.1121 -0.4023 -0.9970
 4518TIP3   OH234968   0.166   2.529   6.684 -0.0649 -0.1087  0.0114
 4518TIP3    H134969   0.166   2.563   6.773 -0.4225  0.1569 -0.0893
 4518TIP3    H234970   0.074   2.523   6.660  0.0503  0.6514 -0.6565
 4519TIP3   OH234971   2.926   3.008   3.590 -0.0657 -0.5089 -0.4213
 4519TIP3    H134972   2.882   2.956   3.657  0.1125  0.5132  0.5230
 4519TIP3    H234973   2.861   3.016   3.520 -0.9354 -0.0962  0.4072
 4520TIP3   OH234974   5.880   2.414  15.052  0.5207 -0.5074 -0.0600
 4520TIP3    H134975   5.962   2.418  15.003  0.4492 -1.3532 -0.2671
 4520TIP3    H234976   5.906   2.378  15.137  0.7297  1.4312  0.7414
 4521TIP3   OH234977   6.178   6.248   4.879 -0.0423 -0.1149  0.0409
 4521TIP3    H134978   6.151   6.332   4.917  1.5588  0.2688  0.4020
 4521TIP3    H234979   6.272   6.243   4.897 -0.0199 -1.7653 -0.4186
 4522TIP3   OH234980   0.173   3.921   5.104 -0.5763 -0.4855  0.6720
 4522TIP3    H134981   0.160   3.859   5.033  0.6503  0.1199 -0.0945
 4522TIP3    H234982   0.263   3.951   5.095 -0.5242 -0.0729  2.2291
 4523TIP3   OH234983   2.315   6.112   0.016 -0.3126 -0.3025  0.3164
 4523TIP3    H134984   2.356   6.141  -0.065 -2.0219  0.6412 -0.2626
 4523TIP3    H234985   2.222   6.133   0.005 -0.9060 -1.9747  1.7255
 4524TIP3   OH234986   2.856   6.691  13.411  0.1563 -0.5056  0.0802
 4524TIP3    H134987   2.859   6.765  13.472  2.7142 -0.2267 -0.2563
 4524TIP3    H234988   2.834   6.730  13.327  1.4956 -0.0533 -0.0957
 4525TIP3   OH234989   1.540   1.812  15.033 -0.1635 -0.0628  0.2692
 4525TIP3    H134990   1.633   1.824  15.016 -0.3947 -0.0663 -1.0875
 4525TIP3    H234991   1.531   1.719  15.053 -0.0682 -0.3970 -1.1209
 4526TIP3   OH234992   2.439   2.685   3.371  0.5749 -0.2223  0.0061
 4526TIP3    H134993   2.479   2.657   3.289 -1.4281  1.1938 -1.5596
 4526TIP3    H234994   2.462   2.778   3.379  0.0619 -0.1339  0.5908
 4527TIP3   OH234995   0.683   5.106   5.191  0.6707 -0.2678 -0.3411
 4527TIP3    H134996   0.623   5.041   5.227  2.1287 -1.7715 -0.4670
 4527TIP3    H234997   0.658   5.113   5.099 -1.3129  1.5395  0.2758
 4528TIP3   OH234998   4.080   6.573   4.195 -0.0363  0.3072 -0.2248
 4528TIP3    H134999   4.112   6.508   4.257 -1.4988  1.3227  1.6819
 4528TIP3    H235000   4.028   6.522   4.133  0.0125 -0.5241  0.3901
 4529TIP3   OH235001   5.851   0.845  15.853 -1.1091  0.0932  0.5069
 4529TIP3    H135002   5.775   0.888  15.815 -1.8848 -1.4342  0.2287
 4529TIP3    H235003   5.898   0.809  15.778  0.2995  1.5786  0.6114
 4530TIP3   OH235004   6.352   2.710  13.938  0.1602 -0.3879  0.2997
 4530TIP3    H135005   6.345   2.701  13.843 -2.9084  0.5678  0.3512
 4530TIP3    H235006   6.278   2.765  13.964  1.8522  0.8307  3.1025
 4531TIP3   OH235007   3.498   6.000   1.858  0.2192  0.6167  0.2581
 4531TIP3    H135008   3.484   6.093   1.876  0.6651  1.1573 -1.9290
 4531TIP3    H235009   3.592   5.991   1.846  0.2702 -0.2883  1.1883
 4532TIP3   OH235010   0.289   5.327  15.401 -0.3338 -0.0066  0.7127
 4532TIP3    H135011   0.247   5.398  15.449 -1.0446  1.1880 -1.5551
 4532TIP3    H235012   0.221   5.260  15.394  0.2000 -0.7955  2.4660
 4533TIP3   OH235013   4.885   0.164  14.284 -0.1033  0.2514 -0.1601
 4533TIP3    H135014   4.932   0.246  14.302 -0.3321  0.3960 -0.2164
 4533TIP3    H235015   4.927   0.100  14.341 -0.4368  0.5804  0.4599
 4534TIP3   OH235016   2.094   0.837   6.105 -0.4724  0.2669 -0.0413
 4534TIP3    H135017   2.136   0.876   6.182 -0.5732 -0.3629  0.3348
 4534TIP3    H235018   2.003   0.823   6.131 -0.6582  0.6122 -0.4855
 4535TIP3   OH235019   3.475   6.215  12.331  0.1961  0.5935  0.0695
 4535TIP3    H135020   3.543   6.248  12.390  1.9776  0.4116 -1.7458
 4535TIP3    H235021   3.398   6.267  12.351  1.2692  1.7818  1.2876
 4536TIP3   OH235022   2.834   1.658   2.641  0.2833  0.0198 -0.0886
 4536TIP3    H135023   2.758   1.663   2.583 -0.7842  1.3351  1.3175
 4536TIP3    H235024   2.830   1.571   2.680  2.0708 -1.6169 -3.2291
 4537TIP3   OH235025   1.070   2.865   5.308  0.2655  0.3778  0.6041
 4537TIP3    H135026   1.102   2.776   5.317  2.6941  0.7710 -2.5222
 4537TIP3    H235027   1.136   2.919   5.352  0.5903  0.7962 -0.3649
 4538TIP3   OH235028   2.840   1.730   0.592 -0.3039 -0.4131  0.0583
 4538TIP3    H135029   2.829   1.676   0.515 -0.2422  0.6595 -0.7280
 4538TIP3    H235030   2.771   1.703   0.652 -1.0088 -0.5350 -0.8005
 4539TIP3   OH235031   1.528   6.571  14.551  0.3580  0.1498  0.3731
 4539TIP3    H135032   1.535   6.478  14.530 -2.4196 -0.4234  1.5809
 4539TIP3    H235033   1.593   6.585  14.620  2.5818 -0.2188 -1.5325
 4540TIP3   OH235034   4.823   1.102   1.475 -0.1053  0.3610 -0.8499
 4540TIP3    H135035   4.784   1.044   1.540  0.6231  1.3544  0.5333
 4540TIP3    H235036   4.846   1.045   1.402  2.9201 -1.6718  1.4244
 4541TIP3   OH235037   3.514   1.807   4.339 -0.0594 -0.0904 -0.3457
 4541TIP3    H135038   3.427   1.830   4.306 -0.3661 -0.6197  0.0863
 4541TIP3    H235039   3.529   1.718   4.307  0.1609 -0.1449 -0.0943
 4542TIP3   OH235040   3.074   4.680  12.768  0.5701  0.3212  0.1342
 4542TIP3    H135041   3.060   4.760  12.819 -2.7305 -0.7281  1.1346
 4542TIP3    H235042   3.166   4.658  12.784  0.6140  1.9404  2.8263
 4543TIP3   OH235043   0.943   3.789   1.845  0.0556  0.0816 -0.2526
 4543TIP3    H135044   0.975   3.737   1.919 -1.1770  1.2086  1.1272
 4543TIP3    H235045   0.905   3.725   1.785  1.0909 -0.8525  0.0401
 4544TIP3   OH235046   0.874   4.195  14.155 -0.2635  0.5637  0.4583
 4544TIP3    H135047   0.934   4.243  14.099  0.4833 -2.1733 -1.2519
 4544TIP3    H235048   0.922   4.183  14.237 -0.1294  1.8844  0.5972
 4545TIP3   OH235049   6.148   4.710  17.068  0.0734  0.4167  0.4149
 4545TIP3    H135050   6.207   4.640  17.097  0.8517 -0.0295 -2.0478
 4545TIP3    H235051   6.068   4.665  17.043 -0.1866  0.6719  0.7714
 4546TIP3   OH235052   3.992   3.525   6.528 -0.2335  0.3365 -0.4538
 4546TIP3    H135053   4.043   3.493   6.602 -0.4418  2.0720  0.4928
 4546TIP3    H235054   4.044   3.504   6.451 -0.0790 -1.6398  0.1311
 4547TIP3   OH235055   6.539   1.697   5.378  0.4423  0.1358 -0.2578
 4547TIP3    H135056   6.504   1.773   5.330 -1.8306 -0.0473  0.9855
 4547TIP3    H235057   6.464   1.660   5.423  1.4883 -2.8574 -0.7299
 4548TIP3   OH235058   2.697   4.659   0.796  0.1405  0.0693  0.4035
 4548TIP3    H135059   2.635   4.596   0.833 -0.8085 -0.0781 -1.3356
 4548TIP3    H235060   2.712   4.628   0.707  0.6694  1.5806 -0.0585
 4549TIP3   OH235061   3.733   4.450  11.087 -0.5187 -0.8045 -0.3458
 4549TIP3    H135062   3.677   4.380  11.123  0.6011 -1.2974  0.4926
 4549TIP3    H235063   3.707   4.528  11.135 -0.0245 -1.1746  0.5541
 4550TIP3   OH235064   4.653   4.559  14.918 -0.3627 -0.7563 -0.0038
 4550TIP3    H135065   4.587   4.613  14.961  0.4033 -0.1312  0.3902
 4550TIP3    H235066   4.606   4.478  14.897 -0.9383 -0.7973  1.3388
 4551TIP3   OH235067   1.422   1.538   0.287 -0.3561 -0.2841 -0.2360
 4551TIP3    H135068   1.328   1.557   0.293 -0.1844  0.5322 -0.0446
 4551TIP3    H235069   1.440   1.543   0.193 -0.7170 -1.5451 -0.3883
 4552TIP3   OH235070   2.455   5.536  14.899 -0.0918 -0.0586 -0.0951
 4552TIP3    H135071   2.373   5.560  14.855 -0.7666 -1.3785  0.4036
 4552TIP3    H235072   2.519   5.531  14.828 -0.7325 -0.2733 -0.6722
 4553TIP3   OH235073   3.586   0.743   1.360 -0.5106 -0.7417  0.1119
 4553TIP3    H135074   3.491   0.733   1.365 -0.5379 -0.6993 -0.3171
 4553TIP3    H235075   3.613   0.684   1.289 -0.2347 -0.6342  0.1251
 4554TIP3   OH235076   6.324   3.892  11.223  0.5786  0.2138  0.0743
 4554TIP3    H135077   6.342   3.885  11.316  0.3461  0.5444  0.1472
 4554TIP3    H235078   6.233   3.921  11.218 -0.2223 -2.1505 -0.2926
 4555TIP3   OH235079   2.097   3.025  13.304 -0.4560  0.0324  0.0793
 4555TIP3    H135080   2.079   2.991  13.392 -0.1021  0.4974  0.3358
 4555TIP3    H235081   2.017   3.073  13.280 -0.1849  0.7212  0.5461
 4556TIP3   OH235082   5.815   2.757  12.536 -0.1329 -0.4778 -0.2555
 4556TIP3    H135083   5.742   2.725  12.482 -0.6627  0.6376 -0.2180
 4556TIP3    H235084   5.790   2.732  12.626 -0.1183 -0.7227 -0.3166
 4557TIP3   OH235085   3.523   6.517  16.906 -0.3607  0.2209 -0.4069
 4557TIP3    H135086   3.609   6.553  16.884 -0.0543 -0.8122 -0.9609
 4557TIP3    H235087   3.542   6.433  16.946 -1.0395  0.8478  1.3412
 4558TIP3   OH235088   5.484   3.055   3.019  0.3447 -0.6658 -0.2382
 4558TIP3    H135089   5.561   3.105   2.992  0.1864  0.2496  0.9727
 4558TIP3    H235090   5.410   3.109   2.993  0.1698 -0.3755  0.8167
 4559TIP3   OH235091   1.114   0.508  14.527  0.1896  0.0514  0.0333
 4559TIP3    H135092   1.123   0.563  14.450 -0.7166 -1.3287 -1.0998
 4559TIP3    H235093   1.134   0.419  14.497 -1.3450 -0.6967  1.0817
 4560TIP3   OH235094   3.532   0.788  13.719  0.3467 -0.1994 -0.1284
 4560TIP3    H135095   3.565   0.826  13.799  0.7951 -0.8709  0.0166
 4560TIP3    H235096   3.594   0.815  13.651 -0.4879  1.0751 -0.4287
 4561TIP3   OH235097   0.010   0.537  12.901 -0.2173  1.1047  0.3095
 4561TIP3    H135098  -0.003   0.517  12.808 -3.4030 -0.1251  0.8974
 4561TIP3    H235099   0.040   0.455  12.939 -0.8378  1.0270  0.6491
 4562TIP3   OH235100   0.474   5.635   1.975  0.3002 -0.1490  0.8197
 4562TIP3    H135101   0.380   5.632   1.992  0.2888  0.9511  1.0332
 4562TIP3    H235102   0.513   5.580   2.043 -0.2768 -1.9643 -0.2442
 4563TIP3   OH235103   3.550   3.448  13.877  0.3840 -0.5725 -0.0973
 4563TIP3    H135104   3.479   3.497  13.918  1.3177 -0.0225  0.9163
 4563TIP3    H235105   3.583   3.506  13.808 -0.9207 -1.3304 -1.4019
 4564TIP3   OH235106   3.345   6.467   5.684  0.2062 -0.1223  0.3699
 4564TIP3    H135107   3.253   6.494   5.693  0.4248  0.3426  1.2880
 4564TIP3    H235108   3.368   6.433   5.770  0.6814 -0.9429 -0.0732
 4565TIP3   OH235109   1.597   5.868  12.398  0.9071  0.3288  0.8589
 4565TIP3    H135110   1.550   5.790  12.427  1.1412  0.3967  1.4356
 4565TIP3    H235111   1.565   5.884  12.309 -0.1784  0.3956  1.2521
 4566TIP3   OH235112   5.227   1.238  14.255  0.0855  0.7748  0.2716
 4566TIP3    H135113   5.171   1.232  14.177 -0.7434  0.0320  0.9119
 4566TIP3    H235114   5.185   1.305  14.309  1.1905  1.9976 -0.3094
 4567TIP3   OH235115   2.845   1.739  16.817  0.2394  0.3716  0.2901
 4567TIP3    H135116   2.868   1.673  16.752 -0.5901 -0.4261  0.7847
 4567TIP3    H235117   2.862   1.823  16.773 -1.0858 -0.1235 -1.2451
 4568TIP3   OH235118   0.003   1.541  15.877 -0.7303 -0.4018  0.4377
 4568TIP3    H135119   0.056   1.528  15.956  1.2386  0.1983 -0.7067
 4568TIP3    H235120   0.034   1.473  15.817 -2.1044 -0.7670  0.1196
 4569TIP3   OH235121   4.952   2.872  11.348 -0.2442  0.3803 -0.6999
 4569TIP3    H135122   4.962   2.779  11.369  0.5450  0.3792 -1.0549
 4569TIP3    H235123   5.032   2.912  11.381 -2.1058  1.5960  2.9333
 4570TIP3   OH235124   0.713   5.051   4.024 -0.3761 -0.7383 -0.4296
 4570TIP3    H135125   0.659   5.007   4.091  1.6076 -0.6226  1.3580
 4570TIP3    H235126   0.798   5.008   4.030 -0.1473 -0.8183 -3.0727
 4571TIP3   OH235127   3.116   2.157  16.044 -0.0092 -0.0375  0.9173
 4571TIP3    H135128   3.048   2.143  15.978 -0.9009 -2.4369  2.2394
 4571TIP3    H235129   3.087   2.235  16.091 -0.2148  0.7394 -0.4401
 4572TIP3   OH235130   3.964   1.293  16.407  0.3212 -0.0057 -0.4811
 4572TIP3    H135131   3.930   1.217  16.454  0.7631 -0.3071 -0.6449
 4572TIP3    H235132   4.050   1.266  16.376 -0.2168 -0.0825 -2.0482
 4573TIP3   OH235133   2.715   2.278  15.318  0.2165 -0.5402  0.5119
 4573TIP3    H135134   2.726   2.184  15.301 -2.5074 -1.0496  1.1808
 4573TIP3    H235135   2.626   2.297  15.291  1.5887  2.6341 -2.6382
 4574TIP3   OH235136   5.588   2.437  12.593  0.5065 -0.1274 -0.1506
 4574TIP3    H135137   5.546   2.379  12.656  1.8193  0.6220  1.4757
 4574TIP3    H235138   5.523   2.505  12.575 -0.3909 -1.1053 -0.7365
 4575TIP3   OH235139   6.256   3.097   4.519 -0.5220 -0.0384  0.2763
 4575TIP3    H135140   6.255   3.013   4.473 -1.4403  1.0610 -1.9181
 4575TIP3    H235141   6.346   3.127   4.513 -0.4605 -0.2898 -0.1222
 4576TIP3   OH235142   4.483   4.904  11.188 -0.0785  0.1950  0.1044
 4576TIP3    H135143   4.447   4.992  11.200 -1.2704 -0.3087  0.4403
 4576TIP3    H235144   4.526   4.884  11.271 -1.0436 -0.0608  0.5660
 4577TIP3   OH235145   0.570   4.946  12.282 -0.1143  0.0469  0.7418
 4577TIP3    H135146   0.651   4.956  12.332 -0.0204  0.2397  0.5522
 4577TIP3    H235147   0.582   5.002  12.206  0.0787 -0.8684  0.0845
 4578TIP3   OH235148   0.992   6.278   1.479  0.1913 -0.1012 -0.4943
 4578TIP3    H135149   0.920   6.223   1.447  0.8739 -1.2073 -0.2152
 4578TIP3    H235150   1.061   6.267   1.414  0.4943  0.0743 -0.2028
 4579TIP3   OH235151   5.755   1.323   4.173  0.0814 -0.2388  0.1361
 4579TIP3    H135152   5.717   1.281   4.250  0.5679 -2.3451 -0.6847
 4579TIP3    H235153   5.849   1.320   4.188  0.1568 -0.2397 -0.3105
 4580TIP3   OH235154   4.138   3.771  16.592  0.0589 -0.5395  0.5838
 4580TIP3    H135155   4.181   3.838  16.645  0.0157 -0.1112  0.0788
 4580TIP3    H235156   4.104   3.709  16.656  0.0603 -0.0594  1.0573
 4581TIP3   OH235157   1.502   5.178  13.641 -0.1985 -0.1901  0.0951
 4581TIP3    H135158   1.514   5.085  13.623  0.8440  0.1100 -0.8156
 4581TIP3    H235159   1.570   5.199  13.706 -0.7901 -0.1733  0.7255
 4582TIP3   OH235160   5.763   0.646  13.502  0.1647  0.0849  0.2459
 4582TIP3    H135161   5.687   0.691  13.537  0.2249  0.0646  0.3997
 4582TIP3    H235162   5.833   0.711  13.503  0.8409 -0.5938  2.4781
 4583TIP3   OH235163   1.287   0.718   5.257 -0.4474  1.0827  0.1312
 4583TIP3    H135164   1.338   0.739   5.179 -0.8890 -0.4225 -0.5948
 4583TIP3    H235165   1.344   0.660   5.307 -1.7512 -1.5359 -1.2194
 4584TIP3   OH235166   6.766   3.748  11.263  0.1943 -0.1893  0.0329
 4584TIP3    H135167   6.809   3.718  11.183  1.4159 -1.2449  1.0230
 4584TIP3    H235168   6.816   3.706  11.333 -2.4755 -1.4831  1.2887
 4585TIP3   OH235169   6.265   4.282  11.087  0.4073 -1.0137  0.4225
 4585TIP3    H135170   6.343   4.268  11.141  1.6391 -2.8586 -1.6613
 4585TIP3    H235171   6.242   4.195  11.054 -0.9517 -0.1526 -1.0859
 4586TIP3   OH235172   2.040   0.109   1.390 -0.6505  0.5605  0.0050
 4586TIP3    H135173   1.986   0.182   1.359 -0.6056  1.0271  0.9913
 4586TIP3    H235174   2.129   0.143   1.392 -0.3570 -0.0719 -1.1859
 4587TIP3   OH235175   3.159   5.761  12.583 -0.4574 -0.0138  0.7787
 4587TIP3    H135176   3.129   5.852  12.582 -0.9666 -0.1412 -1.2789
 4587TIP3    H235177   3.090   5.713  12.629 -0.4046  0.5676  1.4685
 4588TIP3   OH235178   0.531   0.282  16.124  0.3554 -0.0838 -0.2889
 4588TIP3    H135179   0.604   0.329  16.163  1.2743 -1.1687 -0.6651
 4588TIP3    H235180   0.570   0.204  16.084 -0.8678 -0.2026 -1.3334
 4589TIP3   OH235181   2.716   5.129  11.613  0.5183  0.5239  0.3592
 4589TIP3    H135182   2.651   5.058  11.609  1.3063 -0.2592  1.0788
 4589TIP3    H235183   2.692   5.179  11.690 -1.4055  2.4640 -1.3477
 4590TIP3   OH235184   4.093   2.408  15.979 -0.3578 -0.0901  0.0352
 4590TIP3    H135185   4.138   2.486  15.945  1.7059 -0.4887  1.6543
 4590TIP3    H235186   4.060   2.435  16.065 -1.9772 -0.2650 -0.5027
 4591TIP3   OH235187   3.092   5.804   1.513 -0.2273  0.8691 -0.1056
 4591TIP3    H135188   3.056   5.834   1.596  1.2164  1.7598  0.2334
 4591TIP3    H235189   3.101   5.709   1.523 -0.7742  0.8694  0.4566
 4592TIP3   OH235190   5.397   3.824  13.664  0.9097  0.0140  0.5380
 4592TIP3    H135191   5.313   3.854  13.628  0.7834 -1.3015 -0.3542
 4592TIP3    H235192   5.417   3.745  13.614  1.0412 -1.6085  2.9540
 4593TIP3   OH235193   4.054   5.119   5.257  0.3510 -0.2166 -0.1374
 4593TIP3    H135194   4.118   5.086   5.320  0.9198  1.8487  0.4569
 4593TIP3    H235195   3.974   5.071   5.277  0.5953  0.1626  2.0135
 4594TIP3   OH235196   3.280   4.434   4.097  0.1758  0.4765  0.1285
 4594TIP3    H135197   3.187   4.451   4.112  0.1576 -0.2908  0.9201
 4594TIP3    H235198   3.305   4.499   4.031 -1.4940 -0.8655 -1.9489
 4595TIP3   OH235199   4.053   1.252   1.652  0.2978  0.1128  0.2428
 4595TIP3    H135200   3.986   1.207   1.601 -1.1398  1.6120  0.7280
 4595TIP3    H235201   4.025   1.243   1.743  1.1337  0.1542  0.5096
 4596TIP3   OH235202   6.142   5.695   5.368 -0.5173 -0.4372  0.4525
 4596TIP3    H135203   6.098   5.671   5.287  2.4919  0.4201 -1.6379
 4596TIP3    H235204   6.180   5.613   5.400  0.3314 -0.4131 -0.4294
 4597TIP3   OH235205   0.961   3.940  15.719 -0.2971 -0.0518 -0.2964
 4597TIP3    H135206   0.894   4.008  15.718 -1.1903 -0.9059 -2.2411
 4597TIP3    H235207   1.044   3.988  15.722 -0.7545  1.0744  4.7751
 4598TIP3   OH235208   2.362   1.390  13.404  0.5330 -0.5632 -0.5197
 4598TIP3    H135209   2.321   1.357  13.324  0.7324 -0.7343 -0.5523
 4598TIP3    H235210   2.290   1.395  13.468  0.7654 -2.5329 -0.0512
 4599TIP3   OH235211   6.437   0.775  14.115  0.2281 -0.5754  0.5017
 4599TIP3    H135212   6.396   0.821  14.188  2.2132 -0.6111  1.6916
 4599TIP3    H235213   6.366   0.722  14.078 -0.9276 -0.2110  2.0907
 4600TIP3   OH235214   5.339   4.894  12.397 -0.4537  0.0229  0.3337
 4600TIP3    H135215   5.391   4.935  12.328  0.7213 -0.0729  1.1342
 4600TIP3    H235216   5.270   4.846  12.350  0.4494 -0.2308 -0.7766
 4601TIP3   OH235217   3.486   0.942  15.038 -0.5671 -0.6130 -0.3656
 4601TIP3    H135218   3.440   0.919  14.958 -1.8422 -0.6697  0.3464
 4601TIP3    H235219   3.477   1.037  15.044 -0.8510 -0.6521 -0.0938
 4602TIP3   OH235220   5.964   0.273   0.483  0.6158  0.1025  0.0625
 4602TIP3    H135221   5.975   0.253   0.390  1.0267 -0.0760  0.1497
 4602TIP3    H235222   6.017   0.208   0.529 -0.8278 -0.8057  0.5057
 4603TIP3   OH235223   4.801   3.882   4.295  0.2920  0.1983  0.2289
 4603TIP3    H135224   4.842   3.907   4.378 -0.3477 -0.6170  0.8191
 4603TIP3    H235225   4.866   3.826   4.252  0.3179 -0.0371  0.5654
 4604TIP3   OH235226   0.851   3.089  13.201  0.1001  0.4714 -0.0755
 4604TIP3    H135227   0.862   3.069  13.294  2.2651  0.6308 -0.2530
 4604TIP3    H235228   0.773   3.144  13.198 -0.4256 -0.1069  1.5457
 4605TIP3   OH235229   5.271   2.513   2.878 -0.6727  0.3514 -0.2529
 4605TIP3    H135230   5.269   2.420   2.857 -0.8672  0.5005 -0.8991
 4605TIP3    H235231   5.361   2.539   2.863  0.0157 -0.2701  2.3439
 4606TIP3   OH235232   4.754   3.057   1.864 -0.1855 -0.0953 -0.5241
 4606TIP3    H135233   4.735   3.057   1.958  2.1697 -0.9108  0.0133
 4606TIP3    H235234   4.785   3.146   1.846  2.0748 -0.6846  0.1503
 4607TIP3   OH235235   2.181   4.599  14.060  0.2593 -0.1012  0.1071
 4607TIP3    H135236   2.117   4.616  13.992  0.4623 -1.9738 -0.5986
 4607TIP3    H235237   2.130   4.568  14.135  0.1517  0.6949  0.3700
 4608TIP3   OH235238   2.681   6.274  14.669 -0.1046 -0.3359 -0.1479
 4608TIP3    H135239   2.620   6.236  14.733 -2.6923  0.5169 -1.9154
 4608TIP3    H235240   2.653   6.237  14.585  1.9601  0.0111 -1.0470
 4609TIP3   OH235241   0.062   0.396   1.161 -0.1127 -0.7317 -0.2944
 4609TIP3    H135242   0.123   0.469   1.148 -3.7703  3.0138  1.2936
 4609TIP3    H235243   0.094   0.352   1.239  0.5490  1.2321  0.6204
 4610TIP3   OH235244   5.210   5.518  16.492  0.3449 -0.6062  0.2647
 4610TIP3    H135245   5.120   5.538  16.518 -0.1044 -1.4641 -0.6136
 4610TIP3    H235246   5.260   5.528  16.573 -0.3213  1.0922  0.5137
 4611TIP3   OH235247   3.350   6.368  13.335  0.1038  0.1337 -0.1680
 4611TIP3    H135248   3.315   6.279  13.344  1.0863 -0.2619 -0.1745
 4611TIP3    H235249   3.390   6.369  13.248  1.6109  0.0253  0.4948
 4612TIP3   OH235250   0.414   1.083  15.246 -0.4097  0.1015 -0.3479
 4612TIP3    H135251   0.355   1.076  15.171  0.0389  0.2837 -0.7195
 4612TIP3    H235252   0.406   0.998  15.291 -1.7129  0.4716  0.1855
 4613TIP3   OH235253   0.143   0.315   1.753 -0.2253 -0.9092  0.0324
 4613TIP3    H135254   0.074   0.256   1.723  0.0584 -2.0654  1.5599
 4613TIP3    H235255   0.141   0.309   1.848  0.0111  1.3569  0.2371
 4614TIP3   OH235256   3.033   4.967   0.906  0.2186  0.6794 -0.0124
 4614TIP3    H135257   2.962   5.026   0.880  0.4178  0.5531 -0.8726
 4614TIP3    H235258   3.005   4.931   0.991  0.0833  1.9751  0.5091
 4615TIP3   OH235259   5.599   4.665  15.320  0.1319 -0.0473  0.3362
 4615TIP3    H135260   5.522   4.718  15.300 -0.7916 -1.4941 -0.1722
 4615TIP3    H235261   5.653   4.720  15.376 -1.0062  1.2189  0.2336
 4616TIP3   OH235262   1.386   6.494  11.648 -0.2335  0.6432 -0.2845
 4616TIP3    H135263   1.320   6.440  11.605  0.5221  0.0296 -0.7032
 4616TIP3    H235264   1.338   6.571  11.679 -1.1097  0.2795 -0.7098
 4617TIP3   OH235265   5.653   4.188  15.787  0.2270 -0.6403  0.3536
 4617TIP3    H135266   5.568   4.217  15.754  1.1161 -0.2814 -1.7701
 4617TIP3    H235267   5.686   4.128  15.720  3.0652  1.7733 -0.6549
 4618TIP3   OH235268   6.169   4.931  12.452  0.7097  0.1708  0.2269
 4618TIP3    H135269   6.256   4.954  12.421  0.1338  0.4514 -1.2557
 4618TIP3    H235270   6.183   4.855  12.509  1.6989 -1.1919 -1.7278
 4619TIP3   OH235271   6.728   4.889   4.850 -0.7816  0.0683  0.1074
 4619TIP3    H135272   6.715   4.816   4.911 -2.4876 -2.4374 -2.9237
 4619TIP3    H235273   6.644   4.934   4.849 -0.8451 -0.0591 -0.5311
 4620TIP3   OH235274   3.274   0.532  12.978  0.2937  0.1837 -0.1851
 4620TIP3    H135275   3.246   0.515  12.888  0.2116  1.1864 -0.3668
 4620TIP3    H235276   3.200   0.505  13.032 -1.6836  3.8553 -0.7153
 4621TIP3   OH235277   5.534   2.636  16.678  0.5763  0.0026 -0.2734
 4621TIP3    H135278   5.449   2.617  16.717 -0.8882  0.9832 -2.7166
 4621TIP3    H235279   5.565   2.552  16.644 -0.2152 -0.0938 -0.7773
 4622TIP3   OH235280   5.806   3.760   2.471  0.0920  0.7318 -0.2380
 4622TIP3    H135281   5.887   3.809   2.453 -0.0677  1.4852  0.9307
 4622TIP3    H235282   5.748   3.782   2.399  0.1185  2.0824  0.1287
 4623TIP3   OH235283   3.182   4.962   1.479  0.5535  0.0830  0.4853
 4623TIP3    H135284   3.102   4.963   1.532 -0.9516 -2.0824 -1.5039
 4623TIP3    H235285   3.196   4.869   1.460  2.8281  0.5301 -0.3194
 4624TIP3   OH235286   6.638   3.109  13.103 -0.0571  0.0365 -0.3220
 4624TIP3    H135287   6.612   3.064  13.184 -1.2300  0.7775 -0.2597
 4624TIP3    H235288   6.586   3.189  13.102  0.5430  0.4422 -1.4159
 4625TIP3   OH235289   2.512   3.713  13.024  0.0686  0.3050  0.3367
 4625TIP3    H135290   2.573   3.780  13.056 -0.8985  0.9743  0.8230
 4625TIP3    H235291   2.465   3.756  12.953 -0.0636 -0.0985  0.1825
 4626TIP3   OH235292   4.285   0.002   4.123 -0.0087  0.0822 -0.0292
 4626TIP3    H135293   4.221  -0.064   4.151  1.8861 -1.5624  0.6622
 4626TIP3    H235294   4.358  -0.049   4.087  1.6415  1.7839  0.7437
 4627TIP3   OH235295   0.426   6.549  12.822 -0.0895  0.4627 -0.5219
 4627TIP3    H135296   0.474   6.499  12.887 -1.2565  0.0095  0.0164
 4627TIP3    H235297   0.389   6.622  12.871 -2.0059 -0.5555 -0.3873
 4628TIP3   OH235298   0.580   4.110  12.243  0.2967  0.0020  0.0201
 4628TIP3    H135299   0.502   4.163  12.258  0.1137 -0.4416  0.6914
 4628TIP3    H235300   0.615   4.141  12.160 -1.3073 -0.6477 -0.9355
 4629TIP3   OH235301   0.036   0.866  13.858  0.0434 -0.3559 -0.2252
 4629TIP3    H135302   0.118   0.916  13.865  0.1220 -0.7061  2.1603
 4629TIP3    H235303  -0.032   0.932  13.861  0.2016 -0.2097  0.2517
 4630TIP3   OH235304   6.558   5.379   2.182 -0.8722 -0.2927  0.0155
 4630TIP3    H135305   6.503   5.307   2.154 -3.0698  1.7049 -1.2037
 4630TIP3    H235306   6.532   5.453   2.127  0.9735  1.5621  1.4213
 4631TIP3   OH235307   2.137   5.902  13.997  0.1463  0.2043  0.3704
 4631TIP3    H135308   2.224   5.925  14.031 -0.0155  0.6020  0.5229
 4631TIP3    H235309   2.110   5.826  14.048  0.3509  0.1583  0.4093
 4632TIP3   OH235310   5.825   1.039  14.986 -0.5395  0.6123  0.3502
 4632TIP3    H135311   5.801   1.091  15.063  1.5729  0.6623  1.0305
 4632TIP3    H235312   5.783   1.085  14.913 -0.5706  1.9917  1.1935
 4633TIP3   OH235313   0.260   0.192  12.310  0.5741  0.2006 -0.0321
 4633TIP3    H135314   0.272   0.238  12.394 -0.7063  0.7237 -0.1024
 4633TIP3    H235315   0.169   0.160  12.314  0.8218 -0.6187 -0.8180
 4634TIP3   OH235316   0.258   5.859   6.186  0.6768 -0.0565 -0.5063
 4634TIP3    H135317   0.247   5.919   6.261  1.1080 -1.1048  0.4317
 4634TIP3    H235318   0.351   5.866   6.164  0.0794  2.3104 -2.7971
 4635TIP3   OH235319   5.206   3.622   2.884 -0.7865  0.8537 -0.5231
 4635TIP3    H135320   5.166   3.681   2.947 -1.1480 -0.0305  0.0906
 4635TIP3    H235321   5.298   3.618   2.909 -0.7798  1.0727 -0.5097
 4636TIP3   OH235322   2.447   5.967  12.168  0.1873 -0.2620 -0.3940
 4636TIP3    H135323   2.415   6.057  12.173  1.1429  0.0671  0.1397
 4636TIP3    H235324   2.534   5.970  12.209 -0.8091 -1.9404  2.0576
 4637TIP3   OH235325   5.378   5.988  17.169  0.2632 -0.3357 -0.2322
 4637TIP3    H135326   5.363   6.024  17.082  0.9776  1.8240  0.4762
 4637TIP3    H235327   5.291   5.972  17.204 -0.0767  0.5574 -0.6552
 4638TIP3   OH235328   4.639   1.583  11.978  0.5829 -0.3802  0.1924
 4638TIP3    H135329   4.570   1.567  12.042 -0.9088  0.8187 -0.9991
 4638TIP3    H235330   4.720   1.560  12.022 -0.1523  2.1253  3.1944
 4639TIP3   OH235331   5.907   4.587  14.923  0.1397 -0.4761  0.1008
 4639TIP3    H135332   5.918   4.629  14.838  2.1395 -0.0485  0.5177
 4639TIP3    H235333   5.818   4.610  14.950 -0.9611 -1.5431 -2.3205
 4640TIP3   OH235334   2.564   1.535  12.853  0.3342  0.2957 -0.0139
 4640TIP3    H135335   2.564   1.447  12.890  2.0099  0.3810  0.2423
 4640TIP3    H235336   2.515   1.587  12.917 -0.7310 -0.4428 -0.2041
 4641TIP3   OH235337   0.245   2.444  12.782 -0.1432  0.6763  0.5023
 4641TIP3    H135338   0.245   2.491  12.698 -1.0888 -0.4040 -0.1283
 4641TIP3    H235339   0.321   2.387  12.776 -1.2056 -0.7054 -0.4165
 4642TIP3   OH235340   0.405   5.658  12.285  0.0120 -0.3450 -0.6678
 4642TIP3    H135341   0.433   5.602  12.358 -0.1456  1.1145  0.5897
 4642TIP3    H235342   0.334   5.711  12.321 -0.7376 -0.2513 -2.2035
 4643TIP3   OH235343   1.207   3.882   1.766 -0.0837  0.5154 -0.2128
 4643TIP3    H135344   1.180   3.969   1.735  0.4669  0.6419 -0.3472
 4643TIP3    H235345   1.125   3.838   1.787 -0.4401  0.6425 -1.2671
 4644TIP3   OH235346   3.112   5.349   0.846 -0.2960 -0.4068 -0.1317
 4644TIP3    H135347   3.102   5.444   0.838  0.0479 -0.4129 -0.6281
 4644TIP3    H235348   3.089   5.331   0.937  0.8010  0.3144  0.3159
 4645TIP3   OH235349   0.829   0.517  11.132 -0.2062  0.0863 -0.2373
 4645TIP3    H135350   0.868   0.602  11.112  2.6663 -1.0603 -0.0046
 4645TIP3    H235351   0.829   0.470  11.049 -1.9501  0.3260 -0.4054
 4646TIP3   OH235352   6.722   5.238  17.010  0.1043 -0.0511  0.2325
 4646TIP3    H135353   6.769   5.220  16.929 -1.8684 -1.8262 -0.6033
 4646TIP3    H235354   6.671   5.158  17.027 -2.8254  1.8125  0.9004
 4647TIP3   OH235355   1.020   0.816   1.320  0.3885  0.2369  0.4090
 4647TIP3    H135356   1.051   0.727   1.336  2.7644  0.7668 -0.7743
 4647TIP3    H235357   1.094   0.872   1.344 -1.3326  2.0118  1.9475
 4648TIP3   OH235358   4.470   1.485  11.036  0.4159 -0.5772 -0.3187
 4648TIP3    H135359   4.400   1.419  11.043 -0.9442  0.8041 -0.4496
 4648TIP3    H235360   4.454   1.529  10.953  1.8993 -0.6949 -0.6985
 4649TIP3   OH235361   1.023   1.747  15.896 -0.0351 -0.2198  0.5681
 4649TIP3    H135362   1.113   1.780  15.903  1.1284 -2.9945 -0.1617
 4649TIP3    H235363   0.969   1.826  15.902  2.4543  1.6618  0.1729
 4650TIP3   OH235364   2.189   4.426   2.007  0.2354 -0.0699  0.6834
 4650TIP3    H135365   2.224   4.515   2.000 -0.5717  0.1232 -3.1856
 4650TIP3    H235366   2.121   4.433   2.075  1.0052  1.9243  1.3432
 4651TIP3   OH235367   5.598   0.265   6.302 -0.0456  0.3799  0.7709
 4651TIP3    H135368   5.570   0.208   6.374  0.5864 -0.1192  0.6376
 4651TIP3    H235369   5.642   0.205   6.241 -2.4151  0.3839 -1.0941
 4652TIP3   OH235370   6.147   1.742  13.185 -0.0645 -0.2968  0.0678
 4652TIP3    H135371   6.092   1.684  13.132  0.3507 -0.7963  0.1737
 4652TIP3    H235372   6.170   1.813  13.126  0.8362 -1.1156 -0.6071
 4653TIP3   OH235373   5.828   4.750   3.911 -0.2104 -0.0969  0.5111
 4653TIP3    H135374   5.863   4.814   3.974 -1.0016 -0.5926  1.4944
 4653TIP3    H235375   5.901   4.730   3.853  0.2717  1.1019  0.6825
 4654TIP3   OH235376   2.863   4.265  12.227 -0.1640  0.6779 -0.1668
 4654TIP3    H135377   2.886   4.219  12.146 -0.0750  0.8591 -0.2472
 4654TIP3    H235378   2.943   4.262  12.279 -0.1542  0.7503 -0.1777
 4655TIP3   OH235379   3.856   6.032   0.963  0.3996 -0.4444 -0.3766
 4655TIP3    H135380   3.881   5.948   1.002 -0.9591 -0.3860  0.7114
 4655TIP3    H235381   3.776   6.013   0.913 -0.6245  0.3721  0.8630
 4656TIP3   OH235382   0.184   5.420   1.654  0.0241  0.1411  0.5885
 4656TIP3    H135383   0.273   5.442   1.627 -0.9569  1.8702 -1.5243
 4656TIP3    H235384   0.137   5.503   1.654 -1.4165 -0.5848  2.5826
 4657TIP3   OH235385   2.573   3.815  15.610  0.0162  0.2811 -0.1708
 4657TIP3    H135386   2.660   3.825  15.648  0.4107  2.1535 -1.4397
 4657TIP3    H235387   2.588   3.774  15.525 -0.6085 -1.5352  0.5533
 4658TIP3   OH235388   6.020   6.560   0.357  0.3689 -0.4013  0.3911
 4658TIP3    H135389   5.988   6.527   0.441  0.3799 -0.4238  0.3867
 4658TIP3    H235390   5.951   6.617   0.325  0.0142 -1.0258  0.0322
 4659TIP3   OH235391   3.166   1.338   1.358 -0.5507 -0.0861  0.2529
 4659TIP3    H135392   3.177   1.262   1.300  0.6480  0.8466 -0.8093
 4659TIP3    H235393   3.083   1.376   1.331  0.9340  1.5685 -2.4762
 4660TIP3   OH235394   5.150   5.307   1.248 -0.0245  0.9450 -0.1295
 4660TIP3    H135395   5.055   5.295   1.250  0.1295 -0.5426 -0.5788
 4660TIP3    H235396   5.180   5.273   1.332  0.1665  0.9889 -0.1793
 4661TIP3   OH235397   2.262   3.941   1.082  0.3044 -0.0697  0.3138
 4661TIP3    H135398   2.172   3.923   1.108  0.6778 -0.1077  1.6789
 4661TIP3    H235399   2.314   3.919   1.159  1.4617  0.1985 -0.3598
 4662TIP3   OH235400   0.395   2.199   2.941  0.5934  0.0931  0.5271
 4662TIP3    H135401   0.483   2.233   2.955  0.4071  2.5026 -2.9153
 4662TIP3    H235402   0.338   2.266   2.980  0.2566 -0.2246  0.5841
 4663TIP3   OH235403   3.129   2.603   5.671 -0.3829  0.2990  0.4321
 4663TIP3    H135404   3.125   2.686   5.718 -1.8143 -0.6082  2.0081
 4663TIP3    H235405   3.223   2.587   5.658  0.0466  0.7870  2.6302
 4664TIP3   OH235406   0.063   2.035  13.131 -0.6986 -0.3198  0.3034
 4664TIP3    H135407  -0.026   2.009  13.108 -0.8479  0.7293 -0.3774
 4664TIP3    H235408   0.051   2.110  13.190 -0.2936  0.7928 -0.9699
 4665TIP3   OH235409   1.601   1.286  17.040  0.6493  0.0428 -0.4265
 4665TIP3    H135410   1.656   1.237  17.101  1.5759  1.1731 -0.3154
 4665TIP3    H235411   1.517   1.294  17.084  0.4948 -1.3600 -0.4245
 4666TIP3   OH235412   2.817   4.373   5.058 -0.0493 -0.0984  0.9092
 4666TIP3    H135413   2.895   4.343   5.011 -0.8504 -3.8857  1.6437
 4666TIP3    H235414   2.799   4.460   5.023  2.7092 -0.3428 -1.4816
 4667TIP3   OH235415   0.297   4.456  16.369 -0.9577  0.4649 -0.3061
 4667TIP3    H135416   0.221   4.409  16.334 -1.1149 -0.4772  1.1997
 4667TIP3    H235417   0.363   4.389  16.384  0.4645  1.3498 -2.1521
 4668TIP3   OH235418   5.323   4.274   1.009 -0.0466  0.4087  0.1631
 4668TIP3    H135419   5.374   4.311   1.082  0.5186 -1.5464  0.8367
 4668TIP3    H235420   5.262   4.213   1.052  0.1740 -0.6383 -0.9623
 4669TIP3   OH235421   2.070   5.494   1.336  0.6293 -0.0407  0.1795
 4669TIP3    H135422   2.010   5.538   1.397 -0.5776 -1.1931 -0.1325
 4669TIP3    H235423   2.157   5.517   1.368  0.0346  0.0744  1.8460
 4670TIP3   OH235424   1.928   1.435   3.572 -0.1600  0.0723  0.3364
 4670TIP3    H135425   1.934   1.528   3.550  0.9049 -0.0916 -0.1346
 4670TIP3    H235426   1.863   1.430   3.641 -0.1252  1.1882  0.4534
 4671TIP3   OH235427   3.679   4.680   2.748 -0.2457  0.7213  0.1786
 4671TIP3    H135428   3.751   4.704   2.806  0.0129  0.6310 -0.1041
 4671TIP3    H235429   3.650   4.595   2.779  1.0106 -0.1358 -0.8587
 4672TIP3   OH235430   1.968   0.060  16.266  0.3442 -0.6417 -0.2219
 4672TIP3    H135431   1.913   0.096  16.197  0.1706 -1.4748 -0.5322
 4672TIP3    H235432   1.993   0.136  16.320 -1.1680 -0.2650 -0.0243
 4673TIP3   OH235433   4.105   1.809   2.248 -0.2552  0.1651  0.8818
 4673TIP3    H135434   4.190   1.813   2.203 -1.3219 -1.7927 -1.5848
 4673TIP3    H235435   4.054   1.880   2.209 -0.4888 -0.1560  0.5985
 4674TIP3   OH235436   5.722   0.396  14.816  0.1651 -0.3117  0.8561
 4674TIP3    H135437   5.627   0.388  14.809  0.1696  0.6433 -0.8856
 4674TIP3    H235438   5.737   0.438  14.901 -1.1281  1.3314  0.3368
 4675TIP3   OH235439   3.385   6.769   5.852  0.0704  0.2532 -0.5205
 4675TIP3    H135440   3.377   6.768   5.947 -0.0698 -0.2304 -0.5365
 4675TIP3    H235441   3.334   6.845   5.824  1.6322  1.5063 -0.0763
 4676TIP3   OH235442   2.530   1.039   0.212 -0.0453  0.6439 -0.6865
 4676TIP3    H135443   2.569   1.016   0.296  1.7763  2.2868 -1.0286
 4676TIP3    H235444   2.442   1.071   0.234  0.3367  0.8747  0.5648
 4677TIP3   OH235445   1.353   5.899  12.773 -0.0390  0.4073 -0.2333
 4677TIP3    H135446   1.387   5.810  12.780  0.9176  0.6831 -1.2542
 4677TIP3    H235447   1.330   5.909  12.681  0.9592  1.6056 -0.3714
 4678TIP3   OH235448   5.994   1.982   3.312  0.2788  0.4341  0.1160
 4678TIP3    H135449   6.067   2.035   3.342 -2.6589  3.5019  2.6594
 4678TIP3    H235450   5.954   2.033   3.241 -1.2831  0.6214  1.0671
 4679TIP3   OH235451   5.795   0.396  17.080 -0.0646  0.0836 -0.4668
 4679TIP3    H135452   5.736   0.325  17.052  0.8363  0.0051 -2.3242
 4679TIP3    H235453   5.832   0.365  17.162  0.2873 -1.6158 -1.2166
 4680TIP3   OH235454   0.541   2.484  12.948  0.3016  0.0991 -0.1455
 4680TIP3    H135455   0.548   2.389  12.960  1.3229  0.3168  1.1235
 4680TIP3    H235456   0.527   2.495  12.854  1.9453 -1.2250 -0.5834
 4681TIP3   OH235457   2.297   3.076  11.037 -0.8439 -0.0838 -0.7411
 4681TIP3    H135458   2.250   3.119  10.966 -0.1633 -0.4196 -1.4005
 4681TIP3    H235459   2.314   2.988  11.005 -1.2693 -0.5138  0.1757
 4682TIP3   OH235460   5.483   2.977   5.707  0.5989  0.0594 -1.1088
 4682TIP3    H135461   5.462   3.070   5.704 -0.1530 -0.0876 -0.8269
 4682TIP3    H235462   5.471   2.953   5.800 -0.5407 -0.5837 -1.3943
 4683TIP3   OH235463   3.516   6.080   1.144 -0.0930  0.0138  0.0239
 4683TIP3    H135464   3.605   6.112   1.127  0.0943 -0.9804 -0.9370
 4683TIP3    H235465   3.487   6.044   1.061 -1.0637 -0.4894  0.5688
 4684TIP3   OH235466   0.061   5.558  13.532 -0.5760 -0.0732 -0.3149
 4684TIP3    H135467   0.006   5.612  13.475 -1.0375 -0.7348 -0.4990
 4684TIP3    H235468  -0.000   5.503  13.580 -0.0955 -0.5477 -0.2416
 4685TIP3   OH235469   2.901   4.106  15.396  0.4809 -0.5478 -0.4810
 4685TIP3    H135470   2.902   4.201  15.398  1.8206 -0.3647 -3.8254
 4685TIP3    H235471   2.818   4.084  15.354  0.2597 -0.8867  0.1145
 4686TIP3   OH235472   4.875   2.915  14.736 -0.1990  0.1341 -0.2860
 4686TIP3    H135473   4.925   2.994  14.716 -0.2015  0.0762 -0.5221
 4686TIP3    H235474   4.785   2.936  14.714 -0.6840  1.0219  2.2778
 4687TIP3   OH235475   5.000   6.333   3.387 -1.1869 -0.3688  0.2029
 4687TIP3    H135476   5.032   6.250   3.352  0.8562 -0.1200  1.3325
 4687TIP3    H235477   5.038   6.400   3.330 -0.2833 -0.1082  1.0719
 4688TIP3   OH235478   4.696   5.539  16.463 -0.0607 -0.0252 -0.0412
 4688TIP3    H135479   4.649   5.554  16.545  0.6955 -0.3856  0.4781
 4688TIP3    H235480   4.643   5.582  16.396 -0.7149  0.2358  0.6305
 4689TIP3   OH235481   1.445   0.529  14.866 -0.6354  0.3470  0.2191
 4689TIP3    H135482   1.375   0.469  14.892 -1.1640  1.2440  0.9343
 4689TIP3    H235483   1.461   0.508  14.774 -1.9008  0.1760  0.0102
 4690TIP3   OH235484   6.067   2.131   4.772 -0.1166 -0.1307 -0.4664
 4690TIP3    H135485   6.087   2.079   4.849 -0.5613 -0.7293 -0.7521
 4690TIP3    H235486   5.984   2.175   4.792  0.7312  1.2463  0.1572
 4691TIP3   OH235487   5.432   5.955  16.606 -0.1748 -0.0028 -0.4740
 4691TIP3    H135488   5.464   5.945  16.695 -0.6417  1.0782 -0.1720
 4691TIP3    H235489   5.449   6.047  16.585 -2.0054  0.3119 -0.7240
 4692TIP3   OH235490   1.055   1.775   1.724  0.0080  0.4234  0.0283
 4692TIP3    H135491   1.030   1.818   1.806 -0.6390  0.2039 -0.0538
 4692TIP3    H235492   1.111   1.839   1.680  2.2268 -0.2506  1.6151
 4693TIP3   OH235493   0.264   4.098   3.418  0.4634  0.4886  0.2775
 4693TIP3    H135494   0.355   4.121   3.437  0.4873  0.6775 -0.0643
 4693TIP3    H235495   0.213   4.139   3.488  0.7562 -0.7024  1.2160
 4694TIP3   OH235496   3.059   5.904  15.920 -0.4649  0.0809 -0.3377
 4694TIP3    H135497   3.006   5.984  15.918 -1.6600 -0.6064  1.2983
 4694TIP3    H235498   3.148   5.933  15.899 -1.1943  1.5130 -1.6332
 4695TIP3   OH235499   0.713   2.562  12.376 -0.2617  0.1565 -0.0965
 4695TIP3    H135500   0.620   2.551  12.355 -0.1175 -2.0446  0.2394
 4695TIP3    H235501   0.717   2.646  12.421 -1.6939  1.4852 -2.2093
 4696TIP3   OH235502   5.182   4.669   2.423 -0.3349 -0.1410  0.5374
 4696TIP3    H135503   5.130   4.683   2.344 -0.8415  1.8622  1.1628
 4696TIP3    H235504   5.260   4.623   2.392 -0.7154  0.2049 -1.0629
 4697TIP3   OH235505   4.424   5.662   4.740  0.0597 -0.0455  0.2051
 4697TIP3    H135506   4.361   5.714   4.690  0.6374 -0.0030 -0.4982
 4697TIP3    H235507   4.386   5.574   4.742  0.8549 -0.5065 -1.9136
 4698TIP3   OH235508   6.109   2.139   0.794 -0.5062 -0.3887 -0.0092
 4698TIP3    H135509   6.089   2.046   0.806 -0.5516 -0.3566  0.1694
 4698TIP3    H235510   6.027   2.184   0.814 -0.3134 -0.2687  0.5493
 4699TIP3   OH235511   5.680   5.237  16.883 -0.0460 -0.2439 -0.7375
 4699TIP3    H135512   5.681   5.305  16.816  2.0882  0.5673  0.0352
 4699TIP3    H235513   5.770   5.233  16.915 -0.5478 -2.0768  0.6180
 4700TIP3   OH235514   2.109   1.027  11.677  0.5456  0.5179  0.3176
 4700TIP3    H135515   2.167   1.101  11.660 -0.0735  0.9658  0.1295
 4700TIP3    H235516   2.166   0.950  11.674  1.4558  1.0781  1.8539
 4701TIP3   OH235517   1.599   4.910   3.045  0.3656  0.9621 -0.3613
 4701TIP3    H135518   1.537   4.861   2.991  1.2988 -2.6645  1.5844
 4701TIP3    H235519   1.671   4.930   2.986 -0.5019  0.9544 -1.4582
 4702TIP3   OH235520   2.949   5.770   4.870 -0.5551 -0.1457 -0.2682
 4702TIP3    H135521   2.963   5.676   4.860  2.0720  0.0128  0.9566
 4702TIP3    H235522   2.945   5.784   4.965 -1.5687  0.9212 -0.4454
 4703TIP3   OH235523   2.928   2.067  15.856  1.1035 -0.6238 -0.0320
 4703TIP3    H135524   2.933   2.123  15.778  0.0191 -1.2123 -0.5426
 4703TIP3    H235525   2.888   1.986  15.824  1.8832 -1.3841  0.8721
 4704TIP3   OH235526   6.072   2.852  13.040  0.9247  0.4004 -0.1588
 4704TIP3    H135527   6.007   2.890  13.099 -0.1283 -1.4131 -0.0955
 4704TIP3    H235528   6.156   2.869  13.083  0.1249 -2.2071  2.7745
 4705TIP3   OH235529   6.502   0.802   5.037 -0.0699  0.4146 -0.0639
 4705TIP3    H135530   6.457   0.842   5.111 -1.9231 -0.3939 -0.6958
 4705TIP3    H235531   6.489   0.863   4.965 -0.8511 -0.1470 -0.4269
 4706TIP3   OH235532   2.012   6.146   2.752  0.4450 -0.3090  0.1520
 4706TIP3    H135533   1.991   6.239   2.754  1.4715 -0.0694  0.1650
 4706TIP3    H235534   1.938   6.104   2.796 -0.2284  0.4503 -0.2154
 4707TIP3   OH235535   4.563   6.013   0.482  0.1485 -0.5671  0.0801
 4707TIP3    H135536   4.503   5.946   0.514 -0.9651  0.0739 -0.5925
 4707TIP3    H235537   4.634   6.014   0.545  0.0857 -2.2235  0.2186
 4708TIP3   OH235538   2.449   5.760   0.386  0.3269  0.0735 -0.0973
 4708TIP3    H135539   2.531   5.784   0.342 -0.1907  0.3556 -0.9143
 4708TIP3    H235540   2.388   5.743   0.315 -0.2962 -0.2612  0.5124
 4709TIP3   OH235541   5.738   2.426   2.224 -0.2433  0.2821 -0.1557
 4709TIP3    H135542   5.657   2.476   2.211 -0.5427 -0.0168  0.5259
 4709TIP3    H235543   5.742   2.411   2.318  0.1257 -0.5236 -0.2947
 4710TIP3   OH235544   6.091   3.538   4.217 -0.3555 -0.0794 -0.4329
 4710TIP3    H135545   6.077   3.479   4.291  1.3289 -0.0535 -0.0432
 4710TIP3    H235546   6.021   3.604   4.225 -0.4563 -0.3200  0.8853
 4711TIP3   OH235547   5.081   2.587  15.640 -0.0249  0.4852  0.0556
 4711TIP3    H135548   4.998   2.541  15.632  0.5741 -1.0264  1.9151
 4711TIP3    H235549   5.058   2.680  15.635 -1.9028  0.1200  1.2265
 4712TIP3   OH235550   4.397   6.327   4.519 -0.8050  0.0257 -0.0054
 4712TIP3    H135551   4.375   6.420   4.522  0.3596  0.3761 -1.1342
 4712TIP3    H235552   4.492   6.326   4.509 -0.8939 -1.2509 -0.9486
 4713TIP3   OH235553   2.917   2.566  11.475 -0.2017 -0.9456  0.6004
 4713TIP3    H135554   2.905   2.524  11.390 -0.1519  0.5050 -0.1376
 4713TIP3    H235555   3.001   2.611  11.469 -1.0712  0.7837  0.6995
 4714TIP3   OH235556   0.101   0.516   5.709 -0.0173 -0.0380 -0.1203
 4714TIP3    H135557   0.112   0.610   5.725  0.2163 -0.0395 -0.2617
 4714TIP3    H235558   0.011   0.507   5.677 -0.8142 -0.1555  2.0321
 4715TIP3   OH235559   4.912   4.195   4.489  0.5516  0.1271 -0.2085
 4715TIP3    H135560   4.997   4.224   4.522  0.9227  0.4568 -1.4024
 4715TIP3    H235561   4.913   4.100   4.499  1.6965 -0.0309 -1.5991
 4716TIP3   OH235562   5.068   2.105  11.262  0.0083  0.6850 -0.6161
 4716TIP3    H135563   5.069   2.119  11.167  2.7846  2.6356 -0.3926
 4716TIP3    H235564   5.053   2.192  11.299  0.1692  0.1467  0.7636
 4717TIP3   OH235565   2.961   5.176  16.952  0.2223 -0.0900  0.1738
 4717TIP3    H135566   2.895   5.106  16.943 -1.0855  1.0992  0.1132
 4717TIP3    H235567   3.033   5.148  16.897  0.4964 -2.2372  1.5021
 4718TIP3   OH235568   3.006   1.715   1.780 -0.3221 -0.0952 -0.6582
 4718TIP3    H135569   3.054   1.742   1.701 -2.2109  1.6477 -1.3030
 4718TIP3    H235570   3.075   1.697   1.845  1.2610 -1.0030 -2.4894
 4719TIP3   OH235571   5.603   4.974  15.376 -0.5305 -0.4330  0.3030
 4719TIP3    H135572   5.539   5.003  15.311  0.0805  1.2854  0.4017
 4719TIP3    H235573   5.555   4.974  15.459 -0.4115  1.0116  0.4054
 4720TIP3   OH235574   2.219   1.657  14.148  0.5407 -0.8028  0.3821
 4720TIP3    H135575   2.299   1.691  14.189  0.0154  0.4068  0.4340
 4720TIP3    H235576   2.168   1.622  14.221  0.0131  0.5260  0.6893
 4721TIP3   OH235577   2.015   3.313   3.571  0.3272  0.1311  0.0331
 4721TIP3    H135578   2.011   3.263   3.490 -0.8607 -0.1836  0.2703
 4721TIP3    H235579   2.083   3.379   3.555 -0.5047  0.6536 -1.5518
 4722TIP3   OH235580   5.052   1.977  15.570 -0.0099 -0.4695  0.7008
 4722TIP3    H135581   5.075   2.053  15.623 -3.8155  2.5277 -1.4241
 4722TIP3    H235582   4.972   1.942  15.609 -0.6507 -0.6718 -0.7053
 4723TIP3   OH235583   1.919   4.723  11.190  0.0940 -0.1627  0.3906
 4723TIP3    H135584   1.978   4.798  11.194 -0.8192  0.6988 -1.0255
 4723TIP3    H235585   1.848   4.746  11.251  0.1781 -0.1990  0.5007
 4724TIP3   OH235586   4.287   2.121  14.881  0.1649  0.5304 -0.3581
 4724TIP3    H135587   4.356   2.064  14.847 -0.6783 -1.0046  0.4101
 4724TIP3    H235588   4.213   2.105  14.823 -0.1085  0.8071 -0.0867
 4725TIP3   OH235589   1.212   4.865  17.276 -0.0812  0.1191 -0.7057
 4725TIP3    H135590   1.276   4.807  17.318 -0.5056 -0.3391 -0.6845
 4725TIP3    H235591   1.265   4.926  17.225  0.4315  0.6307  0.4252
 4726TIP3   OH235592   3.393   2.515   0.843 -0.3880 -0.2416  0.1078
 4726TIP3    H135593   3.304   2.497   0.813 -1.6321  0.5390  2.9465
 4726TIP3    H235594   3.419   2.437   0.892  0.4561 -0.3827 -0.5267
 4727TIP3   OH235595   3.245   2.383  15.366 -0.1599  0.1147  0.1632
 4727TIP3    H135596   3.235   2.456  15.304  1.0933  1.1827  1.1393
 4727TIP3    H235597   3.160   2.340  15.368 -0.5525  0.7577 -1.4203
 4728TIP3   OH235598   4.773   4.542   4.842 -0.3960 -0.0603  0.1736
 4728TIP3    H135599   4.834   4.469   4.835 -1.3655 -0.7877 -1.5922
 4728TIP3    H235600   4.827   4.616   4.869  1.1976 -0.7681 -0.8772
 4729TIP3   OH235601   6.505   1.143  13.784 -0.4579  0.1614 -0.1975
 4729TIP3    H135602   6.540   1.195  13.711  1.2898 -1.0027 -0.2542
 4729TIP3    H235603   6.446   1.080  13.743 -2.0809  1.6145 -0.1969
 4730TIP3   OH235604   5.402   1.790  14.709  0.7832 -0.2020  0.5123
 4730TIP3    H135605   5.405   1.758  14.800 -0.0875  1.4257  1.1501
 4730TIP3    H235606   5.483   1.841  14.700  1.2852 -1.0616  0.0845
 4731TIP3   OH235607   2.913   1.344   0.676  0.3689 -1.0942 -0.0827
 4731TIP3    H135608   2.890   1.271   0.733  0.9472  0.0865  1.7557
 4731TIP3    H235609   2.870   1.420   0.716  0.6025 -0.2640 -1.3629
 4732TIP3   OH235610   0.288   4.250  11.557 -0.3906  0.3568  0.0102
 4732TIP3    H135611   0.226   4.258  11.485 -0.9557  0.2907  0.4768
 4732TIP3    H235612   0.309   4.156  11.560  0.3253  0.4878 -0.6246
 4733TIP3   OH235613   1.761   0.160   5.624  0.8478  0.2522  0.2257
 4733TIP3    H135614   1.718   0.101   5.685 -1.0602  0.3091 -1.0000
 4733TIP3    H235615   1.849   0.124   5.613 -0.1343 -2.1446 -0.1802
 4734TIP3   OH235616   3.482   1.024  11.443 -0.0060  0.2626 -0.0999
 4734TIP3    H135617   3.522   1.037  11.357 -1.0139  0.0166 -0.6224
 4734TIP3    H235618   3.555   1.030  11.505  0.5691  1.6316 -0.8623
 4735TIP3   OH235619   2.217   2.890  12.639  0.1904 -0.4991  0.1303
 4735TIP3    H135620   2.275   2.942  12.695  1.4067 -1.3909 -0.2593
 4735TIP3    H235621   2.220   2.935  12.554 -1.4674  0.7174  0.6751
 4736TIP3   OH235622   4.483   6.512  13.433  0.2023 -0.3104 -0.6620
 4736TIP3    H135623   4.407   6.525  13.376 -0.4424 -0.0297  0.2316
 4736TIP3    H235624   4.456   6.548  13.517  0.7809 -1.5701  0.0987
 4737TIP3   OH235625   6.559   5.317  15.447  0.0910  0.2207 -0.0584
 4737TIP3    H135626   6.513   5.307  15.364 -0.8359 -0.7061  0.5317
 4737TIP3    H235627   6.498   5.364  15.503  0.0534 -0.5519  0.5731
 4738TIP3   OH235628   1.880   6.005   3.988 -0.3205 -0.3053 -0.4141
 4738TIP3    H135629   1.819   5.935   4.009 -0.7848 -0.6598 -2.6426
 4738TIP3    H235630   1.824   6.080   3.966  0.1612  1.1164  2.6322
 4739TIP3   OH235631   6.348   5.660  15.366 -0.6524  0.5834  0.4368
 4739TIP3    H135632   6.281   5.592  15.366 -1.5071  1.3927 -0.1953
 4739TIP3    H235633   6.405   5.638  15.293 -2.8869  2.3254 -2.0167
 4740TIP3   OH235634   6.575   2.693   4.379  0.3585 -0.0453  0.0472
 4740TIP3    H135635   6.626   2.628   4.330  0.2699  0.0979 -0.2356
 4740TIP3    H235636   6.546   2.646   4.458 -2.0819 -1.2799 -1.4565
 4741TIP3   OH235637   3.174   2.456   1.704  0.0407 -0.4878 -0.1246
 4741TIP3    H135638   3.084   2.434   1.680  0.2218  0.5693 -1.9662
 4741TIP3    H235639   3.228   2.389   1.662  0.1637 -0.6286  0.2566
 4742TIP3   OH235640   4.124   2.269  15.735 -0.4948 -0.3618 -0.7191
 4742TIP3    H135641   4.086   2.317  15.809 -0.3963  0.2260 -1.0451
 4742TIP3    H235642   4.132   2.179  15.767 -0.4607 -0.1182 -0.0158
 4743TIP3   OH235643   1.757   2.959  10.839 -0.1614 -0.2682  0.4470
 4743TIP3    H135644   1.785   3.049  10.825 -0.1411 -0.1040  1.4542
 4743TIP3    H235645   1.661   2.964  10.847 -0.3055 -0.5357 -0.8403
 4744TIP3   OH235646   0.460   5.567   5.385  0.0304 -0.2320 -0.5427
 4744TIP3    H135647   0.516   5.529   5.318 -0.3554  0.2732 -1.1686
 4744TIP3    H235648   0.474   5.513   5.462  2.7094  0.8917 -0.1278
 4745TIP3   OH235649   5.542   2.425   0.326 -0.6775  0.0180  0.0367
 4745TIP3    H135650   5.603   2.406   0.397  0.1223 -0.4006 -0.7397
 4745TIP3    H235651   5.475   2.480   0.366  0.0558  0.2530  0.9762
 4746TIP3   OH235652   6.669   4.745  13.225  0.3097 -0.2444  0.3628
 4746TIP3    H135653   6.714   4.830  13.232 -1.1824  0.6467 -0.2745
 4746TIP3    H235654   6.729   4.691  13.173  0.6790  0.8880 -0.4434
 4747TIP3   OH235655   4.607   4.555  13.916 -0.4102 -0.3057 -0.6065
 4747TIP3    H135656   4.703   4.561  13.916 -0.3543 -1.0104  0.1569
 4747TIP3    H235657   4.580   4.598  13.835  0.5497 -0.0407 -0.7970
 4748TIP3   OH235658   5.469   6.084  13.413  0.3507  0.1402 -0.0875
 4748TIP3    H135659   5.414   6.089  13.491  1.1643  1.8438  0.4163
 4748TIP3    H235660   5.412   6.044  13.347 -1.8913  2.6524  0.1473
 4749TIP3   OH235661   6.119   0.965   6.093 -0.3563  0.0606 -1.0367
 4749TIP3    H135662   6.196   0.961   6.150 -0.4181  1.8348 -0.7833
 4749TIP3    H235663   6.046   0.945   6.151 -0.3236  0.8887 -0.7038
 4750TIP3   OH235664   2.913   6.184  13.951  1.5741 -0.0542 -0.0690
 4750TIP3    H135665   3.006   6.174  13.972  1.5424 -0.2848 -0.0299
 4750TIP3    H235666   2.899   6.278  13.945  2.6238  0.0123 -3.6800
 4751TIP3   OH235667   4.116   5.531   3.633  0.2946  0.2818  0.3852
 4751TIP3    H135668   4.152   5.454   3.677  1.6401  0.4385 -0.3815
 4751TIP3    H235669   4.045   5.560   3.690  1.4503  0.0073  2.0254
 4752TIP3   OH235670   6.463   1.282  12.810  0.2259 -0.0597  0.6333
 4752TIP3    H135671   6.494   1.334  12.884 -0.5053  0.9030  0.2859
 4752TIP3    H235672   6.499   1.327  12.733 -2.5433  1.5477  0.1606
 4753TIP3   OH235673   5.746   1.978  11.004  0.1357  0.6638 -0.4384
 4753TIP3    H135674   5.821   1.935  10.962 -0.5519 -0.1907 -0.8097
 4753TIP3    H235675   5.772   1.986  11.096  1.3686  1.9159 -0.8564
 4754TIP3   OH235676   6.220   5.236   2.897 -0.4347 -0.0005 -0.2027
 4754TIP3    H135677   6.245   5.157   2.849 -0.1981 -0.3276  0.4426
 4754TIP3    H235678   6.139   5.265   2.854 -0.6728 -0.7490 -0.2845
 4755TIP3   OH235679   2.889   1.766   5.572 -0.1827 -0.3790  0.2418
 4755TIP3    H135680   2.974   1.810   5.569 -0.0044 -0.6191  1.3069
 4755TIP3    H235681   2.883   1.720   5.488  0.0037  0.9602 -0.5311
 4756TIP3   OH235682   0.165   4.470  15.406 -0.0364  0.5676 -0.1330
 4756TIP3    H135683   0.083   4.428  15.381 -0.3428 -0.2749  2.1014
 4756TIP3    H235684   0.229   4.399  15.408  0.2544  0.8364  0.2401
 4757TIP3   OH235685   2.217   5.524   0.156 -0.5374 -0.1380  0.0455
 4757TIP3    H135686   2.124   5.533   0.174 -0.6492  0.0068 -0.5910
 4757TIP3    H235687   2.255   5.494   0.239 -1.3001 -1.2238  0.0241
 4758TIP3   OH235688   1.163   6.309   2.178  0.4941 -0.8267 -0.4916
 4758TIP3    H135689   1.076   6.288   2.145  0.6575 -1.5400 -0.4942
 4758TIP3    H235690   1.207   6.224   2.185  0.8093 -0.5914  0.5728
 4759TIP3   OH235691   5.368   0.042  15.182  0.0695 -0.4883 -0.4989
 4759TIP3    H135692   5.278   0.016  15.161 -0.5771 -0.8350  2.3607
 4759TIP3    H235693   5.371   0.135  15.160 -1.8947  0.2072  1.7191
 4760TIP3   OH235694   0.618   4.614   2.770 -0.2416  0.4839 -0.2762
 4760TIP3    H135695   0.654   4.638   2.856 -0.9753  0.4841  0.0411
 4760TIP3    H235696   0.659   4.674   2.709  1.8204 -0.7932 -0.2376
 4761TIP3   OH235697   4.052   4.579  17.010 -0.1366  0.7555 -0.4967
 4761TIP3    H135698   4.059   4.538  16.924  0.9272  0.3870 -0.2502
 4761TIP3    H235699   4.023   4.669  16.991 -0.3747  0.5373 -1.2001
 4762TIP3   OH235700   2.491   2.451   4.435 -0.5106  0.0053  0.5956
 4762TIP3    H135701   2.456   2.424   4.520  1.0552 -1.5118  0.8043
 4762TIP3    H235702   2.556   2.385   4.413 -0.9764  0.2715 -1.8936
 4763TIP3   OH235703   3.651   2.852  12.160 -0.1409  0.1457 -0.7176
 4763TIP3    H135704   3.580   2.885  12.106 -0.9579 -0.3597  0.0200
 4763TIP3    H235705   3.612   2.842  12.247  0.5296 -1.1680 -0.5449
 4764TIP3   OH235706   2.961   1.164   2.150  0.1056 -0.0028 -0.4311
 4764TIP3    H135707   3.008   1.122   2.222  1.8049  1.3963 -0.6512
 4764TIP3    H235708   2.905   1.229   2.192 -0.3715 -0.5059 -0.2745
 4765TIP3   OH235709   6.462   3.449   1.554 -0.3564 -0.1126 -0.4310
 4765TIP3    H135710   6.551   3.425   1.576 -0.9432  0.0547  2.5022
 4765TIP3    H235711   6.466   3.543   1.536 -0.0204  0.0135  0.2902
 4766TIP3   OH235712   0.186   3.445  16.661  0.4520 -0.2871 -0.0461
 4766TIP3    H135713   0.172   3.520  16.719 -0.6320 -0.6543  0.1893
 4766TIP3    H235714   0.223   3.484  16.581  2.2766  0.1780  0.9717
 4767TIP3   OH235715   4.571   3.714   4.355  0.2270  0.4456 -0.0742
 4767TIP3    H135716   4.637   3.781   4.337  1.4863 -0.7333  0.0310
 4767TIP3    H235717   4.576   3.655   4.280  1.0161 -0.9778  1.0497
 4768TIP3   OH235718   4.493   4.938   4.162  0.2325  0.6633 -0.1670
 4768TIP3    H135719   4.439   4.958   4.239  0.0992 -1.0587  0.2322
 4768TIP3    H235720   4.583   4.949   4.192  0.1558  1.4557 -0.2111
 4769TIP3   OH235721   3.160   3.912   0.419 -0.1950  0.1803 -0.3779
 4769TIP3    H135722   3.138   3.841   0.358  1.7508  0.8131 -1.9158
 4769TIP3    H235723   3.220   3.872   0.482 -1.3646 -0.2100  0.5164
 4770TIP3   OH235724   2.379   1.153  14.487  0.1949  0.1322  0.8074
 4770TIP3    H135725   2.421   1.226  14.442 -0.9790  2.2028  2.8310
 4770TIP3    H235726   2.417   1.075  14.448 -0.0249  1.7141 -3.0199
 4771TIP3   OH235727   4.800   6.358  13.915  0.6284 -0.7131  0.3596
 4771TIP3    H135728   4.788   6.419  13.842  1.0832  1.7889  2.2112
 4771TIP3    H235729   4.712   6.330  13.938  0.5029 -1.7742 -1.2688
 4772TIP3   OH235730   3.144   5.542  11.645 -0.6806  0.4663 -0.1498
 4772TIP3    H135731   3.237   5.531  11.624 -0.1262 -0.0573  2.2487
 4772TIP3    H235732   3.108   5.454  11.644 -0.6841  0.4478  0.7584
 4773TIP3   OH235733   5.554   1.557  12.748  0.0540  0.0840  0.3584
 4773TIP3    H135734   5.477   1.597  12.709  0.9868  0.6571 -1.0034
 4773TIP3    H235735   5.535   1.463  12.749  0.0763 -0.0083 -1.8594
 4774TIP3   OH235736   4.589   2.007   3.311  0.0720  0.6143 -0.1114
 4774TIP3    H135737   4.620   2.054   3.234 -0.1462 -1.9696 -1.9230
 4774TIP3    H235738   4.663   1.950   3.336 -1.2792 -1.8021 -1.2569
 4775TIP3   OH235739   3.216   5.705   0.237  0.0896 -0.5600  0.1608
 4775TIP3    H135740   3.254   5.762   0.304  0.6025 -0.1177 -0.4931
 4775TIP3    H235741   3.131   5.679   0.273 -0.1108  0.5311  0.5194
 4776TIP3   OH235742   4.572   5.193  15.780  0.6310  0.4700 -0.2331
 4776TIP3    H135743   4.569   5.105  15.744  1.5017 -0.5680  2.0821
 4776TIP3    H235744   4.480   5.215  15.796  0.3773  0.2064 -1.2492
 4777TIP3   OH235745   5.963   0.280   5.225 -0.2227 -0.7557  0.0394
 4777TIP3    H135746   5.888   0.334   5.249  0.4197  0.4803 -0.6033
 4777TIP3    H235747   5.943   0.249   5.136 -1.1900 -2.7286  0.8987
 4778TIP3   OH235748   2.301   6.527  11.893 -0.2163 -0.0800  0.1895
 4778TIP3    H135749   2.335   6.438  11.888 -2.1495 -0.7871 -1.9172
 4778TIP3    H235750   2.210   6.516  11.921 -0.0663  1.3764  1.3367
 4779TIP3   OH235751   5.794   5.533   5.990 -0.4492  0.3349 -0.1988
 4779TIP3    H135752   5.799   5.459   5.930  1.5142 -1.0107  1.4909
 4779TIP3    H235753   5.738   5.502   6.061  1.1319  0.0179  0.9796
 4780TIP3   OH235754   1.141   3.073   0.424 -0.4802  0.0755  0.2589
 4780TIP3    H135755   1.146   3.003   0.489  3.1377  0.7477  0.9497
 4780TIP3    H235756   1.181   3.036   0.346 -1.3201  0.4694 -0.3704
 4781TIP3   OH235757   0.430   3.990  14.766 -0.1255 -0.2621  0.2033
 4781TIP3    H135758   0.368   3.959  14.833  0.8503  0.2082  1.3712
 4781TIP3    H235759   0.494   3.920  14.757  1.5428  0.8776  2.1519
 4782TIP3   OH235760   0.894   1.455  16.574  0.4136  0.7290 -0.1184
 4782TIP3    H135761   0.841   1.443  16.653 -0.6149  1.8115 -0.6187
 4782TIP3    H235762   0.974   1.497  16.605  2.4385 -3.4160  1.0993
 4783TIP3   OH235763   0.201   6.102   2.045 -0.5102 -0.1754 -0.3366
 4783TIP3    H135764   0.113   6.066   2.060 -0.2984 -0.8087 -0.5727
 4783TIP3    H235765   0.196   6.140   1.957 -0.4394 -0.5758 -0.5190
 4784TIP3   OH235766   4.121   4.471  11.636 -0.1341  0.0957  0.0047
 4784TIP3    H135767   4.031   4.454  11.666 -0.5931 -0.8998 -1.7696
 4784TIP3    H235768   4.175   4.457  11.713 -1.2916 -1.7926  0.5426
 4785TIP3   OH235769   4.844   3.964   2.845 -0.2227 -0.0134  0.0569
 4785TIP3    H135770   4.925   3.924   2.879 -0.8321 -0.5652  0.9130
 4785TIP3    H235771   4.872   4.015   2.770  0.8086 -0.8942 -0.1845
 4786TIP3   OH235772   0.291   0.716  14.470  0.0577  0.3114 -0.0380
 4786TIP3    H135773   0.282   0.809  14.448  0.4785  0.3169 -0.2086
 4786TIP3    H235774   0.209   0.693  14.513  0.2241  0.9423  0.6348
 4787TIP3   OH235775   2.526   1.927   1.105 -0.0687  0.4374 -0.6471
 4787TIP3    H135776   2.482   1.875   1.038 -3.0335  2.0898 -0.1681
 4787TIP3    H235777   2.600   1.967   1.059 -0.5270 -0.4354 -2.2500
 4788TIP3   OH235778   1.922   2.072   6.184  0.1896 -0.1189 -0.2194
 4788TIP3    H135779   1.957   2.014   6.252  0.5208  0.7278  0.3506
 4788TIP3    H235780   1.980   2.060   6.109  0.7213  0.0429  0.1584
 4789TIP3   OH235781   2.233   1.189  13.900 -0.2886  0.0647  0.2042
 4789TIP3    H135782   2.154   1.241  13.884 -1.1989 -1.1692  0.5599
 4789TIP3    H235783   2.273   1.231  13.976 -0.7096  0.5938  0.1424
 4790TIP3   OH235784   6.319   3.524  16.171  0.0407  0.4326 -0.7238
 4790TIP3    H135785   6.302   3.469  16.248  1.1827  1.9681  0.6805
 4790TIP3    H235786   6.272   3.480  16.100  1.1149 -2.5033  0.2533
 4791TIP3   OH235787   6.151   4.008  15.035 -0.2816 -0.3626  0.2956
 4791TIP3    H135788   6.230   4.060  15.049 -0.8199  0.7371 -0.5345
 4791TIP3    H235789   6.128   3.977  15.123 -0.4503  1.6304  1.0310
 4792TIP3   OH235790   5.991   3.577   5.425  1.3259 -0.5656 -0.8937
 4792TIP3    H135791   5.953   3.538   5.503  0.8588 -0.2872 -0.9791
 4792TIP3    H235792   5.954   3.527   5.352  0.1482  0.4715 -1.0486
 4793TIP3   OH235793   6.646   5.830   3.171  0.7451 -0.2796 -0.3593
 4793TIP3    H135794   6.730   5.784   3.166  1.8127  1.6955 -2.3885
 4793TIP3    H235795   6.581   5.762   3.154  1.9540 -1.7100  0.5032
 4794TIP3   OH235796   2.624   3.788   1.832  0.3450 -0.2408  0.1523
 4794TIP3    H135797   2.622   3.867   1.886  1.5102 -0.0685 -0.0333
 4794TIP3    H235798   2.532   3.772   1.809 -0.1506 -0.1231  1.8863
 4795TIP3   OH235799   6.337   3.025   1.314  0.1292 -0.2508  0.0106
 4795TIP3    H135800   6.368   3.084   1.245 -3.1484 -0.3569 -1.7554
 4795TIP3    H235801   6.389   2.945   1.302 -0.1025 -0.1383 -2.1650
 4796TIP3   OH235802   3.981   5.234  12.306 -0.8013 -0.2887  0.1749
 4796TIP3    H135803   4.074   5.241  12.287 -0.9237  0.6878 -0.1225
 4796TIP3    H235804   3.946   5.179  12.236 -0.8756  1.5162 -1.2928
 4797TIP3   OH235805   3.146   3.150   3.791  0.1228  0.1084 -0.4771
 4797TIP3    H135806   3.112   3.113   3.710  1.6956  0.6586 -1.4364
 4797TIP3    H235807   3.234   3.182   3.768  0.4105  0.7355  1.3148
 4798TIP3   OH235808   5.478   3.233   0.399 -0.0182 -0.3394 -0.3343
 4798TIP3    H135809   5.456   3.211   0.309  3.7212  0.9373 -1.7544
 4798TIP3    H235810   5.407   3.195   0.451 -2.0318 -1.6410 -3.7033
 4799TIP3   OH235811   3.464   6.574  13.827  0.2233  0.0231  0.1688
 4799TIP3    H135812   3.386   6.612  13.866  0.0810 -0.3988  0.3026
 4799TIP3    H235813   3.443   6.565  13.734  0.5090  0.8938  0.0151
 4800TIP3   OH235814   5.790   4.910  15.149 -0.4741  0.2812  0.5721
 4800TIP3    H135815   5.877   4.942  15.175 -0.3105 -0.0092  0.3838
 4800TIP3    H235816   5.731   4.945  15.216 -0.4583  1.8575 -0.1761
 4801TIP3   OH235817   2.156   1.949   1.085  0.2543 -0.5052  0.0516
 4801TIP3    H135818   2.192   1.861   1.074 -1.6189 -1.1260 -1.6972
 4801TIP3    H235819   2.191   1.998   1.010  2.4384  0.7483  1.7572
 4802TIP3   OH235820   2.637   0.630  12.020  0.0931  0.0248  0.6024
 4802TIP3    H135821   2.565   0.685  12.052  0.7988  1.0362  0.5087
 4802TIP3    H235822   2.607   0.540  12.036 -1.6843  0.3679 -0.5173
 4803TIP3   OH235823   6.325   5.382  13.518 -0.4842  0.3085  0.7000
 4803TIP3    H135824   6.235   5.397  13.489 -1.0096 -0.9083  1.5982
 4803TIP3    H235825   6.323   5.400  13.612 -0.0847 -0.8571  0.9482
 4804TIP3   OH235826   4.993   4.420  12.657 -0.2114 -0.1872 -0.0889
 4804TIP3    H135827   5.028   4.476  12.726 -0.4938  1.1375 -0.9938
 4804TIP3    H235828   5.054   4.346  12.654  1.2598  0.9928 -0.1520
 4805TIP3   OH235829   1.895   3.654  16.715  0.5020 -0.1784  0.1984
 4805TIP3    H135830   1.811   3.642  16.759  0.2604 -0.9051 -0.4493
 4805TIP3    H235831   1.902   3.749  16.703  0.0263 -0.0707  0.7308
 4806TIP3   OH235832   0.417   4.994   5.959  0.5658 -0.4620  0.1590
 4806TIP3    H135833   0.358   4.956   6.024 -0.1692  0.8618  0.2945
 4806TIP3    H235834   0.499   5.006   6.006  0.2034 -0.0295  0.6929
 4807TIP3   OH235835   1.230   6.614  14.756  0.4434  0.0337 -0.4404
 4807TIP3    H135836   1.166   6.684  14.773 -0.5676 -0.8827 -0.3928
 4807TIP3    H235837   1.241   6.615  14.661 -0.1272 -0.2094 -0.5159
 4808TIP3   OH235838   3.954   3.384  14.361  0.4256 -0.3731 -0.1384
 4808TIP3    H135839   3.888   3.327  14.400  0.2032 -0.8195 -1.1328
 4808TIP3    H235840   3.935   3.383  14.267  2.0150 -0.7547 -0.4961
 4809TIP3   OH235841   6.711   5.397  11.631  0.0176  0.2152 -0.6074
 4809TIP3    H135842   6.767   5.358  11.564 -0.1904 -1.8199  0.3216
 4809TIP3    H235843   6.648   5.328  11.652 -0.5805  1.1780  0.9411
 4810TIP3   OH235844   5.265   1.122   1.845  0.0256  0.1628 -0.1260
 4810TIP3    H135845   5.342   1.170   1.816  0.7515 -1.2690 -0.6932
 4810TIP3    H235846   5.192   1.164   1.799  0.6630  0.5379 -0.8229
 4811TIP3   OH235847   4.795   5.664  10.777  0.1169 -0.2885  0.0009
 4811TIP3    H135848   4.875   5.717  10.775 -0.3226  0.3754 -1.6061
 4811TIP3    H235849   4.724   5.728  10.767 -0.4977 -1.0408 -0.5810
 4812TIP3   OH235850   3.839   1.772   1.081 -0.0163  0.1869  0.5745
 4812TIP3    H135851   3.804   1.743   0.996 -2.1020  1.1780  1.0328
 4812TIP3    H235852   3.777   1.737   1.145  2.6197 -2.3807  2.0092
 4813TIP3   OH235853   1.284   0.837   0.154  1.3648  0.2926  0.0846
 4813TIP3    H135854   1.305   0.850   0.247  1.1742  2.9113 -0.1554
 4813TIP3    H235855   1.222   0.907   0.133 -1.5428 -2.4424 -1.1893
 4814TIP3   OH235856   4.594   1.310  14.015 -0.2927 -0.2662  0.5522
 4814TIP3    H135857   4.631   1.231  14.054 -1.0471  0.1363  2.1668
 4814TIP3    H235858   4.500   1.302  14.029 -0.7648 -0.6017 -2.2268
 4815TIP3   OH235859   4.888   3.966   5.543  0.3367 -0.1335 -0.3145
 4815TIP3    H135860   4.941   3.923   5.609 -1.0019 -0.3633  0.6446
 4815TIP3    H235861   4.798   3.943   5.565 -0.2010  0.4964 -1.7085
 4816TIP3   OH235862   5.933   4.699  12.441 -0.3745  0.3553 -0.4187
 4816TIP3    H135863   6.021   4.676  12.412  0.4530  2.4361  0.2382
 4816TIP3    H235864   5.895   4.747  12.367 -0.7783 -0.0779 -0.4997
 4817TIP3   OH235865   0.105   0.918   1.172 -0.4108  0.4851  0.3215
 4817TIP3    H135866   0.122   0.832   1.210  0.2747 -0.0433 -1.0971
 4817TIP3    H235867   0.142   0.980   1.235 -0.5949 -0.2645  1.1875
 4818TIP3   OH235868   0.430   3.144   1.851 -0.2788  0.2037  0.1526
 4818TIP3    H135869   0.419   3.205   1.924 -0.4027 -2.1014  2.2180
 4818TIP3    H235870   0.438   3.058   1.893  0.6382 -1.1462 -2.5386
 4819TIP3   OH235871   3.231   3.860  16.197 -0.4193  0.0241 -0.3269
 4819TIP3    H135872   3.319   3.897  16.197 -0.6931  0.8983  2.4302
 4819TIP3    H235873   3.216   3.835  16.106  1.5822  2.4407 -1.4503
 4820TIP3   OH235874   6.355   1.220   0.274 -0.2343 -0.5928  0.1834
 4820TIP3    H135875   6.355   1.250   0.183  0.2961 -3.3559 -0.8356
 4820TIP3    H235876   6.446   1.228   0.303 -0.3847  0.1952  0.4522
 4821TIP3   OH235877   0.592   1.562   0.421  0.1067  0.1060 -0.1119
 4821TIP3    H135878   0.548   1.623   0.362 -2.3245 -1.6893 -0.3273
 4821TIP3    H235879   0.605   1.483   0.368 -1.0953 -1.1482  1.3558
 4822TIP3   OH235880   0.615   1.550  12.548 -0.5209 -0.6613 -0.1528
 4822TIP3    H135881   0.684   1.534  12.613  0.8825 -0.2375 -1.4593
 4822TIP3    H235882   0.557   1.475  12.556  0.7651 -1.6608  0.1952
 4823TIP3   OH235883   4.457   2.049  13.057  0.0828 -0.0190  0.4060
 4823TIP3    H135884   4.481   2.132  13.098  0.4631  0.0267  0.0945
 4823TIP3    H235885   4.369   2.031  13.090 -1.5209  2.2620 -2.0920
 4824TIP3   OH235886   2.324   5.808  12.988  0.0093 -0.4128 -0.9933
 4824TIP3    H135887   2.248   5.777  13.037  0.3989  0.3858  0.1459
 4824TIP3    H235888   2.347   5.891  13.029  1.8984 -0.9488 -0.8836
 4825TIP3   OH235889   6.141   4.116  13.816  0.2054 -0.2070 -0.6770
 4825TIP3    H135890   6.235   4.133  13.805  0.6188  0.4074  2.8365
 4825TIP3    H235891   6.099   4.200  13.802  0.3391 -0.1562 -0.7709
 4826TIP3   OH235892   0.229   6.521   5.040 -0.2091 -0.1519  0.3973
 4826TIP3    H135893   0.245   6.567   5.122  0.3068 -1.5228  1.0888
 4826TIP3    H235894   0.309   6.533   4.989 -0.5128  0.6615  0.0978
 4827TIP3   OH235895   0.129   6.155   5.469 -0.3133 -0.5718  0.1252
 4827TIP3    H135896   0.202   6.213   5.449 -0.3272 -0.0033  1.6094
 4827TIP3    H235897   0.168   6.068   5.474 -0.4098 -0.8493 -2.7942
 4828TIP3   OH235898   6.254   4.368  12.988 -0.8629  0.0014  0.4278
 4828TIP3    H135899   6.229   4.460  12.975 -2.0684 -0.3004  0.4671
 4828TIP3    H235900   6.170   4.322  12.995 -0.2809 -1.2216 -0.3659
 4829TIP3   OH235901   5.591   6.348  14.432 -0.3982 -0.0699  0.3208
 4829TIP3    H135902   5.643   6.423  14.402  2.0373 -0.5779  2.8215
 4829TIP3    H235903   5.587   6.289  14.357  0.6125  1.0606 -0.6555
 4830TIP3   OH235904   4.376   2.952  15.549  0.9893  0.3019  0.1131
 4830TIP3    H135905   4.375   2.922  15.640  1.7673 -0.0493  0.0075
 4830TIP3    H235906   4.436   2.893  15.504  0.8502  0.6639 -0.5656
 4831TIP3   OH235907   4.814   0.195   2.912  0.1098 -0.1651  0.1569
 4831TIP3    H135908   4.786   0.155   2.830  0.3174  1.5198 -0.7773
 4831TIP3    H235909   4.858   0.275   2.886 -0.3008  0.6946  1.9434
 4832TIP3   OH235910   0.876   0.524  14.768  0.3520  0.4149  0.7723
 4832TIP3    H135911   0.932   0.512  14.845  0.8666 -2.9014  0.0319
 4832TIP3    H235912   0.787   0.521  14.803  0.5939 -0.2651  1.3634
 4833TIP3   OH235913   3.652   6.162  11.890  0.0605 -0.7209  0.5859
 4833TIP3    H135914   3.623   6.071  11.888  0.2368 -0.8837  2.7253
 4833TIP3    H235915   3.577   6.211  11.925 -0.7892  0.3695 -2.4196
 4834TIP3   OH235916   2.297   4.138   5.356  0.7802  0.6063 -0.1199
 4834TIP3    H135917   2.347   4.093   5.288 -0.2843  0.4004 -0.7805
 4834TIP3    H235918   2.206   4.115   5.339  0.4198  1.1900  0.9051
 4835TIP3   OH235919   2.377   3.520   5.046  0.0024  0.0623 -0.4332
 4835TIP3    H135920   2.431   3.525   4.967 -0.2286  1.7140 -0.5050
 4835TIP3    H235921   2.305   3.462   5.023  0.5297 -0.3642 -1.0527
 4836TIP3   OH235922   5.827   5.855  15.633 -0.2909 -0.3079 -0.3813
 4836TIP3    H135923   5.876   5.929  15.671 -0.9563 -0.6153  1.1366
 4836TIP3    H235924   5.888   5.815  15.572  0.1226  1.4368 -1.1690
 4837TIP3   OH235925   1.534   1.993  10.634 -0.0926  0.2220  0.0061
 4837TIP3    H135926   1.463   1.938  10.601  0.9654 -0.9039 -0.4626
 4837TIP3    H235927   1.515   2.005  10.727  0.1870 -1.8262  0.3677
 4838TIP3   OH235928   5.557   1.732  11.666  0.0064 -0.2319  0.4170
 4838TIP3    H135929   5.466   1.722  11.693 -0.0306  0.0143  0.3877
 4838TIP3    H235930   5.583   1.646  11.634 -1.2247  0.4248 -2.7387
 4839TIP3   OH235931   5.236   3.888  13.004  0.0148 -0.1827  0.1968
 4839TIP3    H135932   5.213   3.913  12.914  2.4004  0.3976 -0.3194
 4839TIP3    H235933   5.180   3.813  13.023 -0.7570 -0.1416 -1.6650
 4840TIP3   OH235934   4.803   6.376   3.872 -0.1284  0.2990 -0.0230
 4840TIP3    H135935   4.861   6.370   3.947  0.0932  2.0898 -0.0094
 4840TIP3    H235936   4.797   6.469   3.854 -0.1665 -0.0791 -2.2409
 4841TIP3   OH235937   4.399   5.931  13.542  0.3370 -0.6352 -0.1349
 4841TIP3    H135938   4.307   5.912  13.560  0.6472 -0.7102  1.5486
 4841TIP3    H235939   4.431   5.855  13.495 -0.7682 -0.0350 -1.9486
 4842TIP3   OH235940   5.224   0.511   1.511 -0.5127 -0.5824  0.5469
 4842TIP3    H135941   5.142   0.466   1.530 -0.9767  0.3644  0.8576
 4842TIP3    H235942   5.267   0.518   1.596 -0.9055  0.4286  0.6730
 4843TIP3   OH235943   2.744   2.728  11.760 -0.4600 -0.1974  0.3352
 4843TIP3    H135944   2.747   2.824  11.762  0.2429 -0.2174  0.5876
 4843TIP3    H235945   2.790   2.704  11.680 -2.3123 -0.2893 -0.7697
 4844TIP3   OH235946   5.883   2.002  11.231 -0.0572  0.3942 -0.2279
 4844TIP3    H135947   5.867   1.951  11.310  1.1267 -0.0637 -0.2568
 4844TIP3    H235948   5.889   2.092  11.261  0.9253  0.1654  0.3090
 4845TIP3   OH235949   0.665   5.131  15.860 -0.5478  0.0405 -0.2271
 4845TIP3    H135950   0.652   5.182  15.940  0.3478 -0.4455  0.2447
 4845TIP3    H235951   0.605   5.170  15.796 -0.1092  1.4900  0.2106
 4846TIP3   OH235952   0.901   6.388  13.803  0.0055 -0.4120 -0.3089
 4846TIP3    H135953   0.890   6.442  13.882  0.3348 -0.1835 -0.4182
 4846TIP3    H235954   0.922   6.301  13.837  0.8201 -0.1605 -0.1477
 4847TIP3   OH235955   6.106   3.929   2.787  0.5954  0.3245 -0.0277
 4847TIP3    H135956   6.151   3.933   2.871  1.6591 -0.8682 -0.5165
 4847TIP3    H235957   6.054   4.009   2.784  0.8491  0.5836  1.5807
 4848TIP3   OH235958   3.790   3.521   5.392  0.1248  0.0140 -0.5033
 4848TIP3    H135959   3.700   3.542   5.366 -1.5469 -1.9908  2.9424
 4848TIP3    H235960   3.810   3.440   5.346  0.2511  0.4851 -1.3076
 4849TIP3   OH235961   1.900   3.947   0.591 -0.1208 -0.2590 -0.2546
 4849TIP3    H135962   1.882   3.858   0.561 -1.3963  0.0468 -0.4509
 4849TIP3    H235963   1.898   4.000   0.512  0.9384 -0.0690 -0.1804
 4850TIP3   OH235964   5.916   1.011   1.761 -0.7741 -0.2584 -0.5797
 4850TIP3    H135965   5.840   0.970   1.802 -0.6339 -0.1655 -0.2216
 4850TIP3    H235966   5.989   0.990   1.819 -0.7308  0.6638 -0.2750
 4851TIP3   OH235967   5.389   3.185  12.434 -0.2232 -0.2078 -0.1885
 4851TIP3    H135968   5.356   3.136  12.360  0.2370  1.1845 -1.3658
 4851TIP3    H235969   5.353   3.141  12.511 -0.8312 -1.5876 -1.2340
 4852TIP3   OH235970   0.926   0.522  15.905  0.0542 -0.2484 -0.2152
 4852TIP3    H135971   0.942   0.515  15.811  0.9351 -3.0026  0.0598
 4852TIP3    H235972   0.894   0.612  15.917  1.4084  0.7110 -2.9031
 4853TIP3   OH235973   4.655   0.739  14.790 -0.2165 -0.4107  0.3360
 4853TIP3    H135974   4.733   0.751  14.844  0.0266  0.4299 -0.1931
 4853TIP3    H235975   4.687   0.746  14.700 -0.6814 -1.4239  0.0761
 4854TIP3   OH235976   6.697   1.365   4.806 -0.4368 -0.9293 -0.3348
 4854TIP3    H135977   6.658   1.283   4.777 -0.3477 -1.8337  1.9457
 4854TIP3    H235978   6.626   1.413   4.847  0.1766 -1.4033  1.3874
 4855TIP3   OH235979   3.637   6.227   2.572 -1.2173  0.3683 -0.2494
 4855TIP3    H135980   3.676   6.285   2.507 -0.8742  0.2518 -0.1512
 4855TIP3    H235981   3.704   6.160   2.588 -2.1474 -0.9289 -1.4638
 4856TIP3   OH235982   2.994   3.391   4.533 -0.6066  0.5611  0.4386
 4856TIP3    H135983   3.030   3.432   4.455  1.8022  1.0657  1.7048
 4856TIP3    H235984   3.051   3.315   4.549 -0.6694  0.8043  1.9944
 4857TIP3   OH235985   5.321   2.131   1.694 -0.5053  0.3967  0.0461
 4857TIP3    H135986   5.283   2.045   1.708  3.1259 -1.2892  0.5648
 4857TIP3    H235987   5.357   2.156   1.779  3.1697 -0.1801 -1.1655
 4858TIP3   OH235988   5.882   6.534  16.155 -0.0475  0.2242  0.2277
 4858TIP3    H135989   5.811   6.470  16.151  0.3634 -0.2525  0.4412
 4858TIP3    H235990   5.917   6.526  16.244  0.5663  0.1287 -0.0154
 4859TIP3   OH235991   1.065   1.375   5.825  0.2794  0.6498 -0.3081
 4859TIP3    H135992   1.091   1.431   5.898 -0.7121  1.9856 -0.9253
 4859TIP3    H235993   1.108   1.413   5.749  0.6727 -0.2518 -0.5392
 4860TIP3   OH235994   1.821   2.518   1.948 -0.8211 -0.2118 -0.1171
 4860TIP3    H135995   1.803   2.506   1.855 -1.6239  0.1239 -0.0091
 4860TIP3    H235996   1.846   2.611   1.956  1.4542 -0.7415 -0.3287
 4861TIP3   OH235997   6.665   2.386   0.925 -0.1295 -0.0344 -0.1079
 4861TIP3    H135998   6.757   2.370   0.945  0.3075 -0.3368 -2.1621
 4861TIP3    H235999   6.617   2.325   0.982  1.1333 -2.6580 -1.6674
 4862TIP3   OH236000   5.668   3.676  14.241  0.2928 -0.6536  0.1907
 4862TIP3    H136001   5.731   3.605  14.253  2.1589  1.0470  0.9988
 4862TIP3    H236002   5.662   3.687  14.146  0.9114 -1.1115  0.0927
 4863TIP3   OH236003   6.134   4.876  13.838  0.0209  0.5670 -0.4116
 4863TIP3    H136004   6.167   4.787  13.847 -0.6614  0.2390 -1.1535
 4863TIP3    H236005   6.158   4.918  13.921  1.3341  0.0281 -0.4961
 4864TIP3   OH236006   0.639   3.616   4.020 -0.5578  0.0844  0.3334
 4864TIP3    H136007   0.606   3.674   4.089 -0.1563  1.2663 -0.4435
 4864TIP3    H236008   0.687   3.674   3.961 -2.1932 -0.6129 -1.8057
 4865TIP3   OH236009   3.755   3.155  15.199  0.1761 -0.0346  0.2059
 4865TIP3    H136010   3.791   3.219  15.261  1.6359  0.1343 -0.7696
 4865TIP3    H236011   3.701   3.206  15.140  0.2050  0.0833  0.2812
 4866TIP3   OH236012   1.972   5.222  13.755  0.0686 -0.3776  0.2768
 4866TIP3    H136013   1.944   5.282  13.824  2.6434 -0.0508  1.1532
 4866TIP3    H236014   1.919   5.246  13.679 -1.8986  0.1466  1.7368
 4867TIP3   OH236015   5.497   5.776   4.379 -0.0415 -0.8575 -0.1553
 4867TIP3    H136016   5.574   5.797   4.325  2.1091 -0.2687  2.8502
 4867TIP3    H236017   5.479   5.684   4.360  0.0819 -0.4863 -2.3946
 4868TIP3   OH236018   2.564   1.306  13.590  0.1939  0.1583  0.7620
 4868TIP3    H136019   2.507   1.353  13.529 -0.1549  0.5986  1.4175
 4868TIP3    H236020   2.511   1.235  13.624  0.2920  0.0886  0.7704
 4869TIP3   OH236021   4.290   0.706   3.810 -0.2646 -0.1757  0.5453
 4869TIP3    H136022   4.245   0.672   3.887 -0.9495  1.2081  0.8004
 4869TIP3    H236023   4.274   0.641   3.741  1.1250 -1.8939  1.7601
 4870TIP3   OH236024   0.989   0.297   1.208  0.0439  0.7370 -0.1695
 4870TIP3    H136025   1.076   0.262   1.231 -0.3544 -1.4606 -1.7059
 4870TIP3    H236026   1.007   0.368   1.148  0.8075  1.2511  0.6383
 4871TIP3   OH236027   4.173   5.613   1.800  1.1077  0.4014  0.2217
 4871TIP3    H136028   4.174   5.528   1.756  0.8697 -0.3201  1.5568
 4871TIP3    H236029   4.096   5.657   1.766  0.7505 -0.2708  0.1342
 4872TIP3   OH236030   1.039   3.997   0.725  0.2475  0.0610 -0.7275
 4872TIP3    H136031   1.052   3.903   0.727 -0.9967 -0.1324 -0.7300
 4872TIP3    H236032   0.998   4.017   0.809  0.4221  0.5837 -0.7623
 4873TIP3   OH236033   1.490   1.657   2.564 -0.2837 -0.6168 -0.5085
 4873TIP3    H136034   1.493   1.751   2.548  1.4229 -0.5223  0.2187
 4873TIP3    H236035   1.519   1.618   2.482 -1.3073 -0.5402 -0.9199
 4874TIP3   OH236036   6.032   5.180  12.565 -0.0250  0.5089 -0.2073
 4874TIP3    H136037   6.085   5.102  12.548  0.5460  0.4581  1.6108
 4874TIP3    H236038   6.056   5.241  12.495 -1.7818 -1.4803 -2.7390
 4875TIP3   OH236039   2.139   5.626   4.730 -0.2304 -0.0269 -0.5346
 4875TIP3    H136040   2.118   5.718   4.744  0.7803  0.1072  0.2215
 4875TIP3    H236041   2.118   5.610   4.638  0.8090  1.3152 -1.0311
 4876TIP3   OH236042   3.888   5.129   5.755 -0.1096  0.1987 -0.2297
 4876TIP3    H136043   3.853   5.214   5.728 -4.0398 -0.8443  0.9050
 4876TIP3    H236044   3.939   5.099   5.680 -0.7614  2.4347 -1.6640
 4877TIP3   OH236045   4.641   0.806   4.438 -0.3581 -0.2885 -0.3452
 4877TIP3    H136046   4.619   0.717   4.466 -1.8790 -0.3991 -1.7193
 4877TIP3    H236047   4.731   0.800   4.408 -0.8090 -1.6971 -1.5331
 4878TIP3   OH236048   0.425   0.718   4.206  0.5724 -0.2376 -0.5432
 4878TIP3    H136049   0.494   0.730   4.141  3.4253  2.1515  2.5587
 4878TIP3    H236050   0.373   0.799   4.201  0.5931 -0.1937 -0.0630
 4879TIP3   OH236051   5.615   5.059  13.460  0.3639 -0.1635  0.0035
 4879TIP3    H136052   5.653   5.005  13.530 -0.0146 -0.5742 -0.1030
 4879TIP3    H236053   5.542   5.104  13.503  0.8844  0.5281  0.1770
 4880TIP3   OH236054   0.290   3.715   5.307  0.4178 -0.9612 -0.1147
 4880TIP3    H136055   0.372   3.758   5.283  1.1925 -1.7337  1.0490
 4880TIP3    H236056   0.222   3.763   5.258  1.0247  2.4527  2.0771
 4881TIP3   OH236057   5.996   0.248  13.693 -0.4439 -0.1381  0.0711
 4881TIP3    H136058   5.979   0.160  13.660 -1.5696  0.1759 -0.2291
 4881TIP3    H236059   5.924   0.301  13.660 -0.2075  0.7374  0.8942
 4882TIP3   OH236060   3.385   1.302  13.538  0.4282 -0.5418  0.1659
 4882TIP3    H136061   3.350   1.391  13.535  0.4864 -0.4279  1.8887
 4882TIP3    H236062   3.339   1.256  13.468 -2.2767 -0.0620  1.4776
 4883TIP3   OH236063   2.168   1.483   3.788 -0.5411  0.1357  0.3480
 4883TIP3    H136064   2.136   1.448   3.704 -0.7621  1.4451 -0.1391
 4883TIP3    H236065   2.218   1.411   3.826 -0.7010 -0.5952 -0.7618
 4884TIP3   OH236066   4.257   6.611   5.078  0.3127 -0.4535  0.0885
 4884TIP3    H136067   4.301   6.581   5.158  0.3014 -0.0402  0.2487
 4884TIP3    H236068   4.187   6.668   5.108  0.8040  0.3418 -0.2524
 4885TIP3   OH236069   2.699   0.670   5.634 -0.1625 -0.2914 -0.0771
 4885TIP3    H136070   2.711   0.682   5.728  1.6296  0.6164 -0.3874
 4885TIP3    H236071   2.733   0.582   5.616 -0.8857 -0.6291  0.1648
 4886TIP3   OH236072   6.414   2.211  11.864  0.3619  0.3780  0.2163
 4886TIP3    H136073   6.371   2.138  11.821  0.2681  0.6397 -0.1429
 4886TIP3    H236074   6.495   2.225  11.814  0.3430  0.5654  0.2354
 4887TIP3   OH236075   5.391   2.743  13.151  0.2869 -0.2809  0.3923
 4887TIP3    H136076   5.479   2.778  13.137  0.6292 -1.0079  0.6957
 4887TIP3    H236077   5.360   2.720  13.064 -0.1312  1.1825  0.1218
 4888TIP3   OH236078   5.148   6.334  13.451 -0.1030  0.4789 -0.6537
 4888TIP3    H136079   5.062   6.375  13.462 -0.9421 -1.1218 -0.9562
 4888TIP3    H236080   5.131   6.240  13.453  1.9496  0.0304  1.7719
 4889TIP3   OH236081   2.806   2.852   5.838 -0.0539 -0.1483 -0.2195
 4889TIP3    H136082   2.721   2.809   5.842 -0.1112 -0.1769 -1.2836
 4889TIP3    H236083   2.857   2.814   5.909 -0.2384 -1.6728 -0.8796
 4890TIP3   OH236084   4.035   1.835  13.552  0.1468  0.1612 -0.3654
 4890TIP3    H136085   3.984   1.886  13.489  1.3825  1.9672 -0.0136
 4890TIP3    H236086   4.066   1.759  13.502  0.0707  0.9058 -1.5942
 4891TIP3   OH236087   0.126   3.130   3.559 -0.1676  0.5524  0.1470
 4891TIP3    H136088   0.190   3.159   3.624  0.5870  0.7747 -0.6822
 4891TIP3    H236089   0.087   3.211   3.526  2.4605  0.8255 -2.7013
 4892TIP3   OH236090   3.471   4.926   3.221  0.5533  0.3483  0.0606
 4892TIP3    H136091   3.554   4.897   3.258  1.5980  1.6130 -1.1784
 4892TIP3    H236092   3.421   4.958   3.296  0.6088 -1.6397  1.0082
 4893TIP3   OH236093   3.144   2.883  11.993 -0.5039  0.0713 -0.0133
 4893TIP3    H136094   3.166   2.800  11.952 -3.2967 -1.2336  0.8695
 4893TIP3    H236095   3.074   2.862  12.055 -0.5868  2.9220  1.0335
 4894TIP3   OH236096   3.044   6.101   4.865  0.2073 -0.2858  0.6980
 4894TIP3    H136097   2.956   6.139   4.868  0.3661  0.1549  0.0966
 4894TIP3    H236098   3.056   6.061   4.951 -1.0955 -1.5145  0.3533
 4895TIP3   OH236099   5.675   6.316  12.505 -0.8636  0.2875  0.1399
 4895TIP3    H136100   5.599   6.314  12.447  0.3883 -2.5682 -1.6170
 4895TIP3    H236101   5.668   6.237  12.557  0.8114  0.0192  0.0104
 4896TIP3   OH236102   3.230   6.523   3.196 -0.5048  0.0701  0.5809
 4896TIP3    H136103   3.319   6.486   3.200 -0.1432  0.9980  1.7823
 4896TIP3    H236104   3.188   6.476   3.125  0.9939 -0.3232 -0.0885
 4897TIP3   OH236105   5.638   0.404  15.974  0.3681 -0.0845  0.0505
 4897TIP3    H136106   5.641   0.471  15.906  1.2498 -1.4658 -1.3560
 4897TIP3    H236107   5.619   0.451  16.055  0.4089  1.7590 -0.9741
 4898TIP3   OH236108   3.503   2.686   2.553 -0.0888 -0.4026 -0.4817
 4898TIP3    H136109   3.543   2.728   2.477 -1.6264 -0.2721 -1.2599
 4898TIP3    H236110   3.415   2.722   2.556  0.2462  0.4335  2.0244
 4899TIP3   OH236111   6.648   0.995   4.229  0.0127 -0.2056 -0.6032
 4899TIP3    H136112   6.565   0.949   4.239 -0.1897 -0.2991 -2.4698
 4899TIP3    H236113   6.702   0.963   4.302 -0.4606 -2.6771 -1.2589
 4900TIP3   OH236114   2.809   1.860   3.428 -0.4359  0.0370  0.1532
 4900TIP3    H136115   2.815   1.894   3.338  1.5611  0.1288  0.2604
 4900TIP3    H236116   2.738   1.910   3.468 -0.4136  1.0204 -0.9640
 4901TIP3   OH236117   5.886   6.694  12.765 -0.3656  0.2014 -0.2595
 4901TIP3    H136118   5.889   6.719  12.673  0.1161  0.8332 -0.0785
 4901TIP3    H236119   5.875   6.776  12.812  3.0755  0.4266  0.4579
 4902TIP3   OH236120   0.594   6.244  16.111  0.2818  0.4611  0.5010
 4902TIP3    H136121   0.503   6.262  16.135  0.2947  1.2182  0.0045
 4902TIP3    H236122   0.596   6.255  16.016  0.6615 -0.6136  0.3749
 4903TIP3   OH236123   6.379   3.625  12.879  0.0745 -0.1009  0.0113
 4903TIP3    H136124   6.401   3.620  12.786 -1.3174  0.4312 -0.3591
 4903TIP3    H236125   6.362   3.535  12.905 -1.1940 -0.0716 -0.6776
 4904TIP3   OH236126   0.782   1.823  13.248  0.4990 -0.3982 -0.2309
 4904TIP3    H136127   0.725   1.841  13.322  0.0478 -0.7434 -0.4930
 4904TIP3    H236128   0.860   1.783  13.287  1.0004  0.9631  0.2325
 4905TIP3   OH236129   3.782   6.450   6.104 -0.2534  0.7111  0.1055
 4905TIP3    H136130   3.702   6.488   6.140 -0.8320  1.2290 -1.6300
 4905TIP3    H236131   3.844   6.523   6.100  0.1108  0.4534  0.8537
 4906TIP3   OH236132   4.419   4.274  15.337  0.1847 -0.1458 -0.2088
 4906TIP3    H136133   4.453   4.360  15.312  1.7483 -0.9443 -0.9741
 4906TIP3    H236134   4.369   4.245  15.260  0.0541 -0.1331 -0.1297
 4907TIP3   OH236135   1.005   4.805   4.406  0.0109  0.2865 -0.2753
 4907TIP3    H136136   1.085   4.752   4.405 -0.4819 -0.5649  1.4581
 4907TIP3    H236137   0.948   4.762   4.342  1.0687  1.2097 -1.9197
 4908TIP3   OH236138   5.000   6.039   0.707  0.2463  0.4654  0.2244
 4908TIP3    H136139   4.971   6.129   0.724 -1.1765  0.0028  0.3447
 4908TIP3    H236140   5.038   6.011   0.791  2.4482  1.5414 -0.3242
 4909TIP3   OH236141   2.347   4.221  14.625 -0.4754  0.3207  0.2702
 4909TIP3    H136142   2.295   4.151  14.585 -0.6004  1.4398 -1.6828
 4909TIP3    H236143   2.346   4.202  14.719 -3.6879 -0.1972  0.2476
 4910TIP3   OH236144   2.218   3.693   0.915  0.3691 -0.2121  0.4639
 4910TIP3    H136145   2.313   3.692   0.929  0.3345  0.1999  0.7371
 4910TIP3    H236146   2.187   3.766   0.967 -0.0497 -0.0822  0.0397
 4911TIP3   OH236147   3.294   2.121   4.797  0.2458  0.3781 -0.1904
 4911TIP3    H136148   3.316   2.214   4.807  1.1094  0.2522 -0.7584
 4911TIP3    H236149   3.367   2.085   4.747 -0.9558 -0.2276 -1.5848
 4912TIP3   OH236150   5.792   0.817  11.710 -0.0186  0.2590  0.5461
 4912TIP3    H136151   5.744   0.886  11.756  3.1318  1.6098  2.1862
 4912TIP3    H236152   5.783   0.840  11.618 -1.9608  0.7697  0.8257
 4913TIP3   OH236153   3.177   3.105   1.694 -0.0677 -0.1750  0.3416
 4913TIP3    H136154   3.245   3.112   1.628  1.6336 -2.0144  1.7420
 4913TIP3    H236155   3.098   3.081   1.645  0.8138 -0.1999 -1.1319
 4914TIP3   OH236156   2.398   0.342   1.770 -0.0626  0.4266  0.6236
 4914TIP3    H136157   2.392   0.409   1.703 -0.9238  0.0726  0.3264
 4914TIP3    H236158   2.491   0.334   1.788  0.0302  1.9268  0.9136
 4915TIP3   OH236159   2.597   1.108  11.166 -0.4011 -0.5809 -0.0040
 4915TIP3    H136160   2.685   1.087  11.197  0.3359 -1.0448 -2.2191
 4915TIP3    H236161   2.582   1.198  11.194  1.3396 -0.0251 -0.7568
 4916TIP3   OH236162   1.963   6.126  14.013 -0.3131  0.3760 -0.3595
 4916TIP3    H136163   2.028   6.058  14.032  0.2092  0.5600 -1.4278
 4916TIP3    H236164   1.884   6.078  13.988 -1.1202  0.1099  2.3534
 4917TIP3   OH236165   6.387   0.502   3.876 -0.1368  0.2540 -0.6074
 4917TIP3    H136166   6.437   0.490   3.795  1.5393  0.1715  0.3921
 4917TIP3    H236167   6.450   0.482   3.945 -0.1915  4.3817  0.9070
 4918TIP3   OH236168   6.646   2.931  16.123 -0.1645 -0.3500  0.0644
 4918TIP3    H136169   6.665   2.883  16.043 -0.0174  1.6841 -1.1800
 4918TIP3    H236170   6.718   2.995  16.131 -0.6961  0.1407  1.2742
 4919TIP3   OH236171   0.695   2.060  16.156  0.4175 -0.1725  0.2437
 4919TIP3    H136172   0.722   2.148  16.181 -0.6051  0.3024 -0.2638
 4919TIP3    H236173   0.711   2.007  16.234 -1.7189  1.0490  1.6139
 4920TIP3   OH236174   1.875   3.156   6.100 -0.0182 -0.2966 -0.0291
 4920TIP3    H136175   1.820   3.119   6.169  0.4174 -2.3468 -0.7245
 4920TIP3    H236176   1.963   3.123   6.118  0.1198 -0.8185 -1.5082
 4921TIP3   OH236177   4.758   4.796  12.859  0.9837 -0.4095 -0.4102
 4921TIP3    H136178   4.823   4.818  12.793  0.6847  0.9957 -0.2551
 4921TIP3    H236179   4.809   4.768  12.935  1.3953  0.4010 -0.3854
 4922TIP3   OH236180   6.642   4.065   4.675  0.0941 -0.0531  0.0646
 4922TIP3    H136181   6.717   4.125   4.669 -0.7322  0.9218 -0.9942
 4922TIP3    H236182   6.611   4.057   4.585 -1.0635 -0.4520  0.4919
 4923TIP3   OH236183   2.124   1.497  15.309 -0.0992 -0.1231  0.0834
 4923TIP3    H136184   2.151   1.582  15.346  1.4316 -0.2461 -0.6451
 4923TIP3    H236185   2.206   1.460  15.275 -1.2829 -0.3313 -2.7631
 4924TIP3   OH236186   6.128   4.567   3.568 -0.1567 -0.3179 -0.2031
 4924TIP3    H136187   6.120   4.590   3.661 -0.0914  3.7897 -1.0333
 4924TIP3    H236188   6.211   4.519   3.563  1.1389  1.5517  1.5779
 4925TIP3   OH236189   5.280   4.357  11.525 -0.7501 -0.5417 -0.5480
 4925TIP3    H136190   5.248   4.288  11.583  0.4616 -0.3114  0.4329
 4925TIP3    H236191   5.325   4.311  11.454  0.8161 -0.7962  0.5521
 4926TIP3   OH236192   6.314   5.515  14.692 -0.3867  0.2006  0.1633
 4926TIP3    H136193   6.312   5.560  14.776  1.7911 -1.1442  0.9967
 4926TIP3    H236194   6.285   5.426  14.711  0.1887 -0.1370 -0.5006
 4927TIP3   OH236195   2.898   5.855   4.586 -0.0896 -0.2173  0.1558
 4927TIP3    H136196   2.895   5.951   4.596  1.0849  0.0229 -1.3826
 4927TIP3    H236197   2.939   5.824   4.667 -0.0978  0.6263  0.4944
 4928TIP3   OH236198   2.546   4.369   5.174 -0.4388 -0.2718  0.3149
 4928TIP3    H136199   2.635   4.376   5.141 -0.9937  0.7681 -1.0131
 4928TIP3    H236200   2.556   4.327   5.260  1.1226 -2.2116 -0.7151
 4929TIP3   OH236201   2.938   6.530   5.282 -0.4229  0.0437  0.2233
 4929TIP3    H136202   2.950   6.450   5.230 -0.4416 -0.4206  0.9226
 4929TIP3    H236203   3.011   6.586   5.257 -1.1347  0.3786 -1.2824
 4930TIP3   OH236204   2.871   0.960   0.342  0.0092 -0.3294  0.1576
 4930TIP3    H136205   2.825   0.935   0.262 -0.6362 -1.0593  0.7316
 4930TIP3    H236206   2.835   1.046   0.364 -1.4070 -1.0433  0.7965
 4931TIP3   OH236207   5.552   6.567  15.467  0.5890  0.3838  0.2020
 4931TIP3    H136208   5.529   6.478  15.493  0.9662 -0.0325 -0.8136
 4931TIP3    H236209   5.596   6.556  15.382 -0.3913  1.6403 -0.5020
 4932TIP3   OH236210   4.074   5.020   2.429  0.3867 -0.5973  0.2666
 4932TIP3    H136211   4.107   5.104   2.396  1.5033 -1.0567  0.1685
 4932TIP3    H236212   4.100   5.020   2.522  0.0441 -0.6675  0.3628
 4933TIP3   OH236213   0.612   0.915  13.508 -0.0830 -0.5892 -0.4904
 4933TIP3    H136214   0.665   0.990  13.534  0.5574 -0.9045 -0.8243
 4933TIP3    H236215   0.555   0.897  13.582 -0.0956  0.0951 -0.3311
 4934TIP3   OH236216   5.606   2.312   4.182  0.6348 -0.3143 -0.3388
 4934TIP3    H136217   5.607   2.338   4.090  2.0067 -0.7933 -0.4828
 4934TIP3    H236218   5.544   2.372   4.224  1.7081  1.4056 -1.1489
 4935TIP3   OH236219   4.655   5.464   2.188  0.0305 -0.4724  0.4007
 4935TIP3    H136220   4.633   5.402   2.118  0.2875 -0.8704  0.6671
 4935TIP3    H236221   4.748   5.446   2.206 -0.1799 -0.7551  1.2258
 4936TIP3   OH236222   5.061   1.510   5.532 -0.0553 -0.0049  1.1356
 4936TIP3    H136223   5.005   1.438   5.560 -2.0377  1.2033  0.5124
 4936TIP3    H236224   5.075   1.562   5.611 -0.2734 -0.0345  1.1942
 4937TIP3   OH236225   6.024   2.908  15.570  0.4590 -0.2929 -0.0263
 4937TIP3    H136226   5.969   2.986  15.583  2.7321  1.3710  0.1390
 4937TIP3    H236227   5.961   2.837  15.556 -1.7340  1.2804  1.2459
 4938TIP3   OH236228   4.461   3.877   0.592 -0.0615 -0.3577  0.1420
 4938TIP3    H136229   4.550   3.849   0.571 -0.3257 -3.0067  2.1033
 4938TIP3    H236230   4.472   3.956   0.645  0.9685  0.3991 -1.1347
 4939TIP3   OH236231   3.121   1.197  12.489  0.1834 -0.1170  0.1828
 4939TIP3    H136232   3.170   1.137  12.545 -0.6805 -2.4844 -1.4280
 4939TIP3    H236233   3.159   1.185  12.402 -2.6322 -1.5492 -0.9925
 4940TIP3   OH236234   5.641   5.418  13.207 -0.0428 -0.4790  0.7644
 4940TIP3    H136235   5.620   5.490  13.147  1.6968 -1.0164 -0.5851
 4940TIP3    H236236   5.702   5.456  13.271  0.4622 -0.6001  0.3649
 4941TIP3   OH236237   2.289   1.780   1.962  0.3822  0.2299 -0.3559
 4941TIP3    H136238   2.313   1.720   2.033  0.4362 -1.6464 -1.8561
 4941TIP3    H236239   2.372   1.818   1.934  0.2633  1.6124  1.0771
 4942TIP3   OH236240   3.387   2.938   0.509 -0.3743 -0.3490 -0.0382
 4942TIP3    H136241   3.416   3.009   0.567 -0.7991  0.0335 -0.2882
 4942TIP3    H236242   3.312   2.975   0.463  0.1448 -0.5399 -1.0573
 4943TIP3   OH236243   5.126   3.191  16.387 -0.2249 -0.2864  1.0136
 4943TIP3    H136244   5.128   3.282  16.415 -0.0430 -0.3258  1.1295
 4943TIP3    H236245   5.033   3.170  16.381 -0.3259  0.5469 -1.1257
 4944TIP3   OH236246   0.969   2.046  13.157 -0.2126  0.1545  0.1145
 4944TIP3    H136247   0.934   1.962  13.184  0.6576 -0.4392 -0.5415
 4944TIP3    H236248   0.953   2.049  13.062  0.6092  0.2967 -0.0283
 4945TIP3   OH236249   3.826   1.782   4.657 -0.1932 -0.2689  0.0078
 4945TIP3    H136250   3.858   1.700   4.620 -2.1198 -1.4661  0.7995
 4945TIP3    H236251   3.732   1.781   4.640 -0.0928  2.5776 -1.3402
 4946TIP3   OH236252   1.500   3.636  13.477  0.1643  0.4124 -0.1778
 4946TIP3    H136253   1.532   3.551  13.507  1.1250  0.8676  0.1241
 4946TIP3    H236254   1.511   3.694  13.553  2.0872  1.4461 -1.1776
 4947TIP3   OH236255   4.363   2.161   2.753 -0.6347 -0.0072  0.1325
 4947TIP3    H136256   4.406   2.139   2.670 -1.0718  0.0328 -0.1100
 4947TIP3    H236257   4.420   2.125   2.820 -0.0006  0.4140 -0.1672
 4948TIP3   OH236258   2.451   1.812   5.456 -0.0275  0.1958  0.3125
 4948TIP3    H136259   2.531   1.863   5.468  0.6102  0.8270 -4.6694
 4948TIP3    H236260   2.466   1.733   5.508  1.9350  2.0043  2.7737
 4949TIP3   OH236261   6.344   1.038  11.855 -0.2283  0.1928  0.1440
 4949TIP3    H136262   6.406   1.078  11.794 -0.4690 -1.9294 -1.6375
 4949TIP3    H236263   6.261   1.038  11.808 -0.9452  0.5106  1.3853
 4950TIP3   OH236264   5.572   2.195   4.971  0.4187 -0.1290  0.0619
 4950TIP3    H136265   5.506   2.225   4.909  1.3447 -1.2291 -1.5576
 4950TIP3    H236266   5.539   2.221   5.056 -1.2180  0.9183 -0.8366
 4951TIP3   OH236267   3.989   0.869   4.265  0.2043 -0.1476 -0.0462
 4951TIP3    H136268   4.011   0.958   4.295 -1.1691  0.3034 -0.2935
 4951TIP3    H236269   3.919   0.842   4.324 -0.4951 -0.4184 -0.9807
 4952TIP3   OH236270   6.396   6.352   1.076  0.8579  0.2785 -0.1903
 4952TIP3    H136271   6.467   6.404   1.115  0.1009  0.9780  0.3027
 4952TIP3    H236272   6.383   6.279   1.137  0.9260  0.3375 -0.1060
 4953TIP3   OH236273   6.359   0.762   1.467  0.5741  0.2144 -0.2569
 4953TIP3    H136274   6.301   0.731   1.398  0.8303 -1.1425  0.0933
 4953TIP3    H236275   6.429   0.808   1.421  0.1441  0.3249 -0.8064
 4954TIP3   OH236276   5.152   4.858   0.885 -0.2891  0.5697  0.2543
 4954TIP3    H136277   5.085   4.809   0.838 -0.5730  3.3621 -2.6071
 4954TIP3    H236278   5.105   4.906   0.953 -0.4282 -0.8262  1.1794
 4955TIP3   OH236279   6.211   0.266  13.015  0.2157  0.6197  0.4681
 4955TIP3    H136280   6.194   0.234  13.104  0.4298  0.7654  0.5591
 4955TIP3    H236281   6.302   0.243  12.999  0.0742  0.2668  0.1495
 4956TIP3   OH236282   6.034   4.709   2.994 -0.1311  0.2302 -0.5601
 4956TIP3    H136283   6.128   4.722   2.996  0.0752 -0.8523  2.7609
 4956TIP3    H236284   6.023   4.615   2.980 -0.5613  0.0050  1.0057
 4957TIP3   OH236285   0.685   1.672   3.179 -0.5252  0.3659  0.5541
 4957TIP3    H136286   0.592   1.668   3.159 -0.6673  1.5316  0.9668
 4957TIP3    H236287   0.728   1.671   3.093 -0.8898 -0.3520  0.3665
 4958TIP3   OH236288   2.082   6.417  13.915  0.0380  0.0003  0.1967
 4958TIP3    H136289   2.151   6.482  13.921  0.5013 -0.4185 -0.5186
 4958TIP3    H236290   2.003   6.467  13.894  0.1265  0.4683  0.9292
 4959TIP3   OH236291   4.486   6.293  15.896 -0.0842 -0.2649 -0.0556
 4959TIP3    H136292   4.476   6.387  15.877 -1.2058 -0.3992 -0.1906
 4959TIP3    H236293   4.451   6.249  15.818  1.4076 -0.8181 -0.4598
 4960TIP3   OH236294   3.837   0.655  13.345 -0.4673 -0.0744 -0.7152
 4960TIP3    H136295   3.917   0.672  13.295 -0.8186  0.0676 -1.2363
 4960TIP3    H236296   3.836   0.560  13.357 -0.6359 -0.1614 -1.4093
 4961TIP3   OH236297   0.356   4.299  14.291  0.0407 -0.5160 -0.3234
 4961TIP3    H136298   0.359   4.225  14.230  0.7944  0.1019 -1.0609
 4961TIP3    H236299   0.434   4.289  14.346  0.1145 -0.3015 -0.3877
 4962TIP3   OH236300   5.366   4.441   5.399 -0.0231  0.2533 -0.1960
 4962TIP3    H136301   5.285   4.436   5.449  0.0190  1.6766  0.0509
 4962TIP3    H236302   5.424   4.377   5.441 -0.6568  0.0076  0.3150
 4963TIP3   OH236303   3.539   5.264  12.505  0.4888  0.3265 -0.3864
 4963TIP3    H136304   3.506   5.353  12.499  0.2894  0.4389  1.6081
 4963TIP3    H236305   3.633   5.271  12.489  0.2271  0.6067 -1.9649
 4964TIP3   OH236306   0.092   3.224   4.050 -0.6409  0.5979 -0.1247
 4964TIP3    H136307   0.174   3.184   4.079 -0.2790  2.0001  0.8374
 4964TIP3    H236308   0.104   3.234   3.955 -0.9409 -1.9378 -0.5149
 4965TIP3   OH236309   6.541   6.273   2.660  0.5409  0.0393 -0.1449
 4965TIP3    H136310   6.546   6.319   2.577  1.5671 -2.5638 -1.6323
 4965TIP3    H236311   6.618   6.304   2.709  0.4171  0.9238 -0.4917
 4966TIP3   OH236312   2.727   4.753   2.229 -0.2890 -0.3002  0.0310
 4966TIP3    H136313   2.645   4.764   2.277 -0.3112 -1.1273  0.2105
 4966TIP3    H236314   2.724   4.662   2.198 -1.0349  0.6322 -2.9937
 4967TIP3   OH236315   6.628   5.557   1.797  0.4743  0.4509 -0.1032
 4967TIP3    H136316   6.687   5.611   1.746 -0.1506 -0.8804 -2.3851
 4967TIP3    H236317   6.686   5.500   1.848  1.1134  1.5666  0.4579
 4968TIP3   OH236318   4.983   3.235   6.050  0.1028 -0.1150  0.0773
 4968TIP3    H136319   4.971   3.153   6.098  1.0000  0.8730  2.1284
 4968TIP3    H236320   5.060   3.219   5.995  2.4367  0.2661  2.9610
 4969TIP3   OH236321   1.482   2.090   2.039  0.4964  0.7336 -0.5215
 4969TIP3    H136322   1.553   2.037   2.004  2.3750  2.3367  0.6502
 4969TIP3    H236323   1.420   2.099   1.967  1.6313 -0.4287 -1.6825
 4970TIP3   OH236324   4.694   2.386  11.040 -0.1173  0.5154 -0.1885
 4970TIP3    H136325   4.629   2.323  11.072  0.5630  0.1704  0.5350
 4970TIP3    H236326   4.738   2.418  11.119 -0.5786  2.0575 -0.5204
 4971TIP3   OH236327   5.632   4.901  13.683 -0.3901  0.0594  0.1769
 4971TIP3    H136328   5.610   4.823  13.633 -1.2774 -0.3366  1.1365
 4971TIP3    H236329   5.727   4.898  13.694 -0.0501  0.5410 -2.0486
 4972TIP3   OH236330   3.726   5.571  17.172  0.6256  0.3385 -0.1141
 4972TIP3    H136331   3.706   5.648  17.225 -0.7594 -0.2278  0.2300
 4972TIP3    H236332   3.689   5.590  17.086  2.8405  1.2407 -0.9541
 4973TIP3   OH236333   3.532   2.701  13.787  0.0734 -0.4158  0.3816
 4973TIP3    H136334   3.451   2.752  13.787 -0.7643 -1.6498 -0.9751
 4973TIP3    H236335   3.598   2.760  13.823 -1.0981  1.1771  0.0216
 4974TIP3   OH236336   3.720   6.609  15.304 -0.1834  0.1346 -0.1948
 4974TIP3    H136337   3.794   6.669  15.299  0.6512 -0.7873  0.5282
 4974TIP3    H236338   3.680   6.627  15.389 -1.2400  1.0989 -0.8635
 4975TIP3   OH236339   4.909   3.289  13.379 -0.3832  0.0191 -0.7205
 4975TIP3    H136340   4.975   3.246  13.433  0.2192 -0.7300 -2.0038
 4975TIP3    H236341   4.832   3.231  13.385 -0.1767 -0.2849 -1.0052
 4976TIP3   OH236342   0.329   3.253  15.168  0.3673 -0.4441 -0.5163
 4976TIP3    H136343   0.248   3.297  15.144  0.4186  0.3264  0.6748
 4976TIP3    H236344   0.357   3.295  15.249  2.8005  0.4195 -1.7070
 4977TIP3   OH236345   3.399   1.007   3.882 -0.3913 -0.7514  0.1252
 4977TIP3    H136346   3.338   1.005   3.956 -2.0141 -0.4361 -1.1562
 4977TIP3    H236347   3.346   0.983   3.806  0.5935  1.4872 -1.3756
 4978TIP3   OH236348   1.495   1.493  11.862  0.0240  0.3475  0.3247
 4978TIP3    H136349   1.435   1.419  11.854  1.9093 -1.2405  0.0533
 4978TIP3    H236350   1.580   1.458  11.835  0.9627  2.6815  0.0199
 4979TIP3   OH236351   5.751   2.938  16.124 -0.8178  0.1806  0.0226
 4979TIP3    H136352   5.835   2.969  16.089 -2.0037  2.3542 -1.1242
 4979TIP3    H236353   5.704   3.018  16.147 -2.3733 -1.0128  1.1757
 4980TIP3   OH236354   2.507   5.419   3.320  0.4018  0.5303 -0.0989
 4980TIP3    H136355   2.558   5.397   3.242  0.3121 -0.2751  0.0562
 4980TIP3    H236356   2.494   5.335   3.364 -0.4771  0.8176  0.2148
 4981TIP3   OH236357   3.227   2.097  12.305  0.2513 -0.3970 -0.4737
 4981TIP3    H136358   3.241   2.002  12.302  1.1901 -0.2619 -0.7461
 4981TIP3    H236359   3.278   2.130  12.232  0.6073  0.3993  0.1271
 4982TIP3   OH236360   2.738   4.784   0.290  0.3141 -0.3113 -0.2116
 4982TIP3    H136361   2.676   4.856   0.300  0.1832 -0.5001  0.3374
 4982TIP3    H236362   2.819   4.815   0.331 -0.0481 -0.8589  0.9567
 4983TIP3   OH236363   3.796   0.480   0.975  0.1395 -0.0422  0.5380
 4983TIP3    H136364   3.786   0.522   0.889  0.9953  0.2881  0.5869
 4983TIP3    H236365   3.764   0.390   0.961  2.9468 -0.9566 -0.9800
 4984TIP3   OH236366   0.885   3.794  11.448 -0.3365  0.7276  0.5644
 4984TIP3    H136367   0.892   3.878  11.404  1.9788 -0.5163 -1.7088
 4984TIP3    H236368   0.901   3.729  11.380  0.7764 -1.4499  2.7124
 4985TIP3   OH236369   1.957   3.780   1.965 -0.0288  0.4075  0.1416
 4985TIP3    H136370   1.963   3.723   1.888  0.5840 -0.3234  0.7151
 4985TIP3    H236371   2.039   3.829   1.965 -0.2731  0.8279  0.0230
 4986TIP3   OH236372   3.811   4.057  16.574  0.0780 -0.5416  0.4449
 4986TIP3    H136373   3.830   4.138  16.525 -0.5138 -1.6915 -1.8407
 4986TIP3    H236374   3.724   4.031  16.543 -2.2326  0.6498  5.1014
 4987TIP3   OH236375   0.846   2.919  17.290  0.0450  0.2122 -0.4116
 4987TIP3    H136376   0.839   2.950  17.380 -0.2127  0.6848 -0.5924
 4987TIP3    H236377   0.906   2.981  17.248  0.0962  0.0433 -0.5921
 4988TIP3   OH236378   2.908   2.806  14.684 -0.3888 -0.5007  0.1166
 4988TIP3    H136379   2.928   2.841  14.770 -3.3809 -0.3233  0.8443
 4988TIP3    H236380   2.829   2.853  14.656  1.2327  0.4726 -3.4046
 4989TIP3   OH236381   0.223   4.973  16.993  0.1227 -0.7696 -0.1071
 4989TIP3    H136382   0.256   4.939  17.076 -1.8533 -0.4073  0.8679
 4989TIP3    H236383   0.200   5.064  17.011 -1.7028 -1.0912 -0.6253
 4990TIP3   OH236384   4.385   0.793   3.180 -0.5568 -0.5887 -0.1634
 4990TIP3    H136385   4.312   0.854   3.176 -1.0393 -1.1828 -0.6828
 4990TIP3    H236386   4.351   0.717   3.228 -0.6622 -1.3377 -1.3664
 4991TIP3   OH236387   1.571   3.460  10.641 -0.4378 -0.5230 -0.2731
 4991TIP3    H136388   1.535   3.407  10.570  0.0364 -1.7375  0.3644
 4991TIP3    H236389   1.588   3.546  10.601 -1.5078 -0.7363 -1.2480
 4992TIP3   OH236390   5.891   2.746   3.019  0.3497  0.4015  0.0470
 4992TIP3    H136391   5.937   2.666   2.994 -0.2500  0.6003 -1.8515
 4992TIP3    H236392   5.812   2.714   3.065  0.1564 -0.1017 -0.6212
 4993TIP3   OH236393   0.182   6.103   4.342  0.3670  0.7571  0.2459
 4993TIP3    H136394   0.146   6.014   4.343 -1.6239  1.5198  1.7293
 4993TIP3    H236395   0.197   6.121   4.249  1.2028 -1.2461 -0.0572
 4994TIP3   OH236396   2.105   6.262   0.507 -0.1025  0.1753  0.1275
 4994TIP3    H136397   2.159   6.330   0.548 -1.0915 -0.1376  2.0680
 4994TIP3    H236398   2.024   6.308   0.481  0.0689  0.1411 -0.4883
 4995TIP3   OH236399   0.284   5.208   2.375  0.1562  0.2877 -0.1395
 4995TIP3    H136400   0.243   5.293   2.355  0.2653  0.0761 -1.3617
 4995TIP3    H236401   0.344   5.227   2.447 -1.2500  0.8337  0.9304
 4996TIP3   OH236402   0.393   1.908   3.694  0.4700  0.5678 -0.0438
 4996TIP3    H136403   0.400   1.812   3.694  3.1111  0.6391 -2.2779
 4996TIP3    H236404   0.428   1.935   3.779  0.1438 -0.4132  0.4172
 4997TIP3   OH236405   4.743   6.456  14.938 -0.3921  0.3450 -0.4450
 4997TIP3    H136406   4.650   6.469  14.954 -0.0337  0.0003  2.3735
 4997TIP3    H236407   4.778   6.545  14.930 -0.7323  0.5397  0.1489
 4998TIP3   OH236408   4.924   0.973   1.249  0.5592  0.2339  1.1425
 4998TIP3    H136409   4.876   1.055   1.236 -0.4144 -0.3612  0.9356
 4998TIP3    H236410   5.006   0.986   1.200  0.1092  0.8149  0.5189
 4999TIP3   OH236411   4.919   0.033   4.538 -0.0133  0.6545  0.0799
 4999TIP3    H136412   4.942  -0.059   4.550  0.0220  0.4783 -1.2187
 4999TIP3    H236413   4.991   0.069   4.486  0.6455  1.7719  1.6673
 5000TIP3   OH236414   5.323   2.731  12.137  0.0549  0.1771  0.0454
 5000TIP3    H136415   5.326   2.660  12.201  0.0169  0.7451  0.7006
 5000TIP3    H236416   5.414   2.761  12.131  0.1324 -0.1697 -0.5087
 5001TIP3   OH236417   6.011   4.141   2.437  0.5589 -0.0143  0.0390
 5001TIP3    H136418   5.964   4.193   2.372  1.1729  0.2557 -0.1955
 5001TIP3    H236419   5.961   4.152   2.518 -0.3682 -0.5738 -0.4376
 5002TIP3   OH236420   6.668   0.398  11.789 -0.5752 -0.2722  0.2473
 5002TIP3    H136421   6.689   0.305  11.793  0.1060 -0.1547 -0.5125
 5002TIP3    H236422   6.608   0.411  11.862  1.7270 -0.6745  2.3320
 5003TIP3   OH236423   0.315   5.236  14.695 -0.3784 -0.0846 -0.3738
 5003TIP3    H136424   0.261   5.205  14.767  1.4735  0.9857  1.5985
 5003TIP3    H236425   0.330   5.158  14.641  1.4272 -2.0371  2.6141
 5004TIP3   OH236426   3.129   6.368  16.978 -0.4570 -0.6786  0.3010
 5004TIP3    H136427   3.221   6.352  16.997 -0.1394  0.6797  0.0274
 5004TIP3    H236428   3.084   6.353  17.061  0.3879  1.2844  1.1650
 5005TIP3   OH236429   4.823   1.337  14.799 -0.2466  0.2641  0.3484
 5005TIP3    H136430   4.874   1.393  14.741  0.4774 -1.2178 -0.4864
 5005TIP3    H236431   4.868   1.253  14.797 -1.7593 -0.5913  0.9311
 5006TIP3   OH236432   5.682   1.590   4.164  0.0819 -0.7517  0.7570
 5006TIP3    H136433   5.719   1.646   4.096 -0.5715 -0.8268  0.3319
 5006TIP3    H236434   5.711   1.501   4.141  1.5231 -0.5742  1.6966
 5007TIP3   OH236435   0.589   2.250  12.621  0.1830  0.2233  0.1624
 5007TIP3    H136436   0.662   2.188  12.623  0.8693  1.0178  1.7351
 5007TIP3    H236437   0.529   2.219  12.689 -0.8974 -0.3231 -1.0014
 5008TIP3   OH236438   6.727   3.355  15.850  0.4107 -0.1857 -0.2701
 5008TIP3    H136439   6.817   3.383  15.836  0.6646 -1.2041 -0.7916
 5008TIP3    H236440   6.681   3.434  15.876  1.6875  0.1493  1.1615
 5009TIP3   OH236441   4.717   0.233   5.963 -0.0325 -0.5363 -0.0881
 5009TIP3    H136442   4.674   0.257   6.045 -1.9272 -1.2827 -0.8090
 5009TIP3    H236443   4.766   0.153   5.984  1.4619  0.5540  0.8459
 5010TIP3   OH236444   6.272   2.309   0.149  0.2431 -0.1446 -0.4718
 5010TIP3    H136445   6.312   2.392   0.176  0.0599  0.2502 -1.3750
 5010TIP3    H236446   6.178   2.327   0.151  0.2482  0.3956 -2.8310
 5011TIP3   OH236447   3.426   4.727  11.911 -0.2261 -0.0486 -0.2296
 5011TIP3    H136448   3.468   4.726  11.825 -1.0004 -0.4750 -0.6222
 5011TIP3    H236449   3.491   4.764  11.970  1.4621 -2.4864 -0.4188
 5012TIP3   OH236450   6.391   4.252  14.113  0.8762 -0.1209  0.4435
 5012TIP3    H136451   6.447   4.330  14.112 -1.3085  1.5704  0.1595
 5012TIP3    H236452   6.432   4.191  14.052  2.4328  0.9674  0.3438
 5013TIP3   OH236453   3.743   0.461  15.974  0.3985  0.5287  0.4237
 5013TIP3    H136454   3.694   0.541  15.992  1.9036  1.6677 -0.2435
 5013TIP3    H236455   3.727   0.444  15.881  0.6693  0.4939  0.3821
 5014TIP3   OH236456   6.063   5.098   3.706  0.2974 -0.2023  0.2153
 5014TIP3    H136457   6.066   5.145   3.789 -0.0956 -0.1359  0.1937
 5014TIP3    H236458   5.974   5.110   3.674  0.0017 -1.4734  0.5062
 5015TIP3   OH236459   4.471   6.533  14.911  0.5244 -0.0001 -0.0854
 5015TIP3    H136460   4.428   6.494  14.988  0.1899  0.8423  0.1656
 5015TIP3    H236461   4.404   6.530  14.843 -0.0160  1.4197  0.3384
 5016TIP3   OH236462   3.300   2.714  12.374 -0.0001 -0.0801 -0.0573
 5016TIP3    H136463   3.249   2.635  12.395  1.4465 -0.8816  0.5927
 5016TIP3    H236464   3.347   2.692  12.294  0.7254 -0.0361  0.3506
 5017TIP3   OH236465   1.267   2.742   3.665  0.3798  0.1079 -0.1404
 5017TIP3    H136466   1.180   2.713   3.639  0.8282 -2.3553  0.8733
 5017TIP3    H236467   1.321   2.730   3.587  0.5850 -2.1067  0.2893
 5018TIP3   OH236468   3.678   6.306  12.169 -0.0480 -0.6928 -0.1671
 5018TIP3    H136469   3.595   6.257  12.167 -0.6905  0.2882  0.8960
 5018TIP3    H236470   3.663   6.380  12.109 -0.4615  0.2212  1.0194
 5019TIP3   OH236471   5.104   1.345  17.198 -0.1288 -0.2326 -0.2028
 5019TIP3    H136472   5.080   1.433  17.226  1.3071 -0.1655  0.9461
 5019TIP3    H236473   5.115   1.296  17.279 -2.7278 -2.0507 -0.8216
 5020TIP3   OH236474   4.294   5.086   5.756 -0.5050 -0.2228  0.4434
 5020TIP3    H136475   4.250   5.126   5.681  0.5924 -0.5922 -0.4262
 5020TIP3    H236476   4.382   5.123   5.754 -0.9845  1.2099  2.6987
 5021TIP3   OH236477   4.049   5.055  11.735  0.2057 -0.5101  0.7876
 5021TIP3    H136478   4.026   5.111  11.661  1.2141  0.3489  1.1087
 5021TIP3    H236479   4.015   4.969  11.711  0.2737 -0.1882 -0.5472
 5022TIP3   OH236480   4.880   6.619   1.063  0.8864  0.2097  0.2015
 5022TIP3    H136481   4.875   6.559   0.989  1.9062  1.2933 -0.7756
 5022TIP3    H236482   4.818   6.688   1.042  0.7865  0.2536  0.6298
 5023TIP3   OH236483   5.747   4.070  16.015  0.0667 -0.4718  0.0398
 5023TIP3    H136484   5.666   4.078  15.964  0.5431  0.2884 -0.6191
 5023TIP3    H236485   5.766   4.159  16.043  0.0090 -0.8356  1.2608
 5024TIP3   OH236486   1.409   5.092  16.398  0.1214 -0.0138 -0.0063
 5024TIP3    H136487   1.356   5.151  16.344 -1.2300 -2.1490 -1.1717
 5024TIP3    H236488   1.493   5.136  16.407 -0.4914  1.6198 -1.6880
 5025TIP3   OH236489   0.139   1.167  11.831  0.1634 -0.4488  0.7041
 5025TIP3    H136490   0.079   1.194  11.901  0.3087 -0.0425  0.6707
 5025TIP3    H236491   0.086   1.174  11.751  0.8322  1.9186  0.4043
 5026TIP3   OH236492   6.363   4.725   0.683  0.2551 -0.2464 -0.2867
 5026TIP3    H136493   6.372   4.633   0.659 -1.6451 -1.1149  1.9373
 5026TIP3    H236494   6.380   4.727   0.777  0.3400  1.6970 -0.3033
 5027TIP3   OH236495   4.540   6.520   2.386 -0.7444  0.4102 -0.4289
 5027TIP3    H136496   4.627   6.491   2.415 -0.7938  1.0337  0.3508
 5027TIP3    H236497   4.500   6.441   2.350 -0.6535 -0.3886  1.1380
 5028TIP3   OH236498   5.817   5.696  13.155 -0.0645 -0.0152  0.1671
 5028TIP3    H136499   5.901   5.713  13.198 -0.3339  0.2825  0.5718
 5028TIP3    H236500   5.834   5.618  13.101 -0.2549 -1.6761  2.3742
 5029TIP3   OH236501   3.089   3.509   5.017 -0.2365  0.7976 -0.6001
 5029TIP3    H136502   3.089   3.430   4.964 -2.6850  0.5233 -0.2970
 5029TIP3    H236503   3.002   3.512   5.056  0.5935  2.3885  1.3169
 5030TIP3   OH236504   1.425   4.093  12.118 -0.2545 -0.3826  0.0561
 5030TIP3    H136505   1.463   4.006  12.123  0.3741 -0.0503  4.4575
 5030TIP3    H236506   1.496   4.149  12.086  0.2109 -1.0563 -0.1020
 5031TIP3   OH236507   3.695   3.322   6.686 -0.7236  0.1022  0.4503
 5031TIP3    H136508   3.779   3.290   6.654 -0.6443  0.7358 -0.0100
 5031TIP3    H236509   3.717   3.378   6.760 -0.4565  2.3268 -1.1834
 5032TIP3   OH236510   3.418   6.239  15.557  0.1555  0.3222  0.1321
 5032TIP3    H136511   3.481   6.277  15.495 -1.0011  1.3079 -0.4798
 5032TIP3    H236512   3.386   6.314  15.608 -1.7129  0.1336 -0.6781
 5033TIP3   OH236513   0.145   1.431   0.069 -0.2388 -0.8553 -0.0199
 5033TIP3    H136514   0.091   1.495   0.022  2.4011  0.7477 -1.1396
 5033TIP3    H236515   0.186   1.379  -0.001  1.5674 -0.3245  0.5847
 5034TIP3   OH236516   3.654   3.553   1.148  0.1160 -0.8488 -0.1602
 5034TIP3    H136517   3.627   3.484   1.210 -0.1567 -0.9549 -0.3946
 5034TIP3    H236518   3.721   3.511   1.094 -0.9179 -1.3272 -1.1072
 5035TIP3   OH236519   6.303   2.434  14.916 -0.4725  0.2167 -0.6816
 5035TIP3    H136520   6.280   2.374  14.986  0.1284  0.4987 -0.2361
 5035TIP3    H236521   6.331   2.377  14.844 -0.4862 -0.0559 -0.4721
 5036TIP3   OH236522   0.663   0.697   4.038 -0.0816 -0.3322 -0.4842
 5036TIP3    H136523   0.675   0.710   3.944  1.6639  0.0666 -0.2520
 5036TIP3    H236524   0.708   0.615   4.056  0.0650 -0.1327  0.0827
 5037TIP3   OH236525   2.198   3.338  11.607  0.2811 -0.2241  0.3431
 5037TIP3    H136526   2.141   3.373  11.538  0.2762  2.5576  1.6506
 5037TIP3    H236527   2.175   3.388  11.685  1.9571 -1.6337  1.8145
 5038TIP3   OH236528   5.738   0.171  11.191  0.6925  0.0426 -0.1625
 5038TIP3    H136529   5.753   0.228  11.116  0.2500  1.3875  0.7537
 5038TIP3    H236530   5.647   0.186  11.216  0.8824 -0.2602  0.7627
 5039TIP3   OH236531   2.814   0.470  16.666 -0.8148 -0.4047 -0.3041
 5039TIP3    H136532   2.881   0.536  16.685  0.1486 -1.6933  1.0164
 5039TIP3    H236533   2.780   0.494  16.580  0.2291  1.1987 -0.3058
 5040TIP3   OH236534   0.732   0.802   4.281  0.0939 -0.1529 -0.0063
 5040TIP3    H136535   0.751   0.793   4.188  0.7295 -0.2921  0.1311
 5040TIP3    H236536   0.652   0.854   4.284  0.1433 -0.0295 -0.6282
 5041TIP3   OH236537   6.108   6.362  13.296 -0.1393 -0.0986 -0.7527
 5041TIP3    H136538   6.139   6.415  13.223 -2.0996  0.4747 -1.2252
 5041TIP3    H236539   6.187   6.343  13.347  0.8813  1.7678 -1.5369
 5042TIP3   OH236540   3.058   3.520   6.309 -0.5275 -0.7182  0.2815
 5042TIP3    H136541   3.103   3.583   6.365 -0.9978 -1.4287  1.5239
 5042TIP3    H236542   3.100   3.436   6.329  0.2581 -0.8014 -1.5290
 5043TIP3   OH236543   0.440   0.011   3.768 -0.6728  0.3528  0.2732
 5043TIP3    H136544   0.420   0.103   3.786  1.8624  0.7443  1.5531
 5043TIP3    H236545   0.393  -0.009   3.687 -0.4637  3.0766 -0.6144
 5044TIP3   OH236546   1.292   4.773  13.513  0.2673 -0.3707 -0.4191
 5044TIP3    H136547   1.226   4.723  13.560  0.2672  1.5896  1.8381
 5044TIP3    H236548   1.324   4.713  13.445  0.2296 -3.3754  2.0229
 5045TIP3   OH236549   3.520   6.664   1.873  0.5912  0.7532 -0.2510
 5045TIP3    H136550   3.434   6.687   1.906 -0.9254 -2.7127 -1.2641
 5045TIP3    H236551   3.562   6.616   1.945  1.2747  1.5020 -0.1311
 5046TIP3   OH236552   3.578   1.999   5.177 -0.1702  0.2380  0.3874
 5046TIP3    H136553   3.643   2.046   5.124  0.7311 -0.7162  0.6193
 5046TIP3    H236554   3.501   2.056   5.176 -0.0907  0.3804 -1.7243
 5047TIP3   OH236555   5.691   3.988  15.387 -0.0866 -0.0708 -0.0455
 5047TIP3    H136556   5.665   4.041  15.312  0.1155  1.1076  0.6825
 5047TIP3    H236557   5.646   3.905  15.375  0.1295  0.0031 -1.5883
 5048TIP3   OH236558   3.674   3.072   5.041  0.4360  0.0670  0.0579
 5048TIP3    H136559   3.601   3.012   5.028  1.0298 -0.8747  0.9634
 5048TIP3    H236560   3.730   3.029   5.105 -0.6257  2.8475  3.1354
 5049TIP3   OH236561   1.739   4.059  15.230 -0.1087 -0.1257  0.1080
 5049TIP3    H136562   1.689   4.133  15.194  0.1868 -0.6914 -1.5062
 5049TIP3    H236563   1.676   3.988  15.236  0.0302 -0.2611 -0.0372
 5050TIP3   OH236564   0.248   4.329  16.103 -0.0535 -0.0945 -0.3679
 5050TIP3    H136565   0.333   4.294  16.079  1.0721  0.8534  1.9209
 5050TIP3    H236566   0.194   4.252  16.123  0.7127 -0.6486 -0.4203
 5051TIP3   OH236567   5.098   4.534   5.286  0.4929 -0.5492 -0.6590
 5051TIP3    H136568   5.117   4.519   5.379 -1.0138 -0.7641 -0.3467
 5051TIP3    H236569   5.160   4.602   5.259  0.5066  0.0146  0.7057
 5052TIP3   OH236570   2.273   5.344   1.607 -0.1154  0.0484  0.1143
 5052TIP3    H136571   2.197   5.377   1.656 -1.3889 -0.0211 -1.7279
 5052TIP3    H236572   2.297   5.416   1.548  1.3374  0.0952  0.7163
 5053TIP3   OH236573   0.556   0.307  12.313  0.2973 -0.7712 -0.1513
 5053TIP3    H136574   0.624   0.374  12.325  2.9084 -3.0224 -1.3013
 5053TIP3    H236575   0.517   0.297  12.400  2.9813 -0.8551  1.1703
 5054TIP3   OH236576   2.550   0.249   2.613 -0.0836 -0.1961  0.3680
 5054TIP3    H136577   2.477   0.304   2.643  0.5540  0.2774  1.1230
 5054TIP3    H236578   2.544   0.250   2.518 -0.1446  1.1307  0.3633
 5055TIP3   OH236579   6.356   3.500   3.352  0.3159 -0.2494 -0.3725
 5055TIP3    H136580   6.335   3.533   3.265  0.9473  0.6718 -0.1844
 5055TIP3    H236581   6.349   3.405   3.344 -1.2006 -0.1050 -1.0061
 5056TIP3   OH236582   4.219   3.616  11.770  0.3151  0.1036 -0.1591
 5056TIP3    H136583   4.256   3.547  11.715  1.1600  0.3139  0.1285
 5056TIP3    H236584   4.277   3.619  11.846 -0.3369  0.4082  0.3324
 5057TIP3   OH236585   3.969   4.104   2.038 -0.0053 -0.3647  0.6413
 5057TIP3    H136586   3.942   4.105   1.946  0.3961  1.4947  0.5093
 5057TIP3    H236587   3.950   4.193   2.069 -1.2250 -1.2885  2.6902
 5058TIP3   OH236588   4.729   0.327  13.382  0.1806 -0.1008 -0.0321
 5058TIP3    H136589   4.700   0.346  13.471 -0.6723  0.6261 -0.4570
 5058TIP3    H236590   4.711   0.233  13.370 -1.6342  0.2220 -0.1229
 5059TIP3   OH236591   2.033   3.752   2.517 -0.0437 -0.6092 -0.0348
 5059TIP3    H136592   2.059   3.661   2.502  1.8354 -0.7033  3.0077
 5059TIP3    H236593   1.951   3.746   2.567 -1.2870 -0.4784 -1.9342
 5060TIP3   OH236594   3.635   4.693  12.736  0.0790  0.3503  0.6671
 5060TIP3    H136595   3.663   4.770  12.786 -0.6702  0.1651  1.4077
 5060TIP3    H236596   3.695   4.624  12.763 -1.9953 -0.4945  3.5614
 5061TIP3   OH236597   4.508   0.936   3.004 -0.2817  0.1595  0.3934
 5061TIP3    H136598   4.464   1.021   3.002 -2.3095 -0.8254  0.8956
 5061TIP3    H236599   4.459   0.885   3.068 -1.3728 -2.5627 -2.3761
 5062TIP3   OH236600   6.293   1.514  13.729 -0.5912  0.1841  0.1133
 5062TIP3    H136601   6.385   1.534  13.747 -0.9399  2.0771 -0.0135
 5062TIP3    H236602   6.244   1.581  13.777 -1.8758 -0.4378 -0.2992
 5063TIP3   OH236603   0.650   5.746   1.659  0.0124 -0.1608 -0.0924
 5063TIP3    H136604   0.682   5.751   1.569 -2.3348  1.5824 -0.9284
 5063TIP3    H236605   0.660   5.654   1.683  2.9911 -0.2498 -1.1680
 5064TIP3   OH236606   0.615   1.561   5.822 -0.1559  0.2141 -0.2476
 5064TIP3    H136607   0.670   1.494   5.863  1.3000  0.3956 -1.7727
 5064TIP3    H236608   0.622   1.636   5.882  1.5139  0.3080 -0.4885
 5065TIP3   OH236609   4.169   2.094  16.185  0.5726 -0.0679 -0.5477
 5065TIP3    H136610   4.134   2.114  16.272  0.2870  0.4567 -0.7757
 5065TIP3    H236611   4.245   2.039  16.201 -0.1445 -0.9255 -0.0176
 5066TIP3   OH236612   3.633   4.020  11.513 -0.1224  0.0752 -0.1670
 5066TIP3    H136613   3.627   3.932  11.475 -0.2225  0.7519 -1.8118
 5066TIP3    H236614   3.562   4.069  11.471 -0.4554  0.8131  1.1744
 5067TIP3   OH236615   4.948   1.019   4.440 -0.5387  0.2402 -0.1472
 5067TIP3    H136616   4.989   1.084   4.498  0.6909  0.1107 -0.8218
 5067TIP3    H236617   4.885   1.069   4.389 -0.9848  0.5274  0.6670
 5068TIP3   OH236618   5.336   1.124   4.551  0.1979 -0.7334  0.0619
 5068TIP3    H136619   5.371   1.037   4.532  0.2308 -0.5153 -0.9637
 5068TIP3    H236620   5.311   1.159   4.465  3.6643  1.7679 -0.1619
 5069TIP3   OH236621   4.028   6.375   6.637  0.4742 -0.0632  0.6814
 5069TIP3    H136622   4.083   6.449   6.611 -1.4025  0.2244 -3.2512
 5069TIP3    H236623   3.945   6.415   6.662 -0.9355 -0.6395 -2.5259
 5070TIP3   OH236624   4.893   3.936  16.130 -0.1536  0.1464  0.1235
 5070TIP3    H136625   4.898   3.967  16.039 -0.1332 -1.5114 -0.4770
 5070TIP3    H236626   4.984   3.920  16.154 -0.3015 -2.1430 -0.6067
 5071TIP3   OH236627   1.848   3.331  14.868 -0.1741  0.1276 -0.2329
 5071TIP3    H136628   1.909   3.301  14.935 -1.0421  1.1892  1.0858
 5071TIP3    H236629   1.807   3.409  14.906 -1.5426  0.0869 -1.5222
 5072TIP3   OH236630   6.093   2.909   2.093  0.1549 -0.4228 -0.3861
 5072TIP3    H136631   6.100   2.942   2.182  0.3274 -0.6475 -0.3150
 5072TIP3    H236632   6.129   2.979   2.038  1.0808 -0.7205 -0.1904
 5073TIP3   OH236633   0.560   5.817   0.245  0.1149 -0.3527  0.6157
 5073TIP3    H136634   0.564   5.881   0.316  0.0297  0.0457  0.2637
 5073TIP3    H236635   0.648   5.817   0.207 -0.0180 -0.0846  0.3034
 5074TIP3   OH236636   0.433   0.225   4.511 -0.7855  0.5017  0.1566
 5074TIP3    H136637   0.466   0.137   4.527  0.8694  0.8962 -0.8621
 5074TIP3    H236638   0.400   0.224   4.422  1.1374  1.3892 -0.6262
 5075TIP3   OH236639   2.905   2.885  12.652 -0.0349  0.4205 -0.2201
 5075TIP3    H136640   2.814   2.875  12.681  0.1827  0.9722  0.6663
 5075TIP3    H236641   2.953   2.908  12.731  1.1716 -1.4653 -0.3512
 5076TIP3   OH236642   2.595   0.778   0.407 -0.4607 -0.1447 -0.0422
 5076TIP3    H136643   2.508   0.813   0.389  0.3200  2.1286  0.1879
 5076TIP3    H236644   2.593   0.752   0.499 -0.6577  0.7545  0.2138
 5077TIP3   OH236645   6.430   6.408  13.384  0.0293  0.1172 -0.3343
 5077TIP3    H136646   6.505   6.456  13.350  1.2902  0.3973  2.6305
 5077TIP3    H236647   6.459   6.370  13.467 -2.4753 -1.5526 -0.0823
 5078TIP3   OH236648   2.660   3.533   4.515 -0.6260  0.0381 -0.0304
 5078TIP3    H136649   2.657   3.554   4.608 -0.6340 -0.8518  0.1726
 5078TIP3    H236650   2.648   3.618   4.471 -2.0069  0.2746  0.7661
 5079TIP3   OH236651   1.704   3.046  12.147  0.1966  0.2317 -0.3538
 5079TIP3    H136652   1.747   3.020  12.066  0.9325 -0.5133  0.2472
 5079TIP3    H236653   1.625   2.992  12.151 -1.1283  1.9655 -1.7110
 5080TIP3   OH236654   3.674   2.425   1.454 -0.2477 -0.3641  0.4347
 5080TIP3    H136655   3.604   2.483   1.484 -1.2159 -0.9668 -0.5902
 5080TIP3    H236656   3.672   2.432   1.359  1.2161 -0.2600  0.3901
 5081TIP3   OH236657   5.424   4.589  14.239  0.2009  0.5388  0.1230
 5081TIP3    H136658   5.372   4.654  14.288 -0.6875  1.3255 -1.7681
 5081TIP3    H236659   5.505   4.634  14.217  0.8251  0.0152  1.2191
 5082TIP3   OH236660   3.173   0.546  12.293  0.2716  0.1957 -0.3349
 5082TIP3    H136661   3.113   0.483  12.333  1.1131 -0.3497  0.1017
 5082TIP3    H236662   3.222   0.496  12.228  1.3428  0.2250  0.4088
 5083TIP3   OH236663   6.680   2.046  12.846  0.8381 -0.1045  0.4608
 5083TIP3    H136664   6.630   1.973  12.810 -2.3905  0.9393  2.3506
 5083TIP3    H236665   6.669   2.117  12.782 -0.3047  0.1532  0.9167
 5084TIP3   OH236666   2.939   4.530  12.551 -0.2429 -0.5321  0.4967
 5084TIP3    H136667   2.913   4.593  12.484  0.4738  0.4870  1.1656
 5084TIP3    H236668   2.950   4.581  12.631  2.6149 -1.0687  0.5637
 5085TIP3   OH236669   0.896   5.952  13.648  0.5811 -0.0473 -0.4378
 5085TIP3    H136670   0.815   6.001  13.636  1.3833  1.3680 -0.2983
 5085TIP3    H236671   0.926   5.932  13.559 -0.1732 -1.0573 -0.4838
 5086TIP3   OH236672   0.524   1.056   2.742 -0.8168 -0.0309 -0.0392
 5086TIP3    H136673   0.572   0.985   2.699 -1.2473 -0.0745 -0.4548
 5086TIP3    H236674   0.460   1.011   2.797  0.0776  0.0129  1.0853
 5087TIP3   OH236675   5.900   0.842  15.529  0.1665  0.9537  0.5750
 5087TIP3    H136676   5.853   0.920  15.500  0.5855  0.1782 -2.6144
 5087TIP3    H236677   5.991   0.870  15.537  0.2106  0.9518  0.0962
 5088TIP3   OH236678   5.206   6.721  13.109  0.1548 -0.3206 -0.4810
 5088TIP3    H136679   5.234   6.648  13.164  0.5322 -0.7831 -1.2655
 5088TIP3    H236680   5.113   6.733  13.130 -0.4142 -2.2671 -1.6599
 5089TIP3   OH236681   0.908   3.598  10.267 -0.2419  0.3695  0.0307
 5089TIP3    H136682   0.847   3.624  10.336 -0.6618 -1.1861  0.2966
 5089TIP3    H236683   0.917   3.503  10.278  2.7303  0.6102  0.3886
 5090TIP3   OH236684   1.497   2.322   5.939  0.0652 -0.2817 -0.1500
 5090TIP3    H136685   1.453   2.296   6.020 -1.8811 -1.0107 -1.3974
 5090TIP3    H236686   1.519   2.415   5.953 -2.2901  0.2630  0.3895
 5091TIP3   OH236687   5.968   5.685   4.211  0.2345 -0.2306 -0.0810
 5091TIP3    H136688   5.960   5.701   4.305  0.3844 -0.5456 -0.0145
 5091TIP3    H236689   6.062   5.684   4.194  0.2141  1.3274 -0.5007
 5092TIP3   OH236690   1.989   3.970   1.017 -0.1253  0.6228 -0.3060
 5092TIP3    H136691   2.016   4.037   0.954  1.4581  1.5306  1.2299
 5092TIP3    H236692   1.899   3.993   1.039 -0.0548  1.4426 -0.8289
 5093TIP3   OH236693   1.504   4.729   5.957  0.2283  0.7260 -0.6363
 5093TIP3    H136694   1.579   4.713   6.014 -0.4902  0.0990  0.1377
 5093TIP3    H236695   1.485   4.822   5.969 -0.0179  0.5672  0.2798
 5094TIP3   OH236696   3.107   2.049   1.539  0.5257 -0.5842 -0.8243
 5094TIP3    H136697   3.023   2.071   1.577  1.3334  1.3711 -0.0239
 5094TIP3    H236698   3.089   2.033   1.446 -0.6319  0.3580 -0.7703
 5095TIP3   OH236699   5.960   0.688  12.054 -0.0350  0.7150  0.5268
 5095TIP3    H136700   5.876   0.733  12.052 -0.4485 -0.0538 -0.1889
 5095TIP3    H236701   5.977   0.673  12.147 -2.1478 -1.7022  0.6230
 5096TIP3   OH236702   5.234   1.477  11.126 -0.6212 -0.1656  0.0800
 5096TIP3    H136703   5.272   1.434  11.202 -0.6391  1.0406  0.7889
 5096TIP3    H236704   5.182   1.549  11.162  1.0473  1.7441 -1.1513
 5097TIP3   OH236705   1.774   0.774  16.174 -0.0162 -0.3148 -0.4620
 5097TIP3    H136706   1.697   0.788  16.119 -0.6204 -0.4445  0.3393
 5097TIP3    H236707   1.828   0.714  16.124 -2.0179 -3.0185  0.3890
 5098TIP3   OH236708   3.346   3.882  11.580  0.2323  0.4833 -0.5928
 5098TIP3    H136709   3.266   3.908  11.534 -0.4152 -0.2024  0.1099
 5098TIP3    H236710   3.414   3.940  11.545 -1.1127  3.2243  0.9470
 5099TIP3   OH236711   5.575   0.113  16.240  0.0602  0.3077  0.1198
 5099TIP3    H136712   5.594   0.053  16.312  2.0504  0.3052 -0.3282
 5099TIP3    H236713   5.529   0.060  16.175  2.3098 -0.9843 -0.5283
 5100TIP3   OH236714   4.471   0.836  15.408 -0.7602 -0.3776  0.0262
 5100TIP3    H136715   4.550   0.890  15.399 -0.8465 -0.2146  0.2385
 5100TIP3    H236716   4.423   0.848  15.326 -0.6356 -0.3629 -0.0444
 5101TIP3   OH236717   2.718   5.545   4.296  0.2267  0.4050 -0.2305
 5101TIP3    H136718   2.658   5.565   4.224  2.1922  1.0525 -1.7702
 5101TIP3    H236719   2.805   5.548   4.257  1.2801 -1.0486  1.7988
 5102TIP3   OH236720   1.931   2.581  14.491 -0.1356  0.0137  0.4138
 5102TIP3    H136721   1.977   2.502  14.463 -0.3513 -1.3062  3.4165
 5102TIP3    H236722   1.840   2.554  14.500 -0.4713  1.0026  0.1121
 5103TIP3   OH236723   3.214   0.523  11.344  0.7618  0.2071  0.1271
 5103TIP3    H136724   3.278   0.576  11.392  0.4482 -0.3395  1.1899
 5103TIP3    H236725   3.138   0.519  11.402 -0.3470  1.0463 -1.2161
 5104TIP3   OH236726   0.959   0.278   4.312 -0.6965 -0.2095 -0.6386
 5104TIP3    H136727   0.944   0.184   4.298  0.6291 -0.6831  0.8415
 5104TIP3    H236728   1.027   0.282   4.380 -1.7732  1.8322  0.4151
 5105TIP3   OH236729   1.749   0.478  16.054  0.0018  0.3284 -0.0114
 5105TIP3    H136730   1.835   0.519  16.054  0.0886  0.2865 -2.4748
 5105TIP3    H236731   1.700   0.524  15.986 -1.0199 -1.3831 -0.5069
 5106TIP3   OH236732   3.307   6.374   2.181 -0.3285  0.3260 -0.0710
 5106TIP3    H136733   3.246   6.407   2.248  0.2307  1.5327 -0.1148
 5106TIP3    H236734   3.387   6.426   2.195 -0.0241  0.2221 -1.3284
 5107TIP3   OH236735   4.612   5.382  12.855  0.1754  0.0385  0.4233
 5107TIP3    H136736   4.687   5.388  12.915  0.2745  1.0682  0.2022
 5107TIP3    H236737   4.537   5.409  12.908  0.1553  0.2541  0.2837
 5108TIP3   OH236738   2.092   4.168  15.972  0.7537 -0.5757 -0.7475
 5108TIP3    H136739   2.066   4.204  15.887  0.8539  1.3185 -0.0216
 5108TIP3    H236740   2.134   4.085  15.951 -1.5141 -1.4426 -2.3359
 5109TIP3   OH236741   6.604   2.149  13.534 -0.1170 -0.4759  0.1642
 5109TIP3    H136742   6.681   2.155  13.590 -0.9608  1.7426  1.1904
 5109TIP3    H236743   6.636   2.171  13.446  0.1836  2.2116  0.8760
 5110TIP3   OH236744   6.173   3.319  11.718  0.2669  0.2048  1.1549
 5110TIP3    H136745   6.092   3.328  11.668  1.5174  0.9256 -0.8828
 5110TIP3    H236746   6.157   3.367  11.799 -1.1039  0.9884  0.4595
 5111TIP3   OH236747   4.021   2.491   2.406  0.6305 -0.0907 -0.4915
 5111TIP3    H136748   3.932   2.497   2.441  0.3998  0.1520 -1.1007
 5111TIP3    H236749   4.044   2.399   2.414  0.7197  0.0093  0.6090
 5112TIP3   OH236750   2.568   4.230  12.832  0.0582  0.3472  0.1828
 5112TIP3    H136751   2.646   4.248  12.884  0.8231 -0.3637 -0.7028
 5112TIP3    H236752   2.574   4.290  12.758 -0.7878  1.0246  0.6453
 5113TIP3   OH236753   0.546   6.292  13.255 -0.4334  0.4290  0.3457
 5113TIP3    H136754   0.636   6.293  13.287  0.7105  0.6145 -2.5982
 5113TIP3    H236755   0.531   6.201  13.228 -0.2952  0.8368 -1.2029
 5114TIP3   OH236756   0.484   1.508   4.773 -0.0470  0.3740 -0.2413
 5114TIP3    H136757   0.497   1.414   4.759  1.1113  0.0181  2.4670
 5114TIP3    H236758   0.393   1.524   4.751 -0.0072 -1.1678 -1.6903
 5115TIP3   OH236759   2.608   3.768   2.571  0.0523 -0.1527  0.7000
 5115TIP3    H136760   2.594   3.682   2.609  1.4927 -0.5343  0.4311
 5115TIP3    H236761   2.625   3.826   2.646 -2.1533  0.2093  0.9878
 5116TIP3   OH236762   4.442   1.767  13.964 -0.2668 -0.7210  0.4122
 5116TIP3    H136763   4.356   1.738  13.933 -0.7763  1.6294 -0.5826
 5116TIP3    H236764   4.426   1.800  14.052 -0.8848  1.6231 -0.5162
 5117TIP3   OH236765   4.593   2.676  14.621 -0.0303 -0.2069  0.0778
 5117TIP3    H136766   4.644   2.756  14.607 -0.4376  0.1066  0.3618
 5117TIP3    H236767   4.608   2.624  14.542 -0.4183  0.5076 -0.4751
 5118TIP3   OH236768   4.204   4.073   2.924 -0.5053 -0.1565  0.4310
 5118TIP3    H136769   4.183   4.158   2.964 -5.1679 -0.8003 -0.0577
 5118TIP3    H236770   4.219   4.015   2.999  0.6236  0.6409  0.8432
 5119TIP3   OH236771   0.721   1.945  14.544  0.0800 -0.0663  0.2660
 5119TIP3    H136772   0.796   1.940  14.604 -0.9954  1.8773  1.9346
 5119TIP3    H236773   0.696   2.037  14.546 -0.7384 -0.1773 -2.3549
 5120TIP3   OH236774   6.753   4.661  14.075 -0.7332  0.2078 -0.4895
 5120TIP3    H136775   6.730   4.636  13.985 -0.5956 -1.7833 -0.0238
 5120TIP3    H236776   6.707   4.744  14.089 -0.1811  0.9377 -2.6136
 5121TIP3   OH236777   1.515   0.731   5.066 -0.0453 -0.3758  0.3948
 5121TIP3    H136778   1.500   0.701   4.977 -1.5579 -2.4985  1.3102
 5121TIP3    H236779   1.583   0.798   5.057 -0.1175 -0.5695 -2.3176
 5122TIP3   OH236780   5.902   0.927   6.289 -0.3428  0.2709 -0.4797
 5122TIP3    H136781   5.809   0.908   6.301 -0.2229 -0.1881 -0.2534
 5122TIP3    H236782   5.946   0.876   6.357  0.2336 -1.1026 -1.8094
 5123TIP3   OH236783   5.790   0.270  16.726  0.4491  0.0114  0.1994
 5123TIP3    H136784   5.880   0.253  16.696 -0.8293 -2.4088 -2.8080
 5123TIP3    H236785   5.780   0.214  16.803  1.4335  0.0565  0.3752
 5124TIP3   OH236786   0.240   0.147  11.613  0.2274  0.3639  0.4808
 5124TIP3    H136787   0.220   0.221  11.556  0.1381  2.2775  2.8065
 5124TIP3    H236788   0.335   0.153  11.627  0.1788  0.2306  0.8974
 5125TIP3   OH236789   6.721   2.331  15.969  0.3930 -0.6002  0.4432
 5125TIP3    H136790   6.710   2.262  16.034 -0.8860 -0.0008  0.8926
 5125TIP3    H236791   6.639   2.330  15.919  0.1778  0.8627  0.7303
 5126TIP3   OH236792   0.858   5.449   3.740  0.3283  0.3247 -0.6797
 5126TIP3    H136793   0.906   5.508   3.682  0.0095  1.5413  0.2695
 5126TIP3    H236794   0.898   5.363   3.724  2.3625  1.1745 -0.4268
 5127TIP3   OH236795   4.995   2.244   2.133  0.1228 -0.4369  0.5543
 5127TIP3    H136796   5.077   2.206   2.166  0.8311  0.1977 -0.4177
 5127TIP3    H236797   4.948   2.169   2.095  0.1727 -0.8330  1.2576
 5128TIP3   OH236798   0.181   4.591   1.279 -0.0242  0.1183  0.1785
 5128TIP3    H136799   0.088   4.569   1.271  0.0223 -0.0577  0.1229
 5128TIP3    H236800   0.182   4.686   1.288 -0.1566  0.2080 -0.6713
 5129TIP3   OH236801   6.416   3.740  16.519 -0.0164 -0.2223 -0.3328
 5129TIP3    H136802   6.420   3.655  16.564  1.0861 -0.1309 -0.2395
 5129TIP3    H236803   6.353   3.726  16.448  1.2767 -1.5906 -1.2622
 5130TIP3   OH236804   3.062   0.067   3.449 -0.4992  0.8300  0.5822
 5130TIP3    H136805   3.015   0.038   3.527  1.5189 -0.3421  1.4498
 5130TIP3    H236806   3.097   0.153   3.473 -1.3157  1.2528  0.2998
 5131TIP3   OH236807   3.548   3.424   5.610 -0.2083  0.0617 -0.3336
 5131TIP3    H136808   3.501   3.467   5.682  1.4862  0.9227  0.2984
 5131TIP3    H236809   3.634   3.466   5.609  0.8034 -1.9186 -1.0324
 5132TIP3   OH236810   6.284   3.221   4.155  0.4748  1.0652  0.0808
 5132TIP3    H136811   6.320   3.304   4.186  0.0968  1.8403 -1.4571
 5132TIP3    H236812   6.334   3.154   4.202  2.2276  2.1262 -0.1787
 5133TIP3   OH236813   3.328   5.687   2.473 -0.1073  0.5270 -0.2306
 5133TIP3    H136814   3.308   5.605   2.428 -0.4612  0.8490 -0.6651
 5133TIP3    H236815   3.299   5.755   2.413  0.3407  0.9771  0.0549
 5134TIP3   OH236816   0.157   5.082   1.103 -0.3571 -0.3792 -0.4538
 5134TIP3    H136817   0.240   5.035   1.095  0.0654  0.3585 -0.4586
 5134TIP3    H236818   0.142   5.089   1.197 -0.1442 -0.0592 -0.4402
 5135TIP3   OH236819   2.931   2.705  13.778  0.0558 -0.0807 -0.1780
 5135TIP3    H136820   2.840   2.732  13.764  0.4235  1.0350 -0.5205
 5135TIP3    H236821   2.926   2.643  13.850 -1.0808 -0.7272 -0.7726
 5136TIP3   OH236822   6.627   0.833  17.219  0.1716  0.0916  0.5079
 5136TIP3    H136823   6.586   0.750  17.245 -1.0751  0.1902 -0.9925
 5136TIP3    H236824   6.555   0.884  17.181  0.7438  2.2161  2.1270
 5137TIP3   OH236825   0.013   0.490  16.269  0.0520  0.1411  0.2557
 5137TIP3    H136826   0.089   0.433  16.280  0.2946  0.6683  1.4223
 5137TIP3    H236827  -0.062   0.432  16.271  0.3371 -0.2162  0.7375
 5138TIP3   OH236828   5.266   3.214   2.996 -0.0476  0.3270 -0.2854
 5138TIP3    H136829   5.186   3.255   2.961 -0.8458 -0.7813  0.1731
 5138TIP3    H236830   5.270   3.244   3.087 -0.3509 -0.1982 -0.0974
 5139TIP3   OH236831   4.457   5.626  13.348  0.1442 -0.1139  0.2958
 5139TIP3    H136832   4.508   5.589  13.276 -0.5809 -0.9659  0.1998
 5139TIP3    H236833   4.384   5.565  13.359  0.9488 -0.7531  2.6428
 5140TIP3   OH236834   4.903   5.527  14.529 -0.6583 -0.6129 -0.0055
 5140TIP3    H136835   4.936   5.575  14.453 -0.0632 -0.7892  0.1357
 5140TIP3    H236836   4.915   5.588  14.602  0.0997 -0.9645  0.1750
 5141TIP3   OH236837   2.191   3.978   2.480 -0.5325 -0.3449  0.0147
 5141TIP3    H136838   2.143   3.896   2.480  1.3310 -1.5089  0.4953
 5141TIP3    H236839   2.199   4.002   2.572 -0.5254  0.0283 -0.0808
 5142TIP3   OH236840   0.373   6.407   4.161  0.5194  1.0523 -0.0711
 5142TIP3    H136841   0.293   6.397   4.212  1.1484  1.4029  1.0383
 5142TIP3    H236842   0.366   6.342   4.091 -0.6342  0.9484  0.1234
 5143TIP3   OH236843   3.709   0.122  14.300 -0.0978  0.7136 -0.1646
 5143TIP3    H136844   3.668   0.166  14.375  1.1511 -0.2040  1.0981
 5143TIP3    H236845   3.799   0.107  14.327  0.6743  1.2666 -2.2759
 5144TIP3   OH236846   3.341   1.414   3.656 -0.2263 -0.6114  0.9428
 5144TIP3    H136847   3.382   1.356   3.721 -1.4237 -0.1517  2.1651
 5144TIP3    H236848   3.400   1.412   3.581  1.9561 -0.1075  2.5499
 5145TIP3   OH236849   3.838   2.654  14.559 -0.2603  0.1033 -0.4625
 5145TIP3    H136850   3.828   2.613  14.473 -0.6632 -2.9826  0.9269
 5145TIP3    H236851   3.915   2.710  14.550  0.8212 -1.5677 -2.3436
 5146TIP3   OH236852   0.870   6.700  11.956 -0.5102 -0.1079 -0.3501
 5146TIP3    H136853   0.828   6.773  12.002  0.2282  0.7654 -1.0314
 5146TIP3    H236854   0.830   6.701  11.869 -1.4723 -1.3795  0.0450
 5147TIP3   OH236855   3.065   1.985   1.262 -0.4783 -0.1634 -0.1341
 5147TIP3    H136856   3.048   1.901   1.304 -2.2596 -0.5950 -1.6003
 5147TIP3    H236857   3.135   1.968   1.199  1.1725  0.1582  1.5318
 5148TIP3   OH236858   4.155   5.509   6.179 -0.2704  0.1916 -0.0118
 5148TIP3    H136859   4.068   5.534   6.148  0.1163  1.1162 -0.4021
 5148TIP3    H236860   4.139   5.459   6.259 -1.2820 -1.9080 -1.4266
 5149TIP3   OH236861   2.607   3.560  12.643 -0.4604 -0.2324 -0.2330
 5149TIP3    H136862   2.593   3.580  12.550 -1.5191  0.5794  0.0764
 5149TIP3    H236863   2.646   3.640  12.679  0.2381 -0.6566 -0.0325
 5150TIP3   OH236864   2.179   6.543   4.443  0.2238  0.1161 -0.4238
 5150TIP3    H136865   2.213   6.555   4.532  0.4542  1.2670 -0.6400
 5150TIP3    H236866   2.257   6.522   4.391 -0.1443 -2.2555 -0.0975
 5151TIP3   OH236867   5.044   6.565  11.428  0.0268  0.1377 -0.3543
 5151TIP3    H136868   4.971   6.593  11.373  0.0530 -0.5143 -0.7385
 5151TIP3    H236869   5.095   6.644  11.443 -1.4040  0.8649  0.9368
 5152TIP3   OH236870   3.363   2.872   4.555 -0.0779  0.5970  0.2876
 5152TIP3    H136871   3.380   2.952   4.605  0.1465  0.1416  0.9424
 5152TIP3    H236872   3.273   2.883   4.523 -0.4068  0.6647  1.2241
 5153TIP3   OH236873   1.860   3.268   3.785 -0.1574 -0.5711  0.7282
 5153TIP3    H136874   1.876   3.339   3.847 -1.9780  0.7410 -0.1875
 5153TIP3    H236875   1.909   3.293   3.707 -1.5618  0.2359  0.0698
 5154TIP3   OH236876   2.304   1.910  17.177 -0.3090 -0.0583 -0.5811
 5154TIP3    H136877   2.298   1.815  17.170  0.1260  0.0163 -2.5365
 5154TIP3    H236878   2.240   1.943  17.114 -2.4121  1.0510  1.9262
 5155TIP3   OH236879   2.331   3.997   6.111  0.0068 -0.5989  0.1481
 5155TIP3    H136880   2.260   3.939   6.139 -0.2699 -1.3743 -1.9795
 5155TIP3    H236881   2.411   3.948   6.130 -0.2265 -1.8826 -1.7938
 5156TIP3   OH236882   1.790   2.928  13.185  0.5662 -0.4386  0.3801
 5156TIP3    H136883   1.746   2.884  13.113  1.1720  0.9751 -0.9175
 5156TIP3    H236884   1.720   2.950  13.247 -0.2004 -0.2595 -0.5411
 5157TIP3   OH236885   2.284   2.684   0.694 -0.4796 -0.5740  0.2055
 5157TIP3    H136886   2.357   2.623   0.680 -0.3660 -0.2378 -0.7395
 5157TIP3    H236887   2.297   2.717   0.782  1.0825  0.2186 -0.2920
 5158TIP3   OH236888   4.939   2.038   5.091  0.5056 -0.1609 -0.2915
 5158TIP3    H136889   4.969   2.118   5.132  0.8815  0.7018 -2.1305
 5158TIP3    H236890   4.976   1.967   5.144 -0.2843  0.8418  1.6822
 5159TIP3   OH236891   1.618   6.220   2.271  0.1691  0.0484 -0.4964
 5159TIP3    H136892   1.624   6.173   2.188  1.7103  1.3318 -1.1731
 5159TIP3    H236893   1.540   6.273   2.263 -1.8005 -2.5023  0.4088
 5160TIP3   OH236894   5.165   1.109  16.659 -0.0913  0.4492  0.4731
 5160TIP3    H136895   5.169   1.204  16.653 -2.1155  0.6901  1.9512
 5160TIP3    H236896   5.079   1.091  16.696  0.8164 -1.8797  1.6585
 5161TIP3   OH236897   5.221   5.352  13.977  0.2304  0.1711  0.0820
 5161TIP3    H136898   5.267   5.277  14.013 -0.5282  1.4452  4.2858
 5161TIP3    H236899   5.220   5.416  14.048 -2.2452  2.7851 -2.0472
 5162TIP3   OH236900   5.261   0.051   2.557  0.1181 -0.3152 -0.5907
 5162TIP3    H136901   5.187   0.009   2.600 -0.3007  0.7578 -0.2398
 5162TIP3    H236902   5.315  -0.022   2.525  0.0219 -1.1263  1.0059
 5163TIP3   OH236903   6.646   3.684   1.174 -0.0241  0.2529 -0.3206
 5163TIP3    H136904   6.579   3.713   1.236 -1.0655 -0.7000 -0.9458
 5163TIP3    H236905   6.653   3.756   1.111 -0.6854  0.2434 -0.4137
 5164TIP3   OH236906   0.462   3.733  15.007  0.1732 -0.5512  0.2186
 5164TIP3    H136907   0.513   3.668  15.056 -0.8779 -1.9431 -0.4490
 5164TIP3    H236908   0.500   3.732  14.919  0.7969  0.5060  0.4607
 5165TIP3   OH236909   6.654   2.206  13.272 -0.2190  0.1246  0.2784
 5165TIP3    H136910   6.615   2.194  13.186  0.7224  0.5408 -0.2223
 5165TIP3    H236911   6.716   2.278  13.261  1.8205 -1.4733  0.6460
 5166TIP3   OH236912   2.759   5.308  15.763  0.0666 -0.0237 -0.2065
 5166TIP3    H136913   2.695   5.250  15.721  0.3560  0.8937 -1.9998
 5166TIP3    H236914   2.725   5.396  15.749 -0.0801  0.3313  2.0091
 5167TIP3   OH236915   3.559   2.654  14.633 -0.3591 -0.0465 -0.3917
 5167TIP3    H136916   3.645   2.669  14.594  0.2130 -0.5645  0.6390
 5167TIP3    H236917   3.559   2.562  14.659 -1.4370 -0.1976 -0.8650
 5168TIP3   OH236918   6.292   3.438  13.743 -0.3934 -0.2351  0.0291
 5168TIP3    H136919   6.261   3.525  13.766 -1.3870 -0.4597 -0.4072
 5168TIP3    H236920   6.281   3.433  13.648  0.5625 -0.4985 -0.0785
 5169TIP3   OH236921   5.423   6.147  11.965 -0.3069 -0.9343 -0.7738
 5169TIP3    H136922   5.516   6.135  11.984  0.0608  1.3415 -0.8976
 5169TIP3    H236923   5.380   6.135  12.049  0.1411 -1.4779 -0.6115
 5170TIP3   OH236924   5.397   3.442   6.100  0.8632 -0.1737  0.6921
 5170TIP3    H136925   5.486   3.445   6.064  0.8908  0.6463  0.8240
 5170TIP3    H236926   5.342   3.477   6.030  0.7074 -0.1928  0.8050
 5171TIP3   OH236927   2.283   3.073   2.955 -0.0534 -0.5699 -0.2366
 5171TIP3    H136928   2.224   3.003   2.984 -0.5361 -0.7094 -1.4806
 5171TIP3    H236929   2.251   3.096   2.868 -0.8593  2.2973  0.7274
 5172TIP3   OH236930   2.074   2.187  11.169  0.2879  0.1149  1.0749
 5172TIP3    H136931   2.109   2.230  11.091  0.9400 -1.6528  0.3422
 5172TIP3    H236932   2.118   2.102  11.171 -2.5758 -1.4718  1.1689
 5173TIP3   OH236933   0.848   5.005   1.004  0.3376 -0.7137 -0.4308
 5173TIP3    H136934   0.880   4.970   1.088  1.1753  0.8497 -0.0704
 5173TIP3    H236935   0.882   4.944   0.938  2.2548 -0.3200  0.1340
 5174TIP3   OH236936   0.005   1.440  12.769  0.2223 -0.7316  0.2000
 5174TIP3    H136937   0.001   1.403  12.857 -0.6038  0.1061  0.5383
 5174TIP3    H236938   0.053   1.522  12.780 -1.5103  0.3266  0.2577
 5175TIP3   OH236939   5.039   5.086  12.109  0.2542 -0.6761  0.2012
 5175TIP3    H136940   5.087   5.003  12.113 -1.9510 -1.9810  1.9584
 5175TIP3    H236941   5.051   5.124  12.196 -0.4596 -0.1624  0.0818
 5176TIP3   OH236942   3.869   5.827  17.141  0.1874 -0.6270  0.3984
 5176TIP3    H136943   3.799   5.838  17.205 -1.1183  0.3779 -1.1118
 5176TIP3    H236944   3.949   5.848  17.189 -0.8555  1.3064  1.4247
 5177TIP3   OH236945   5.900   6.395   0.568  0.1532  0.2395 -0.4677
 5177TIP3    H136946   5.879   6.312   0.610 -0.1839  0.2556 -0.5978
 5177TIP3    H236947   5.826   6.452   0.589  0.1032  0.3261 -0.8561
 5178TIP3   OH236948   5.777   3.797  16.072  0.3193  0.2183  0.2831
 5178TIP3    H136949   5.853   3.768  16.021 -1.1195  0.0027 -1.8213
 5178TIP3    H236950   5.768   3.890  16.052 -0.4003  0.0808 -0.0330
 5179TIP3   OH236951   6.139   2.653   6.580  0.2965  0.2378 -0.2817
 5179TIP3    H136952   6.226   2.646   6.540  0.6480 -1.0638  0.6469
 5179TIP3    H236953   6.091   2.578   6.548  1.3286 -2.2471  3.3050
 5180TIP3   OH236954   1.849   1.103   4.546  0.0998 -0.3606 -0.5366
 5180TIP3    H136955   1.837   1.191   4.582 -1.4529 -0.3303 -1.0317
 5180TIP3    H236956   1.932   1.073   4.581  0.7396  1.3774 -0.4932
 5181TIP3   OH236957   1.035   4.248   1.938  0.6764  0.4113 -0.0025
 5181TIP3    H136958   1.086   4.212   1.865  0.1127  1.7110 -1.0811
 5181TIP3    H236959   0.968   4.182   1.955  0.6915  0.1842 -0.7965
 5182TIP3   OH236960   5.393   5.727  14.288 -0.3069 -0.1194 -0.2097
 5182TIP3    H136961   5.381   5.635  14.268 -3.3167 -0.0274  0.6331
 5182TIP3    H236962   5.373   5.772  14.206 -0.1966 -0.1662 -0.2630
 5183TIP3   OH236963   6.668   3.992  15.028 -0.1569 -1.0286 -0.1730
 5183TIP3    H136964   6.600   3.927  15.010 -0.7576 -0.1095 -1.3593
 5183TIP3    H236965   6.621   4.068  15.062  0.2495 -0.3673 -1.0547
 5184TIP3   OH236966   0.813   3.489  16.452 -0.2346  0.0869  0.1907
 5184TIP3    H136967   0.793   3.395  16.445 -2.3244  0.4111  1.1047
 5184TIP3    H236968   0.857   3.510  16.370 -2.1640 -1.1764 -1.2727
 5185TIP3   OH236969   3.174   5.484  13.769  0.4369 -0.2066 -0.4163
 5185TIP3    H136970   3.137   5.543  13.703  2.3199  0.5131 -0.8781
 5185TIP3    H236971   3.163   5.532  13.852 -0.3594 -0.3577 -0.4234
 5186TIP3   OH236972   3.817   1.806   4.931 -0.5934 -0.2594  0.4844
 5186TIP3    H136973   3.817   1.745   4.858 -0.0856 -0.7716  0.9084
 5186TIP3    H236974   3.779   1.758   5.004 -1.2871  0.3151  0.5173
 5187TIP3   OH236975   6.241   2.388   4.139  0.2605 -0.7978  0.3104
 5187TIP3    H136976   6.317   2.372   4.083  1.7750 -0.0005  2.0038
 5187TIP3    H236977   6.278   2.394   4.228 -1.5828  0.9914  1.0459
 5188TIP3   OH236978   4.533   3.500  14.501 -0.2199 -0.3803  0.3255
 5188TIP3    H136979   4.613   3.550  14.515  0.7386 -1.9035  0.4622
 5188TIP3    H236980   4.463   3.566  14.501  1.1305  1.1501 -1.0776
 5189TIP3   OH236981   0.343   4.693   2.827 -0.5634  0.7487 -0.0421
 5189TIP3    H136982   0.437   4.672   2.831 -0.7744  0.0111  2.4780
 5189TIP3    H236983   0.300   4.622   2.875 -1.9334  3.4106  3.0685
 5190TIP3   OH236984   2.305   4.592  16.997 -0.2803 -0.2983 -0.3671
 5190TIP3    H136985   2.282   4.666  17.054  2.0529 -1.0272  1.7001
 5190TIP3    H236986   2.379   4.623  16.946  0.1439 -0.9031 -0.1331
 5191TIP3   OH236987   3.872   1.099   2.923 -0.2448 -0.2847  0.0250
 5191TIP3    H136988   3.795   1.155   2.931  0.4709  0.8714 -0.8331
 5191TIP3    H236989   3.886   1.065   3.011 -1.3774 -0.0501  0.3138
 5192TIP3   OH236990   0.446   6.106   4.857 -0.2424 -0.4662  0.6412
 5192TIP3    H136991   0.494   6.068   4.784  0.3526  0.3145  0.6131
 5192TIP3    H236992   0.380   6.162   4.816  1.0483  1.1402  0.6830
 5193TIP3   OH236993   5.411   4.981  12.149  0.4085  0.0576  0.4095
 5193TIP3    H136994   5.369   4.945  12.071 -0.0947 -4.0108  2.3010
 5193TIP3    H236995   5.488   5.028  12.116 -0.1021 -1.0006 -2.5487
 5194TIP3   OH236996   2.338   3.079  16.634  0.7146  0.0650  0.3711
 5194TIP3    H136997   2.378   3.008  16.684  0.8937  0.4137  0.7395
 5194TIP3    H236998   2.323   3.043  16.547 -0.8473 -0.9905  1.0399
 5195TIP3   OH236999   2.041   6.079   4.193  0.6993  0.8453 -0.1415
 5195TIP3    H137000   1.989   6.098   4.270  2.0688  1.8604  0.5842
 5195TIP3    H237001   1.986   6.022   4.139 -0.7425  1.1107  1.0131
 5196TIP3   OH237002   4.209   2.707   0.579 -0.3823 -0.2884 -0.2302
 5196TIP3    H137003   4.184   2.789   0.622  0.4644 -0.1005 -0.0816
 5196TIP3    H237004   4.208   2.727   0.485  0.2959  0.0346 -0.1722
 5197TIP3   OH237005   6.494   2.939   1.608  0.3269  0.0724 -0.3808
 5197TIP3    H137006   6.527   3.024   1.636  0.4236  0.1482 -0.7241
 5197TIP3    H237007   6.572   2.890   1.583  0.1353  0.5882 -2.1455
 5198TIP3   OH237008   4.154   4.940   4.710 -0.4685  0.0356  0.5586
 5198TIP3    H137009   4.136   5.007   4.643  1.7415 -0.9484 -1.1364
 5198TIP3    H237010   4.124   4.980   4.792 -2.0304  1.8453 -0.7895
 5199TIP3   OH237011   6.630   6.450   1.230  0.1809 -0.3302 -0.0930
 5199TIP3    H137012   6.658   6.422   1.317 -2.0641 -1.2522  0.3763
 5199TIP3    H237013   6.581   6.530   1.245  1.1637  0.4253 -0.7429
 5200TIP3   OH237014   2.905   5.323  16.634  0.0410  0.0845  0.0361
 5200TIP3    H137015   2.917   5.248  16.577  1.1685  0.7373 -0.6341
 5200TIP3    H237016   2.992   5.364  16.639  0.0435 -0.0587  2.4018
 5201TIP3   OH237017   5.599   4.786  16.616  0.3022 -0.2619  0.3232
 5201TIP3    H137018   5.602   4.725  16.541  0.9504  0.0220  0.1106
 5201TIP3    H237019   5.506   4.796  16.635  0.1938 -2.5193  1.3440
 5202TIP3   OH237020   2.424   0.613  15.590  0.3248  0.0150 -0.1045
 5202TIP3    H137021   2.519   0.618  15.586  0.3697  0.0546  0.8514
 5202TIP3    H237022   2.401   0.543  15.529  0.9770 -0.1003 -0.2212
 5203TIP3   OH237023   1.582   5.260   4.903  0.3892 -0.3025 -0.1776
 5203TIP3    H137024   1.593   5.283   4.811  2.5947 -0.6763 -0.0473
 5203TIP3    H237025   1.602   5.341   4.950  0.1656 -0.3566  0.0113
 5204TIP3   OH237026   4.883   0.619  11.447 -0.0505 -0.0352  0.8345
 5204TIP3    H137027   4.816   0.552  11.462  0.2157 -0.7576 -1.0394
 5204TIP3    H237028   4.907   0.610  11.355  0.3691  2.3116  0.6437
 5205TIP3   OH237029   1.802   1.359   1.028 -0.1435  0.6038 -0.6474
 5205TIP3    H137030   1.823   1.436   1.081  1.9347 -0.5470  0.2978
 5205TIP3    H237031   1.860   1.365   0.953  0.4355 -0.3227 -0.2818
 5206TIP3   OH237032   5.514   2.842   1.729  0.5436 -0.1043 -0.3111
 5206TIP3    H137033   5.524   2.747   1.722 -0.2534 -0.0868 -2.4809
 5206TIP3    H237034   5.452   2.855   1.800  0.5737 -1.2047 -0.0701
 5207TIP3   OH237035   3.253   4.396  15.431  0.1682 -0.1935 -0.0474
 5207TIP3    H137036   3.177   4.449  15.454  1.5144  1.8400  0.1004
 5207TIP3    H237037   3.301   4.386  15.513  1.1751  0.5598 -0.5102
 5208TIP3   OH237038   4.070   0.040   4.328 -0.4986  0.6141 -0.3327
 5208TIP3    H137039   4.140   0.041   4.262  0.1920 -0.3718  0.3569
 5208TIP3    H237040   4.014  -0.033   4.301 -1.6810  1.8258 -1.2729
 5209TIP3   OH237041   6.200   0.186  12.626 -0.0037 -0.6396 -0.4994
 5209TIP3    H137042   6.191   0.236  12.545  2.6676  2.8108  1.0471
 5209TIP3    H237043   6.160   0.242  12.693  0.3101 -2.0698  0.9361
 5210TIP3   OH237044   4.497   2.182   3.072 -0.3388  0.3866 -0.5013
 5210TIP3    H137045   4.475   2.273   3.049 -0.4813  1.0966  2.0754
 5210TIP3    H237046   4.415   2.134   3.060 -0.7981  1.0259 -0.0066
 5211TIP3   OH237047   0.176   4.685  13.120  0.3965  0.3500  0.4268
 5211TIP3    H137048   0.217   4.695  13.206  0.4938  1.0362  0.3048
 5211TIP3    H237049   0.194   4.768  13.075  1.4357 -0.4598 -0.7204
 5212TIP3   OH237050   1.833   0.111  12.670  0.4388  0.1515  0.5441
 5212TIP3    H137051   1.860   0.032  12.624  1.7099 -0.1968  1.8237
 5212TIP3    H237052   1.794   0.166  12.603  1.6426 -0.5999 -0.8126
 5213TIP3   OH237053   3.323   5.331   6.437 -0.3875 -0.0589 -0.1665
 5213TIP3    H137054   3.304   5.406   6.380 -1.9768 -0.5195 -0.2884
 5213TIP3    H237055   3.238   5.306   6.474  0.5936  0.3901  2.6717
 5214TIP3   OH237056   0.450   3.831   1.583  0.3919 -0.2560 -0.2047
 5214TIP3    H137057   0.467   3.811   1.675  1.1613  2.2025  0.2726
 5214TIP3    H237058   0.534   3.864   1.550 -0.1122 -0.2480 -1.5359
 5215TIP3   OH237059   5.664   6.517   2.359  0.2716 -0.0925 -0.4918
 5215TIP3    H137060   5.753   6.552   2.351 -0.7787  3.5198  1.4724
 5215TIP3    H237061   5.668   6.460   2.435  1.0081 -0.4440 -0.7823
 5216TIP3   OH237062   1.607   3.628   5.922 -0.0012  0.3739  0.4657
 5216TIP3    H137063   1.670   3.687   5.963  0.8686  0.1966 -0.5810
 5216TIP3    H237064   1.631   3.626   5.830 -2.9008  2.0508 -0.4643
 5217TIP3   OH237065   5.413   6.533  13.640  0.4567 -0.1289  0.2363
 5217TIP3    H137066   5.500   6.544  13.679  1.1028  1.8602 -1.5963
 5217TIP3    H237067   5.424   6.464  13.574 -0.2161 -2.1997  2.1437
 5218TIP3   OH237068   0.412   4.519  15.512 -0.2590  0.3893 -0.1231
 5218TIP3    H137069   0.481   4.544  15.450 -1.1941 -0.0509 -1.3682
 5218TIP3    H237070   0.330   4.536  15.465 -0.9935  0.2128  1.0666
 5219TIP3   OH237071   5.383   3.404  11.745 -0.8527  0.4747  0.8114
 5219TIP3    H137072   5.357   3.407  11.837  1.7722 -0.9828  1.7052
 5219TIP3    H237073   5.463   3.455  11.741 -1.4145  1.2848 -0.9044
 5220TIP3   OH237074   0.910   2.556  10.851 -0.1125  0.2735 -0.6074
 5220TIP3    H137075   0.920   2.488  10.784  1.1324  1.8262 -2.1012
 5220TIP3    H237076   0.849   2.619  10.812 -2.4405 -0.6130  1.3572
 5221TIP3   OH237077   6.003   2.107   2.490 -0.4512 -0.6167 -0.1325
 5221TIP3    H137078   6.008   2.035   2.427  1.4012 -1.9115  1.3936
 5221TIP3    H237079   6.086   2.104   2.538 -1.4119  0.8728  1.7804
 5222TIP3   OH237080   6.683   1.971   0.916  0.8115 -0.9238  0.4532
 5222TIP3    H137081   6.693   2.039   0.983 -0.8705 -0.4280  0.2574
 5222TIP3    H237082   6.656   1.894   0.964 -3.2344  0.1391  0.2591
 5223TIP3   OH237083   0.670   1.167  12.369 -0.2052  0.0856 -0.7992
 5223TIP3    H137084   0.750   1.147  12.417 -0.5537  0.5445 -0.0176
 5223TIP3    H237085   0.619   1.221  12.428 -0.3483  1.2541 -1.9481
 5224TIP3   OH237086   0.001   2.928  10.507  0.2449  0.1734 -0.1186
 5224TIP3    H137087  -0.075   2.915  10.564  1.1412 -0.0791  1.0303
 5224TIP3    H237088  -0.037   2.940  10.420 -1.0250 -2.0747  0.0566
 5225TIP3   OH237089   0.832   6.640  11.481  0.2661 -0.3825 -0.0535
 5225TIP3    H137090   0.812   6.550  11.456 -1.2367  0.0835 -0.6682
 5225TIP3    H237091   0.869   6.679  11.403 -1.8858  0.3148 -0.8142
 5226TIP3   OH237092   2.403   4.026  13.686  0.0056  0.2635  1.1531
 5226TIP3    H137093   2.352   3.945  13.682 -0.0182  0.2775  1.1741
 5226TIP3    H237094   2.364   4.076  13.757 -1.1569  1.0862 -0.0198
 5227TIP3   OH237095   2.623   3.191  11.370  0.2880  0.1493  0.0126
 5227TIP3    H137096   2.699   3.249  11.374  0.8444 -0.5711  0.1621
 5227TIP3    H237097   2.622   3.159  11.279 -0.6858  1.2519 -0.3829
 5228TIP3   OH237098   3.597   6.049  11.521 -0.1313 -0.2158 -0.1934
 5228TIP3    H137099   3.683   6.034  11.480  0.3803  0.3316  0.6494
 5228TIP3    H237100   3.615   6.110  11.593 -0.6666 -2.6006  2.1099
 5229TIP3   OH237101   1.847   2.823  13.605  0.2249  0.5850 -0.5760
 5229TIP3    H137102   1.834   2.732  13.578  1.6376  0.1833  0.0097
 5229TIP3    H237103   1.941   2.838  13.594  0.0428  1.9091 -0.4577
 5230TIP3   OH237104   4.503   0.075   5.567 -0.0460 -0.5178 -0.2494
 5230TIP3    H137105   4.438   0.097   5.500 -0.9000 -2.5613 -0.1649
 5230TIP3    H237106   4.540   0.160   5.593 -0.0987  0.4100 -2.8537
 5231TIP3   OH237107   0.434   0.278   6.159 -0.4134  0.0204  0.3075
 5231TIP3    H137108   0.518   0.279   6.203 -1.0108 -1.6238  1.5771
 5231TIP3    H237109   0.440   0.204   6.097 -0.9600 -0.2108  0.5211
 5232TIP3   OH237110   1.790   3.461  12.786  0.2710 -0.1676 -0.2936
 5232TIP3    H137111   1.774   3.456  12.880  0.6373  1.5375 -0.1100
 5232TIP3    H237112   1.827   3.548  12.772  0.5604 -0.5163 -1.9748
 5233TIP3   OH237113   4.037   5.557  17.235  0.2775  0.1151 -0.1332
 5233TIP3    H137114   3.946   5.585  17.226  0.1381 -0.2178  0.2075
 5233TIP3    H237115   4.076   5.619  17.297  0.6388  1.0495 -1.2708
 5234TIP3   OH237116   1.610   1.067   3.341  0.4209  0.0709 -0.1080
 5234TIP3    H137117   1.618   1.033   3.252  2.1224 -1.1847  0.4802
 5234TIP3    H237118   1.561   1.000   3.389 -0.8057  0.9010 -0.1280
 5235TIP3   OH237119   3.082   3.923  11.469  0.0478  0.1690 -0.0787
 5235TIP3    H137120   3.076   3.983  11.543  1.1335  1.6866 -1.1539
 5235TIP3    H237121   3.011   3.860  11.483  0.4424  0.1783  2.4055
 5236TIP3   OH237122   1.080   5.847  15.424  0.1371 -0.0844 -0.6193
 5236TIP3    H137123   1.084   5.885  15.336 -0.5311  1.8230  0.1330
 5236TIP3    H237124   1.164   5.802  15.433  0.6498  0.5556 -1.8506
 5237TIP3   OH237125   4.758   6.635   3.822 -0.0979 -0.2865  0.6717
 5237TIP3    H137126   4.845   6.632   3.783  0.0969  1.2998  0.9226
 5237TIP3    H237127   4.724   6.722   3.799 -1.1606 -0.4450  1.5409
 5238TIP3   OH237128   3.548   0.069   1.338 -0.0249  0.2227  0.4109
 5238TIP3    H137129   3.524  -0.014   1.296 -0.2713 -0.5702  2.0223
 5238TIP3    H237130   3.618   0.104   1.283 -0.2283 -0.8220 -0.5631
 5239TIP3   OH237131   5.080   2.629  11.756  0.1633  0.6652  0.3412
 5239TIP3    H137132   5.167   2.659  11.784 -0.1785  0.1986  1.9978
 5239TIP3    H237133   5.029   2.710  11.747  0.0696  0.8010  1.8974
 5240TIP3   OH237134   1.172   2.454   1.195  0.1508  0.1612  0.1623
 5240TIP3    H137135   1.124   2.383   1.154 -0.6310  0.8432 -0.1393
 5240TIP3    H237136   1.109   2.526   1.200  1.2448  1.2062 -0.5866
 5241TIP3   OH237137   6.605   2.796  12.655  0.2420  0.1214 -0.3746
 5241TIP3    H137138   6.634   2.829  12.570  1.9143  0.7994  0.4166
 5241TIP3    H237139   6.510   2.795  12.648  0.3506 -0.7819 -2.5790
 5242TIP3   OH237140   2.700   6.630  11.579  0.2142  0.3650 -0.5696
 5242TIP3    H137141   2.616   6.640  11.624  1.1990  0.3532  1.3735
 5242TIP3    H237142   2.677   6.588  11.496 -1.4342 -3.0513  1.3501
 5243TIP3   OH237143   6.252   0.574   2.909  0.0008  0.0040 -0.1762
 5243TIP3    H137144   6.217   0.490   2.880  1.0671 -0.6722  0.3934
 5243TIP3    H237145   6.251   0.568   3.005  1.1707  0.1407 -0.1379
 5244TIP3   OH237146   1.554   0.245  14.752 -0.3374 -0.1609 -0.2471
 5244TIP3    H137147   1.633   0.287  14.718 -0.9965  0.4171 -1.1349
 5244TIP3    H237148   1.573   0.228  14.844 -0.1084  2.2959  0.2388
 5245TIP3   OH237149   5.151   6.766   0.366 -0.0372  0.0029 -0.3435
 5245TIP3    H137150   5.148   6.799   0.276  0.7724  0.9998 -0.0292
 5245TIP3    H237151   5.178   6.842   0.418 -2.2079 -0.0569  1.0093
 5246TIP3   OH237152   4.122   6.749  14.704 -0.4742  0.4413 -0.3628
 5246TIP3    H137153   4.082   6.836  14.702 -2.5902 -0.4658 -1.5067
 5246TIP3    H237154   4.215   6.765  14.714 -0.9602  2.7655  1.2225
 5247TIP3   OH237155   2.478   0.753   6.322  0.8322 -0.1126 -0.1375
 5247TIP3    H137156   2.429   0.834   6.307  0.1159 -0.5086  0.0213
 5247TIP3    H237157   2.412   0.689   6.347  1.2263 -1.0793 -1.4788
 5248TIP3   OH237158   1.843   4.659  15.090 -0.1760 -0.3559 -0.2667
 5248TIP3    H137159   1.825   4.572  15.057  2.4997 -1.3050  0.4858
 5248TIP3    H237160   1.758   4.696  15.112 -1.3450 -2.9103 -0.2785
 5249TIP3   OH237161   2.445   4.044  15.465  0.2867 -0.5069  0.2453
 5249TIP3    H137162   2.469   3.974  15.525 -1.0037 -1.3830 -0.2249
 5249TIP3    H237163   2.424   3.999  15.383 -0.1032  0.4784 -0.2097
 5250TIP3   OH237164   2.396   5.271  12.052  0.4475 -0.6479 -0.0505
 5250TIP3    H137165   2.343   5.332  12.104 -0.6777 -2.6376  1.2302
 5250TIP3    H237166   2.379   5.297  11.961 -0.1519  0.8070  0.4507
 5251TIP3   OH237167   1.877   0.041   4.226  0.1979 -0.3096  0.1252
 5251TIP3    H137168   1.865   0.124   4.180 -1.5093 -0.9974 -0.7787
 5251TIP3    H237169   1.818   0.047   4.301 -0.5557 -1.0116 -0.4016
 5252TIP3   OH237170   3.753   2.642   2.897  0.5482  0.1584 -0.7289
 5252TIP3    H137171   3.757   2.732   2.865 -0.3555  0.0144 -1.2764
 5252TIP3    H237172   3.820   2.638   2.965 -1.5768  2.2042  1.7082
 5253TIP3   OH237173   4.552   4.497  15.310 -0.5384 -0.0218  0.4558
 5253TIP3    H137174   4.540   4.559  15.238 -1.1812 -1.1543 -0.4484
 5253TIP3    H237175   4.633   4.524  15.352 -0.9096  1.5442  0.2048
 5254TIP3   OH237176   4.048   6.747   3.642  0.4312  0.2684 -0.4284
 5254TIP3    H137177   4.069   6.654   3.641  1.5469  0.4279  2.0285
 5254TIP3    H237178   4.061   6.775   3.551  0.8940 -1.7775 -1.0504
 5255TIP3   OH237179   1.941   1.171  13.775  0.0895  0.3177 -0.4651
 5255TIP3    H137180   1.893   1.096  13.809  1.3767  0.3802  1.6546
 5255TIP3    H237181   1.970   1.219  13.852  2.6093  0.8600 -1.6101
 5256TIP3   OH237182   1.581   4.694  14.863  0.1002  0.0347  0.0444
 5256TIP3    H137183   1.551   4.665  14.777 -1.6335  1.7794 -0.0150
 5256TIP3    H237184   1.595   4.613  14.913  0.8865 -0.9975 -1.7566
 5257TIP3   OH237185   5.268   1.282   5.200 -0.2561  0.0416 -0.1232
 5257TIP3    H137186   5.210   1.332   5.257 -0.2990 -1.0567  0.8295
 5257TIP3    H237187   5.357   1.307   5.227 -0.2827  0.3451 -0.3208
 5258TIP3   OH237188   3.695   0.167   1.583  0.4406 -0.0240  0.1574
 5258TIP3    H137189   3.618   0.158   1.526  0.2021  0.6415  0.3582
 5258TIP3    H237190   3.769   0.173   1.523  0.1860  0.7347 -0.1054
 5259TIP3   OH237191   5.087   5.133  12.787  0.0299  0.1753 -0.8078
 5259TIP3    H137192   5.055   5.214  12.747  0.6338  0.2756 -1.1024
 5259TIP3    H237193   5.179   5.150  12.806 -0.2036  0.0617  0.4777
 5260TIP3   OH237194   1.953   0.711   5.289 -0.0374 -0.0719  0.6422
 5260TIP3    H137195   1.964   0.624   5.327  1.2844 -1.2685 -2.1829
 5260TIP3    H237196   1.867   0.740   5.318 -0.3234 -2.1304  2.0027
 5261TIP3   OH237197   6.317   1.531   5.506  0.0914  0.5001 -0.2886
 5261TIP3    H137198   6.247   1.548   5.443  1.2299  0.8764 -1.4859
 5261TIP3    H237199   6.292   1.582   5.584 -1.2447  0.1582 -0.4652
 5262TIP3   OH237200   0.031   0.778   5.770 -0.0344 -0.9832  0.1902
 5262TIP3    H137201   0.065   0.867   5.776 -0.3266 -0.7635 -1.1761
 5262TIP3    H237202   0.006   0.768   5.679  1.3619 -2.9803 -0.0383
 5263TIP3   OH237203   0.043   1.696   4.725 -0.5476  0.0477 -0.8375
 5263TIP3    H137204   0.065   1.776   4.772 -1.4414  0.5804 -1.2945
 5263TIP3    H237205  -0.044   1.673   4.758 -0.1060 -1.0008 -0.3717
 5264TIP3   OH237206   5.671   6.298   3.891 -0.0543 -0.0290 -0.1416
 5264TIP3    H137207   5.764   6.294   3.913  0.1063  1.6055 -0.3862
 5264TIP3    H237208   5.629   6.337   3.968 -0.5804 -0.8958  0.0282
 5265TIP3   OH237209   0.981   4.790  12.580 -0.3143 -0.1502 -0.4155
 5265TIP3    H137210   0.935   4.716  12.618 -0.2060 -0.1970 -0.3747
 5265TIP3    H237211   1.040   4.751  12.515  0.7493 -0.2351  0.5655
 5266TIP3   OH237212   5.150   0.146   6.560  0.1470  0.4065 -0.2067
 5266TIP3    H137213   5.176   0.238   6.562  1.6415  0.0683 -1.4735
 5266TIP3    H237214   5.055   0.147   6.565 -0.0746  2.1998 -2.6508
 5267TIP3   OH237215   3.805   5.225  11.368  0.0119 -0.2043 -0.3542
 5267TIP3    H137216   3.809   5.320  11.381  0.0154 -0.3348  0.7068
 5267TIP3    H237217   3.712   5.203  11.376  0.2083 -0.5327  1.5056
 5268TIP3   OH237218   3.761   1.475  13.058  0.3756  0.2059  0.0233
 5268TIP3    H137219   3.784   1.563  13.088  1.0540  0.2041 -0.4629
 5268TIP3    H237220   3.842   1.425  13.068 -0.0841 -0.4498  0.5842
 5269TIP3   OH237221   6.607   3.138   3.136  0.3103 -0.7676 -0.1598
 5269TIP3    H137222   6.608   3.044   3.154 -1.0891 -0.7724  0.0712
 5269TIP3    H237223   6.640   3.146   3.047  2.7430 -1.2127  0.6275
 5270TIP3   OH237224   1.976   5.965  14.637  0.4210 -1.1104 -0.2922
 5270TIP3    H137225   2.016   5.949  14.722  3.0589  1.2531 -0.9180
 5270TIP3    H237226   1.944   6.055  14.642 -1.9429 -1.8441 -0.9647
 5271TIP3   OH237227   2.834   3.704  16.914 -0.1641  0.0159  0.3604
 5271TIP3    H137228   2.830   3.742  16.826  0.4803 -0.3812  0.1524
 5271TIP3    H237229   2.754   3.653  16.923 -0.3473  0.2571  0.1019
 5272TIP3   OH237230   1.364   5.198   3.021  0.3353  0.0151  0.0125
 5272TIP3    H137231   1.436   5.258   3.039 -1.5728  1.6595  2.9459
 5272TIP3    H237232   1.379   5.123   3.079  0.5868 -0.4853 -0.6836
 5273TIP3   OH237233   1.391   1.964   2.448 -0.2198  0.1714 -0.1716
 5273TIP3    H137234   1.390   2.059   2.443  0.7931  0.2420  0.6014
 5273TIP3    H237235   1.458   1.937   2.386  3.1846  0.3207  3.1197
 5274TIP3   OH237236   4.134   4.322   3.000  0.4067 -0.8716  0.6554
 5274TIP3    H137237   4.160   4.347   3.089  1.2569 -0.8127  0.3945
 5274TIP3    H237238   4.141   4.403   2.949  1.8264 -1.3130  0.1125
 5275TIP3   OH237239   4.052   0.476  15.342  0.1895  0.2626 -0.1235
 5275TIP3    H137240   4.095   0.479  15.427 -0.1420  1.7194  0.0211
 5275TIP3    H237241   3.979   0.415  15.353 -0.4867  1.2257  0.9695
 5276TIP3   OH237242   2.192   4.518   0.230  0.6497 -0.6203  0.3517
 5276TIP3    H137243   2.272   4.508   0.179  0.9699  0.1264  0.6832
 5276TIP3    H237244   2.197   4.607   0.265 -0.5740 -0.3585 -0.0485
 5277TIP3   OH237245   4.127   3.804  11.573 -0.0695  0.0278  0.2807
 5277TIP3    H137246   4.103   3.888  11.613 -1.5548 -0.1091 -0.2966
 5277TIP3    H237247   4.143   3.746  11.648 -2.2602 -0.0711  0.7247
 5278TIP3   OH237248   0.780   6.540   0.566 -0.7048  0.5282 -0.6526
 5278TIP3    H137249   0.704   6.487   0.591 -1.7908  1.0752 -2.5299
 5278TIP3    H237250   0.799   6.594   0.642 -1.2151 -0.6992  0.3837
 5279TIP3   OH237251   2.987   4.673  14.797 -0.9943 -1.3145  0.1713
 5279TIP3    H137252   2.918   4.688  14.732 -0.4333  0.0632 -0.1187
 5279TIP3    H237253   3.018   4.760  14.821  1.1383 -1.9179 -0.2226
 5280TIP3   OH237254   6.218   1.187   2.846  0.3662 -0.3574 -0.2441
 5280TIP3    H137255   6.218   1.276   2.813  2.5045  0.1081  0.8450
 5280TIP3    H237256   6.196   1.195   2.939 -0.0002 -1.0349 -0.2602
 5281TIP3   OH237257   6.054   2.401  13.207  0.1170 -0.3042 -0.1496
 5281TIP3    H137258   6.100   2.344  13.145  1.5069  0.5551  0.0526
 5281TIP3    H237259   6.120   2.463  13.237 -0.7873 -0.0578  1.4414
 5282TIP3   OH237260   6.543   1.800  16.613  0.4417  0.1744  0.0205
 5282TIP3    H137261   6.482   1.727  16.610  0.6503  0.0120 -0.4324
 5282TIP3    H237262   6.559   1.815  16.706 -0.2977  0.2339  0.1444
 5283TIP3   OH237263   6.303   3.672   4.090  0.0794  0.1492  0.3554
 5283TIP3    H137264   6.289   3.743   4.028  0.3566  0.3373  0.5074
 5283TIP3    H237265   6.215   3.649   4.120 -0.0491  0.1057 -0.0511
 5284TIP3   OH237266   1.734   0.039  13.964  0.7612  0.4460  0.3962
 5284TIP3    H137267   1.826   0.066  13.962  0.6868  0.9125  1.9626
 5284TIP3    H237268   1.696   0.079  13.885  1.6355  1.2932  0.3799
 5285TIP3   OH237269   4.852   1.983  12.321  0.8089 -0.2086  0.0503
 5285TIP3    H137270   4.760   1.980  12.345  0.5882  0.9729 -0.5571
 5285TIP3    H237271   4.855   2.042  12.245  1.7061 -2.3421 -1.6706
 5286TIP3   OH237272   4.987   4.913  14.447  0.2098  0.1371  0.1774
 5286TIP3    H137273   5.009   4.991  14.397  2.3688 -0.0166  0.7793
 5286TIP3    H237274   4.901   4.931  14.484  0.0537  1.6335 -0.8323
 5287TIP3   OH237275   2.625   1.161   4.526  0.1188  0.4706  0.5692
 5287TIP3    H137276   2.626   1.071   4.493  2.4477  0.7912 -0.4300
 5287TIP3    H237277   2.564   1.207   4.468 -1.0561 -0.4186  1.0599
 5288TIP3   OH237278   4.123   6.290  16.073  0.3063 -0.2588 -0.0421
 5288TIP3    H137279   4.143   6.232  16.000  2.9928 -1.1287  1.2774
 5288TIP3    H237280   4.207   6.306  16.116 -0.9506  1.3661  2.0475
 5289TIP3   OH237281   6.717   6.745   4.458  0.3015  0.1990  0.0724
 5289TIP3    H137282   6.670   6.824   4.485  0.4431 -0.0044  0.9546
 5289TIP3    H237283   6.796   6.745   4.512 -0.1724 -1.0602  0.8125
 5290TIP3   OH237284   4.989   1.809  12.032 -0.4743  0.9497 -0.5815
 5290TIP3    H137285   5.066   1.769  11.993 -1.0733 -0.4975 -0.3496
 5290TIP3    H237286   4.979   1.766  12.117 -1.7899  0.7691 -0.8045
 5291TIP3   OH237287   6.582   3.363  13.402  0.0414  0.4082 -0.8425
 5291TIP3    H137288   6.565   3.405  13.487  1.3817  1.3975 -1.0189
 5291TIP3    H237289   6.637   3.288  13.423 -0.0366  0.3672 -0.7861
 5292TIP3   OH237290   1.003   5.766  12.536 -0.0844 -0.6084 -0.1644
 5292TIP3    H137291   0.934   5.774  12.602  1.4181  1.2018  1.2777
 5292TIP3    H237292   1.007   5.672  12.517 -0.9884 -1.1055  1.8602
 5293TIP3   OH237293   4.816   2.770  14.202  0.2107 -0.0158  0.8814
 5293TIP3    H137294   4.737   2.806  14.240  0.9344  1.7982  0.7883
 5293TIP3    H237295   4.853   2.842  14.150  1.1634 -1.2551 -0.2608
 5294TIP3   OH237296   1.439   2.418  11.901  0.0570  0.0659  0.4402
 5294TIP3    H137297   1.519   2.366  11.892 -0.9949 -1.3608 -1.4237
 5294TIP3    H237298   1.395   2.381  11.977  0.9284  0.5845  1.2264
 5295TIP3   OH237299   0.714   1.142   4.453 -0.4236 -0.5960  0.1437
 5295TIP3    H137300   0.652   1.073   4.431 -0.0016 -0.1429 -2.9229
 5295TIP3    H237301   0.684   1.218   4.404  0.7073  0.5942  1.2097
 5296TIP3   OH237302   1.700   1.919  10.923  0.6434  0.0900  0.8167
 5296TIP3    H137303   1.757   1.931  11.000 -0.0046  0.2694  1.2823
 5296TIP3    H237304   1.626   1.978  10.939  0.2714 -0.2214  0.2765
 5297TIP3   OH237305   3.148   1.211  13.395 -0.2286  0.0340  0.1977
 5297TIP3    H137306   3.112   1.201  13.483 -1.3869 -0.3794 -0.3030
 5297TIP3    H237307   3.072   1.210  13.337  0.4959  0.4749 -0.8078
 5298TIP3   OH237308   1.594   4.193   1.364  0.1372  0.0861 -0.4323
 5298TIP3    H137309   1.613   4.178   1.456 -0.3173  0.3749 -0.2911
 5298TIP3    H237310   1.535   4.268   1.363  1.3276  1.0618 -1.0568
 5299TIP3   OH237311   2.662   2.455  16.226  0.0097 -0.7953  0.1653
 5299TIP3    H137312   2.593   2.521  16.224 -1.5423 -2.2829  1.2420
 5299TIP3    H237313   2.717   2.475  16.150 -1.1725  0.8814 -0.3135
 5300TIP3   OH237314   5.185   2.508   3.929 -0.2094  0.6915  0.0433
 5300TIP3    H137315   5.162   2.597   3.900 -3.0863  0.0675  0.0979
 5300TIP3    H237316   5.240   2.473   3.859 -0.9530  1.7365 -1.1081
 5301TIP3   OH237317   5.561   5.347  13.794 -0.1370 -0.7825  0.1403
 5301TIP3    H137318   5.565   5.384  13.882 -1.0014 -0.0214 -0.1324
 5301TIP3    H237319   5.471   5.359  13.766 -0.2640 -2.4335 -0.2583
 5302TIP3   OH237320   5.654   0.820  16.811 -0.6430 -0.6312 -0.5356
 5302TIP3    H137321   5.718   0.861  16.869 -1.5435  1.6596 -1.0808
 5302TIP3    H237322   5.623   0.744  16.860 -0.3967  0.4658  1.4052
 5303TIP3   OH237323   6.667   5.154  16.007 -0.3154  0.5261  0.1640
 5303TIP3    H137324   6.592   5.208  16.030 -0.4940  0.0340  0.7624
 5303TIP3    H237325   6.730   5.216  15.970 -0.3067  1.2524  1.3231
 5304TIP3   OH237326   1.164   6.356  14.293 -0.5807 -0.8893  0.3617
 5304TIP3    H137327   1.099   6.421  14.318 -0.8635 -0.6465 -0.9468
 5304TIP3    H237328   1.241   6.376  14.347 -0.7368  0.3855  0.1357
 5305TIP3   OH237329   2.939   1.672  12.437 -0.1870 -0.1610  0.5339
 5305TIP3    H137330   3.023   1.713  12.456 -0.1877 -0.5583  1.4185
 5305TIP3    H237331   2.944   1.586  12.478  0.4808 -1.8295 -2.6674
 5306TIP3   OH237332   5.817   5.077  16.236  0.1683  0.1474  0.0834
 5306TIP3    H137333   5.824   4.982  16.245  1.2370  0.1870 -0.1044
 5306TIP3    H237334   5.728   5.093  16.206 -0.5410 -0.6742  1.6604
 5307TIP3   OH237335   0.335   2.602   6.479  0.2820  0.5714 -0.0181
 5307TIP3    H137336   0.267   2.623   6.415  0.6507  0.6533 -0.3822
 5307TIP3    H237337   0.286   2.580   6.559 -0.1567  1.4108 -0.0375
 5308TIP3   OH237338   2.955   2.882   2.931  0.2687 -0.5920 -0.0058
 5308TIP3    H137339   2.978   2.803   2.882  0.3282 -1.1291  0.8582
 5308TIP3    H237340   2.883   2.854   2.988 -0.8902  0.4236 -0.9096
 5309TIP3   OH237341   6.246   6.101  12.120  0.0127  0.0215 -0.2990
 5309TIP3    H137342   6.247   6.191  12.087 -0.3056 -0.0463 -0.4926
 5309TIP3    H237343   6.293   6.106  12.204  0.0610  0.3523 -0.3438
 5310TIP3   OH237344   3.354   3.914  13.006  0.2680  0.1470  0.8886
 5310TIP3    H137345   3.354   3.981  13.075 -1.4913  0.7529  0.3508
 5310TIP3    H237346   3.287   3.851  13.033 -1.2635  0.9828 -0.7609
 5311TIP3   OH237347   5.586   1.655   3.655 -0.7000 -0.3386  0.1395
 5311TIP3    H137348   5.680   1.677   3.651 -0.6223 -0.5199  0.9069
 5311TIP3    H237349   5.542   1.740   3.645 -0.4633 -0.2596 -0.2990
 5312TIP3   OH237350   6.167   5.050   2.056  0.2160 -0.2394 -0.2187
 5312TIP3    H137351   6.159   5.065   1.962  0.5459  1.2334 -0.0296
 5312TIP3    H237352   6.255   5.080   2.079 -0.4929  1.1313  0.8544
 5313TIP3   OH237353   3.880   6.001  14.700  0.6978  0.3762  0.1026
 5313TIP3    H137354   3.956   5.944  14.715 -0.9726 -2.0857 -0.1956
 5313TIP3    H237355   3.816   5.973  14.764 -0.2826  1.8285 -0.2044
 5314TIP3   OH237356   2.729   3.905  13.115  0.1662 -0.5772  0.7683
 5314TIP3    H137357   2.693   3.963  13.182 -1.1574 -0.0259 -0.3660
 5314TIP3    H237358   2.799   3.955  13.074 -2.8643  1.6439 -2.2444
 5315TIP3   OH237359   6.622   4.284  15.914  0.5941  0.5905 -0.6655
 5315TIP3    H137360   6.566   4.228  15.968 -2.0638  1.9755 -1.8146
 5315TIP3    H237361   6.612   4.249  15.826  0.1702  1.8932 -1.1426
 5316TIP3   OH237362   0.230   3.261   4.337  0.3610  0.1905  0.0683
 5316TIP3    H137363   0.281   3.183   4.315  0.6597 -0.0367  1.4620
 5316TIP3    H237364   0.256   3.283   4.426  0.7579  2.2868 -0.4991
 5317TIP3   OH237365   3.387   2.653  11.700  0.1165 -0.4496  0.2058
 5317TIP3    H137366   3.376   2.743  11.668 -0.0105 -0.0445  1.3157
 5317TIP3    H237367   3.298   2.622  11.716  0.1893 -0.4586  0.6184
 5318TIP3   OH237368   0.527   5.089  15.271  0.0520  0.5918  0.6526
 5318TIP3    H137369   0.448   5.112  15.222  0.3550  0.8305  0.2725
 5318TIP3    H237370   0.559   5.009  15.228 -0.5486 -0.0920  1.4567
 5319TIP3   OH237371   4.959   6.228   4.856  0.1557 -0.4899 -0.5468
 5319TIP3    H137372   4.956   6.153   4.796  0.6499 -1.5178  0.6680
 5319TIP3    H237373   4.868   6.256   4.865 -0.0768 -1.1573 -0.7626
 5320TIP3   OH237374   0.579   6.315  16.757  0.2585  0.5906  0.2703
 5320TIP3    H137375   0.552   6.404  16.781  0.8121  1.3159 -1.5964
 5320TIP3    H237376   0.674   6.317  16.757  0.2764  0.1545 -0.2709
 5321TIP3   OH237377   3.999   4.699  15.286 -0.4311 -0.4004  0.2021
 5321TIP3    H137378   4.090   4.726  15.297 -0.4939  0.4980 -1.2165
 5321TIP3    H237379   3.957   4.718  15.370  0.7629 -1.2350  1.0110
 5322TIP3   OH237380   5.754   6.547  15.907 -0.1211 -0.5489 -0.0826
 5322TIP3    H137381   5.732   6.460  15.939  0.1753 -0.0626  1.5409
 5322TIP3    H237382   5.848   6.554  15.918 -0.5327  1.3802  3.7787
 5323TIP3   OH237383   2.794   4.566  12.064 -0.1289  0.4933 -0.1298
 5323TIP3    H137384   2.840   4.526  11.990  1.3547 -2.4930  2.2149
 5323TIP3    H237385   2.701   4.554  12.044  0.2423 -0.6265 -1.3138
 5324TIP3   OH237386   2.362   1.790   2.417  0.5146 -0.2738  0.0882
 5324TIP3    H137387   2.383   1.854   2.486  0.5106  0.8427 -0.9221
 5324TIP3    H237388   2.271   1.765   2.435  0.5695 -0.1313  0.5862
 5325TIP3   OH237389   3.818   2.907   3.278  0.5156 -0.2534 -0.3298
 5325TIP3    H137390   3.913   2.913   3.275  0.5447  0.2596  0.9090
 5325TIP3    H237391   3.789   2.951   3.198  1.3186 -0.6996 -0.8813
 5326TIP3   OH237392   4.216   3.475   6.364 -0.4389 -0.8090  0.3002
 5326TIP3    H137393   4.266   3.557   6.360  0.9667 -1.6866 -1.8214
 5326TIP3    H237394   4.282   3.408   6.381 -1.3332 -1.6970  0.3461
 5327TIP3   OH237395   2.491   1.447   2.928  0.0506 -0.4788  0.2767
 5327TIP3    H137396   2.519   1.356   2.940  1.2897 -0.0221  1.0988
 5327TIP3    H237397   2.567   1.499   2.957 -0.9611  0.8208  0.6857
 5328TIP3   OH237398   4.246   0.295   2.967 -0.1063  0.4605 -0.7528
 5328TIP3    H137399   4.237   0.250   3.051 -0.9337  0.9975 -0.5450
 5328TIP3    H237400   4.170   0.267   2.916  0.7401 -0.4006 -1.5965
 5329TIP3   OH237401   5.651   0.057   1.098 -0.0964  0.0164  0.6924
 5329TIP3    H137402   5.659  -0.020   1.155  2.3202 -0.7397 -0.5001
 5329TIP3    H237403   5.731   0.055   1.045 -0.9597  2.2094 -0.8273
 5330TIP3   OH237404   4.710   4.593  16.506 -0.4913  0.0474  0.0493
 5330TIP3    H137405   4.686   4.534  16.578 -0.5392 -0.0854 -0.0752
 5330TIP3    H237406   4.642   4.660  16.505 -0.5073  0.0317  0.1083
 5331TIP3   OH237407   2.259   2.964   5.766 -0.0507 -0.2212 -0.2720
 5331TIP3    H137408   2.274   2.927   5.853 -2.5799 -1.3100 -0.2043
 5331TIP3    H237409   2.212   3.045   5.783 -2.9964 -1.7353 -0.5579
 5332TIP3   OH237410   6.252   1.661  16.161 -0.2786  0.0704 -0.7743
 5332TIP3    H137411   6.294   1.693  16.241  1.0163 -1.0798 -0.9430
 5332TIP3    H237412   6.178   1.610  16.191  0.7984 -1.2133 -0.2197
 5333TIP3   OH237413   5.803   5.438  14.416  0.8157  0.5132  0.2030
 5333TIP3    H137414   5.709   5.422  14.402  0.2913  2.9540  0.3343
 5333TIP3    H237415   5.829   5.375  14.482 -0.7286 -0.2496  0.1356
 5334TIP3   OH237416   5.340   2.542  17.227 -0.2205  0.0691 -0.3146
 5334TIP3    H137417   5.293   2.604  17.171 -2.4117 -0.9669  0.2816
 5334TIP3    H237418   5.343   2.583  17.313  1.0524  0.6222 -0.5900
 5335TIP3   OH237419   2.528   0.947  13.325  0.4334 -0.3886  0.1407
 5335TIP3    H137420   2.456   0.924  13.266 -1.6334 -0.1072  2.4215
 5335TIP3    H237421   2.495   1.020  13.377  2.3464 -0.3155  1.3615
 5336TIP3   OH237422   1.944   2.839  10.533 -0.4536 -0.1946 -0.5626
 5336TIP3    H137423   1.869   2.782  10.519 -2.1525  1.7747  0.0177
 5336TIP3    H237424   2.020   2.781  10.525 -2.0654 -3.0407  2.2334
 5337TIP3   OH237425   2.929   0.974   1.657  0.8512  0.3694 -0.1075
 5337TIP3    H137426   2.965   0.886   1.640  1.7486  0.5723  0.6264
 5337TIP3    H237427   2.843   0.958   1.694  0.8594 -0.2003 -0.3201
 5338TIP3   OH237428   0.515   5.989   4.056  0.3152  0.1011  0.0267
 5338TIP3    H137429   0.530   6.080   4.031  1.3629 -0.1932 -0.4478
 5338TIP3    H237430   0.516   5.940   3.974 -1.4787 -0.2039  0.1419
 5339TIP3   OH237431   5.372   6.336   4.325 -0.4410 -0.2032 -0.0510
 5339TIP3    H137432   5.413   6.291   4.251 -1.4819 -2.2423  0.5609
 5339TIP3    H237433   5.292   6.374   4.289  0.4065  1.2113 -0.5506
 5340TIP3   OH237434   2.697   5.473  13.870  0.0168 -0.3909  0.1805
 5340TIP3    H137435   2.678   5.458  13.778  0.4193 -1.8673  0.3164
 5340TIP3    H237436   2.756   5.548  13.870 -0.8117  0.2932 -0.6673
 5341TIP3   OH237437   1.515   0.021  15.952  0.1845 -0.0665  0.4112
 5341TIP3    H137438   1.476   0.108  15.956 -0.7582 -0.3797 -1.3164
 5341TIP3    H237439   1.604   0.036  15.920 -0.3414  0.1748 -0.9716
 5342TIP3   OH237440   0.488   3.608   2.263  0.3014 -0.2808  0.2200
 5342TIP3    H137441   0.469   3.568   2.348  0.4208  0.7404  0.7402
 5342TIP3    H237442   0.466   3.540   2.200  0.5204 -1.1730  1.0751
 5343TIP3   OH237443   1.867   1.656  10.384 -0.1097 -0.0990 -0.4570
 5343TIP3    H137444   1.851   1.732  10.440 -2.1164 -0.4014 -0.5284
 5343TIP3    H237445   1.948   1.676  10.338 -0.3356  1.7839 -0.1131
 5344TIP3   OH237446   5.186   0.193   0.176 -0.0200  0.3770  0.1402
 5344TIP3    H137447   5.174   0.257   0.246  0.6882  1.2381 -0.4876
 5344TIP3    H237448   5.134   0.228   0.103 -1.6604 -1.0794  0.5426
 5345TIP3   OH237449   4.711   3.297   6.388  0.1496  0.3281  0.2058
 5345TIP3    H137450   4.689   3.204   6.386 -0.8471  0.5464 -2.8291
 5345TIP3    H237451   4.807   3.299   6.382  0.1829 -0.4792  0.4029
 5346TIP3   OH237452   3.432   2.664   3.071 -0.2040 -0.7426 -0.4324
 5346TIP3    H137453   3.442   2.605   2.996  0.0970  1.2559 -2.0559
 5346TIP3    H237454   3.412   2.749   3.032 -1.0648  0.1637  1.8350
 5347TIP3   OH237455   3.253   5.029   0.037 -0.6308 -0.3933  0.7061
 5347TIP3    H137456   3.165   5.004   0.065 -0.7195 -0.0449  0.7467
 5347TIP3    H237457   3.297   4.946   0.020 -2.1332 -0.6235 -2.9990
 5348TIP3   OH237458   6.099   0.671   0.694  0.3862  0.1809  0.0627
 5348TIP3    H137459   6.069   0.750   0.739  2.0460 -0.1731  1.9524
 5348TIP3    H237460   6.086   0.690   0.601  1.8800  3.2406  0.3308
 5349TIP3   OH237461   6.454   2.638   4.958  0.7489 -0.4109 -0.0064
 5349TIP3    H137462   6.544   2.614   4.982  0.8691 -0.8975 -0.8873
 5349TIP3    H237463   6.439   2.722   5.000  2.1863  0.4566 -1.1569
 5350TIP3   OH237464   5.136   3.174  13.484  0.6010  0.1452 -0.2569
 5350TIP3    H137465   5.207   3.234  13.464 -0.0239  0.9303 -0.2028
 5350TIP3    H237466   5.129   3.177  13.580 -1.3845  2.3922 -0.3697
 5351TIP3   OH237467   5.465   3.828  16.708 -0.2967 -0.6355  0.1321
 5351TIP3    H137468   5.464   3.809  16.614  1.4826  0.4746 -0.1671
 5351TIP3    H237469   5.511   3.753  16.746  1.8066  0.3303 -0.3440
 5352TIP3   OH237470   1.050   6.472   3.937 -0.2306 -0.2680  0.1637
 5352TIP3    H137471   1.114   6.471   3.865  0.1468 -2.1875  0.4668
 5352TIP3    H237472   1.088   6.531   4.002  0.2545  0.1521 -0.4822
 5353TIP3   OH237473   0.064   2.617   1.347 -0.0621 -0.2727  0.0085
 5353TIP3    H137474   0.096   2.536   1.389 -0.6348 -1.5284 -1.8670
 5353TIP3    H237475  -0.030   2.615   1.360 -0.0326  0.3515  0.3496
 5354TIP3   OH237476   2.229   1.264  11.804 -0.7024 -0.1563  0.6158
 5354TIP3    H137477   2.234   1.359  11.795  1.8282 -0.1954  0.9351
 5354TIP3    H237478   2.315   1.233  11.776 -0.5416 -2.1422  2.9973
 5355TIP3   OH237479   2.715   5.113   3.633  0.2335  0.0847  0.1222
 5355TIP3    H137480   2.684   5.108   3.542 -1.3109 -1.0949  0.6759
 5355TIP3    H237481   2.785   5.179   3.630  1.3653 -1.0673 -2.2154
 5356TIP3   OH237482   1.742   5.249   1.983 -0.0151  0.5374  0.0403
 5356TIP3    H137483   1.793   5.172   1.958 -1.2082 -0.1352 -0.3747
 5356TIP3    H237484   1.741   5.304   1.904  1.2638  1.2650  0.4832
 5357TIP3   OH237485   5.308   3.871   5.845 -0.3376  0.0949  0.4308
 5357TIP3    H137486   5.309   3.872   5.941 -1.1365 -2.7848  0.5694
 5357TIP3    H237487   5.224   3.830   5.823  0.2231 -0.1243 -1.4721
 5358TIP3   OH237488   1.072   4.521   2.029  0.1042 -0.1379 -0.9425
 5358TIP3    H137489   1.035   4.449   1.979  0.9437 -0.3502 -1.2804
 5358TIP3    H237490   1.151   4.547   1.981  0.6977 -0.0635  0.0225
 5359TIP3   OH237491   6.603   4.897  13.562  0.5309  0.1683  0.3227
 5359TIP3    H137492   6.698   4.903  13.550  0.7271  0.9718  1.9927
 5359TIP3    H237493   6.575   4.988  13.574 -0.3713 -0.1171  0.4080
 5360TIP3   OH237494   5.387   0.327  16.996 -0.0170  0.0865 -0.0792
 5360TIP3    H137495   5.328   0.321  16.921 -1.1324  1.2285  0.6727
 5360TIP3    H237496   5.344   0.387  17.056  1.4495  0.1742  0.9422
 5361TIP3   OH237497   5.000   2.200  15.057 -0.1153  0.4098 -0.2640
 5361TIP3    H137498   5.090   2.171  15.050 -0.3391 -0.7333  1.1518
 5361TIP3    H237499   4.997   2.281  15.006  1.8396  0.7737  0.1283
 5362TIP3   OH237500   6.216   3.680   5.550 -0.1005 -0.1839 -0.0511
 5362TIP3    H137501   6.143   3.637   5.507 -1.9631  1.0828  1.6938
 5362TIP3    H237502   6.183   3.706   5.636  1.4423  2.9860 -0.2426
 5363TIP3   OH237503   6.155   2.091  13.452  0.2094 -0.2655  0.0853
 5363TIP3    H137504   6.210   2.122  13.381  1.7764 -1.5165  0.6852
 5363TIP3    H237505   6.168   2.156  13.522 -0.6743  0.5143 -0.4634
 5364TIP3   OH237506   1.376   1.036   3.716  0.1660  0.1704  0.3178
 5364TIP3    H137507   1.368   1.131   3.706  0.4236  0.3178  1.4213
 5364TIP3    H237508   1.402   1.023   3.807  2.4450 -0.8462 -0.4020
 5365TIP3   OH237509   0.218   5.076  12.507 -0.0418  0.1731  0.2366
 5365TIP3    H137510   0.271   5.113  12.437  0.9940  2.0973  1.9252
 5365TIP3    H237511   0.134   5.122  12.500  0.0620  0.3662  0.2634
 5366TIP3   OH237512   1.492   0.680  13.974  0.5707  0.8273  0.0297
 5366TIP3    H137513   1.427   0.635  13.920  1.4602  1.0099 -1.2286
 5366TIP3    H237514   1.443   0.751  14.016 -0.0584  0.9259 -0.8406
 5367TIP3   OH237515   4.854   4.353   2.751  0.7126 -0.2751 -0.0061
 5367TIP3    H137516   4.783   4.359   2.688  1.6615  0.3769 -1.0436
 5367TIP3    H237517   4.888   4.442   2.759  1.5394 -0.6017  0.3285
 5368TIP3   OH237518   2.575   3.127  12.436  0.1258  0.2787 -0.7241
 5368TIP3    H137519   2.494   3.084  12.463  0.6873 -0.0913  0.4378
 5368TIP3    H237520   2.594   3.189  12.506  1.3341 -0.3037 -0.5121
 5369TIP3   OH237521   1.750   2.353   3.179 -0.4067  0.0052 -0.4570
 5369TIP3    H137522   1.815   2.291   3.147  0.0630 -0.4449  1.2858
 5369TIP3    H237523   1.667   2.304   3.178  0.1377 -1.0644  1.9281
 5370TIP3   OH237524   0.797   6.719   0.803  0.7249  0.1967  0.2186
 5370TIP3    H137525   0.803   6.812   0.783  1.1437  0.2886  0.7623
 5370TIP3    H237526   0.888   6.690   0.810  0.5957 -0.1725  0.4044
 5371TIP3   OH237527   2.620   3.116   0.122  0.0521  0.1888 -0.7234
 5371TIP3    H137528   2.701   3.165   0.117 -0.2258  0.8291  0.7043
 5371TIP3    H237529   2.566   3.163   0.185 -1.2325 -0.5215 -1.2290
 5372TIP3   OH237530   0.188   0.797   6.014  0.0197  0.7679 -0.4744
 5372TIP3    H137531   0.115   0.780   6.074  0.7270  1.1151  0.5255
 5372TIP3    H237532   0.147   0.803   5.928 -0.9289 -0.6237 -0.1713
 5373TIP3   OH237533   1.304   4.894  16.580  0.4120 -0.0994 -0.3105
 5373TIP3    H137534   1.304   4.978  16.533  1.7369  0.8359  1.2521
 5373TIP3    H237535   1.396   4.880  16.603  0.1390 -1.7980 -0.1834
 5374TIP3   OH237536   3.169   3.380   1.258 -0.5873  0.0995 -0.0519
 5374TIP3    H137537   3.206   3.398   1.344  0.4740 -0.6115 -0.3326
 5374TIP3    H237538   3.111   3.305   1.272 -1.7565  1.0572  0.3444
 5375TIP3   OH237539   3.456   5.937  14.935 -0.0123  0.2753  0.1513
 5375TIP3    H137540   3.502   6.013  14.972  1.1064  0.6551 -1.8732
 5375TIP3    H237541   3.508   5.862  14.963 -0.3431  0.3446  1.0038
 5376TIP3   OH237542   5.373   6.437  12.583  0.1717  0.4571 -0.2046
 5376TIP3    H137543   5.309   6.414  12.516 -1.3365  1.1699  0.9588
 5376TIP3    H237544   5.393   6.530  12.566 -1.3114  1.0712  1.1480
 5377TIP3   OH237545   4.330   5.022  15.541  0.0893 -0.3040 -0.1935
 5377TIP3    H137546   4.334   5.116  15.528 -0.1638 -0.5442 -2.3389
 5377TIP3    H237547   4.255   5.009  15.599  0.2760  0.8161  0.3181
 5378TIP3   OH237548   1.061   0.896   0.339  0.4584 -0.0935  0.0931
 5378TIP3    H137549   1.099   0.944   0.265 -0.2231  1.1577  0.5245
 5378TIP3    H237550   0.967   0.915   0.333  0.5463  1.2496  2.1040
 5379TIP3   OH237551   3.799   5.134   1.634 -0.2119  0.5807  0.5030
 5379TIP3    H137552   3.756   5.135   1.549  0.2567  0.0251  0.2564
 5379TIP3    H237553   3.862   5.206   1.630  1.2705 -0.6976 -0.4017
 5380TIP3   OH237554   2.757   0.577   5.095 -0.3148  0.2491  0.0714
 5380TIP3    H137555   2.851   0.593   5.085 -0.2951  0.8313  1.0846
 5380TIP3    H237556   2.732   0.625   5.174 -1.1618 -1.1182  0.6828
 5381TIP3   OH237557   6.767   0.835   3.047  0.7529  0.4007 -0.3373
 5381TIP3    H137558   6.839   0.790   3.091 -1.7375 -3.7583  0.1020
 5381TIP3    H237559   6.782   0.818   2.953  0.4181 -0.5515 -0.2395
 5382TIP3   OH237560   3.372   5.604   5.634  0.6822  0.5879  0.1789
 5382TIP3    H137561   3.322   5.637   5.709 -0.8526  0.1912 -0.6299
 5382TIP3    H237562   3.361   5.671   5.566  1.3717  0.5501  0.0174
 5383TIP3   OH237563   0.794   2.789   3.672  0.1701  0.3709 -0.1774
 5383TIP3    H137564   0.717   2.737   3.692 -0.0209  0.8390  0.3685
 5383TIP3    H237565   0.855   2.770   3.744  0.6789 -0.2163 -0.7585
 5384TIP3   OH237566   0.440   4.987  14.096 -0.9370  0.4762 -0.1267
 5384TIP3    H137567   0.380   4.929  14.143  1.2895 -1.1046  0.9103
 5384TIP3    H237568   0.419   5.074  14.128 -2.8687  0.0295 -0.0443
 5385TIP3   OH237569   2.987   2.334   1.414 -0.7555  0.0933 -0.0910
 5385TIP3    H137570   2.995   2.316   1.508 -2.6936  1.6732  0.4367
 5385TIP3    H237571   2.970   2.428   1.408  1.9864  0.6074 -2.2551
 5386TIP3   OH237572   6.633   1.668   3.847 -0.0434  0.4571 -0.0931
 5386TIP3    H137573   6.622   1.611   3.771 -0.6733  2.5277 -1.6314
 5386TIP3    H237574   6.728   1.678   3.856  0.0650 -0.5778  0.0197
 5387TIP3   OH237575   3.862   3.479  16.032  0.5269  0.1177 -0.5956
 5387TIP3    H137576   3.956   3.461  16.025  1.2427  2.9469  0.6285
 5387TIP3    H237577   3.856   3.557  16.086 -2.6299 -0.5341  0.2052
 5388TIP3   OH237578   4.184   6.483  11.901 -0.1970  0.0181  0.6894
 5388TIP3    H137579   4.168   6.396  11.866 -0.0052  0.7585 -1.3911
 5388TIP3    H237580   4.259   6.516  11.852 -0.3182  1.3917  1.3578
 5389TIP3   OH237581   3.292   3.112  16.338 -0.2142  0.3331 -0.4576
 5389TIP3    H137582   3.384   3.090  16.349 -0.4131  0.3435  1.5627
 5389TIP3    H237583   3.266   3.066  16.258  1.5410  0.4155 -1.1224
 5390TIP3   OH237584   3.548   4.874  16.570 -0.1627 -0.4222  0.1365
 5390TIP3    H137585   3.463   4.836  16.551 -0.3322  0.0097  0.0257
 5390TIP3    H237586   3.535   4.969  16.561  0.2070 -0.3254  0.5899
 5391TIP3   OH237587   6.229   0.589  12.732 -0.5020  0.1195  0.1329
 5391TIP3    H137588   6.182   0.668  12.758  1.6223  1.3262  0.5790
 5391TIP3    H237589   6.282   0.566  12.808 -0.3099 -1.1659 -0.3479
 5392TIP3   OH237590   5.244   4.210  13.039 -0.1419 -0.2144 -0.6010
 5392TIP3    H137591   5.194   4.205  12.958 -0.7689 -0.8430 -0.1899
 5392TIP3    H237592   5.322   4.156  13.022 -0.5139 -0.7531 -0.6242
 5393TIP3   OH237593   1.762   4.953   2.482 -0.2154  0.2012 -0.4659
 5393TIP3    H137594   1.693   4.905   2.528 -0.2248 -0.7912 -1.4935
 5393TIP3    H237595   1.768   5.037   2.529 -1.9516  0.2132 -0.2285
 5394TIP3   OH237596   6.411   4.394   2.365 -0.5432 -0.2192 -0.3007
 5394TIP3    H137597   6.367   4.318   2.402 -0.6302 -1.0086 -1.9556
 5394TIP3    H237598   6.453   4.361   2.285  2.3047  0.6787  0.6918
 5395TIP3   OH237599   4.461   0.066   6.361 -0.7358  0.2845  0.9853
 5395TIP3    H137600   4.542   0.115   6.375 -1.0993  0.9329  0.8837
 5395TIP3    H237601   4.454   0.009   6.437  0.7385 -1.1188  0.1322
 5396TIP3   OH237602   5.290   1.402   0.361  0.2231 -0.2644  0.5355
 5396TIP3    H137603   5.365   1.417   0.303  1.3943  0.7165  2.2080
 5396TIP3    H237604   5.257   1.316   0.335  2.7470 -1.3568  0.5495
 5397TIP3   OH237605   4.708   3.058   2.523 -0.4552  0.1406  0.2930
 5397TIP3    H137606   4.758   3.083   2.446 -0.3137 -0.0749  0.3132
 5397TIP3    H237607   4.617   3.072   2.499 -0.4555 -0.7102 -0.1971
 5398TIP3   OH237608   6.404   1.813  12.450 -0.5167  0.2415  0.1657
 5398TIP3    H137609   6.360   1.734  12.418 -2.0597  0.6833  1.1204
 5398TIP3    H237610   6.376   1.822  12.541 -0.1379  1.7318  0.1688
 5399TIP3   OH237611   6.767   4.019  11.011  0.0129 -0.5580  0.1796
 5399TIP3    H137612   6.732   4.106  11.032 -2.4669 -1.1324 -1.1490
 5399TIP3    H237613   6.861   4.033  11.001 -0.2013  1.8071  0.7627
 5400TIP3   OH237614   6.137   5.058  11.738  0.0247 -0.4359  0.7558
 5400TIP3    H137615   6.070   5.068  11.806  0.3925  0.2336  1.0229
 5400TIP3    H237616   6.171   4.969  11.752  1.4757  0.3447  2.7606
 5401TIP3   OH237617   5.519   0.144   1.396  0.0420  0.0552 -0.2826
 5401TIP3    H137618   5.490   0.074   1.337  1.4356 -0.3311 -0.5543
 5401TIP3    H237619   5.483   0.120   1.481  1.0379 -1.3836 -0.2279
 5402TIP3   OH237620   4.962   5.710  15.113 -0.1872 -0.1023  0.3545
 5402TIP3    H137621   5.025   5.700  15.184  1.4794 -0.3792 -1.1050
 5402TIP3    H237622   4.970   5.802  15.086  0.1041 -0.3129 -0.2874
 5403TIP3   OH237623   2.879   2.365  17.130  0.3458  0.3778  0.4281
 5403TIP3    H137624   2.787   2.381  17.148 -0.2527 -0.2330 -1.7672
 5403TIP3    H237625   2.888   2.270  17.130  1.0559  0.4323  0.8786
 5404TIP3   OH237626   6.086   0.065  15.719 -0.8553 -0.0907 -0.5156
 5404TIP3    H137627   6.120  -0.023  15.700 -0.0236 -0.1392  1.0053
 5404TIP3    H237628   6.113   0.118  15.644  0.6668 -0.6426 -0.3960
 5405TIP3   OH237629   3.216   5.116  12.791  0.2610 -0.3989 -0.2470
 5405TIP3    H137630   3.197   5.023  12.803 -0.1772 -0.2466  0.3094
 5405TIP3    H237631   3.211   5.130  12.697 -1.0216 -0.6715 -0.2450
 5406TIP3   OH237632   1.748   4.935  14.573  0.1405 -0.2161 -0.3439
 5406TIP3    H137633   1.786   4.883  14.644  0.4032 -0.6132 -0.7678
 5406TIP3    H237634   1.822   4.956  14.516 -0.2779 -1.1208 -1.2543
 5407TIP3   OH237635   4.823   2.219  12.980 -0.2155 -0.1653 -0.3144
 5407TIP3    H137636   4.746   2.202  12.927 -0.5782  0.5544 -0.0373
 5407TIP3    H237637   4.883   2.266  12.922 -0.5724  0.5352 -0.1331
 5408TIP3   OH237638   4.577   3.101   0.430 -0.4019 -0.0573 -0.3029
 5408TIP3    H137639   4.630   3.172   0.393  0.0560 -0.4142 -0.3322
 5408TIP3    H237640   4.578   3.118   0.525  0.4033 -0.4973 -0.2281
 5409TIP3   OH237641   4.782   5.150   0.775  0.2282 -0.2630  0.2844
 5409TIP3    H137642   4.720   5.126   0.706  0.0635  0.5841  0.1287
 5409TIP3    H237643   4.868   5.143   0.733  0.2424 -1.2887  0.4563
 5410TIP3   OH237644   3.934   6.098  11.844 -0.5031  0.2170 -0.5461
 5410TIP3    H137645   3.954   6.011  11.810 -1.5365 -0.0169 -0.5906
 5410TIP3    H237646   3.843   6.092  11.873  0.0750  0.6373  1.5304
 5411TIP3   OH237647   3.352   0.761  11.824  0.4825 -0.1020  0.0561
 5411TIP3    H137648   3.445   0.741  11.823  0.8450  1.4730 -0.7652
 5411TIP3    H237649   3.310   0.681  11.791  1.6157 -0.4605 -0.5710
 5412TIP3   OH237650   2.957   3.530  14.263 -0.1223  0.1068 -0.4735
 5412TIP3    H137651   2.929   3.558  14.350  0.7907  1.9256 -0.7084
 5412TIP3    H237652   2.929   3.601  14.205  1.0806 -0.0849 -1.3398
 5413TIP3   OH237653   0.885   2.824  14.538  0.0477  0.0158 -0.6831
 5413TIP3    H137654   0.947   2.852  14.604 -0.3964  1.0582 -0.6763
 5413TIP3    H237655   0.917   2.739  14.508  1.3651  0.4425 -0.5524
 5414TIP3   OH237656   0.749   5.449  11.747 -0.1849  0.6845 -0.3718
 5414TIP3    H137657   0.677   5.399  11.784 -0.2481  0.5516 -0.6695
 5414TIP3    H237658   0.728   5.540  11.769 -0.0395  0.5805  0.2156
 5415TIP3   OH237659   2.429   6.629  11.647  0.0312 -0.1712 -0.0526
 5415TIP3    H137660   2.359   6.613  11.583 -1.3269  0.4524  1.2370
 5415TIP3    H237661   2.391   6.605  11.731  1.4280  0.0665  0.6771
 5416TIP3   OH237662   1.422   3.415   5.086  0.4207 -0.0524  0.1463
 5416TIP3    H137663   1.482   3.478   5.126 -0.2228 -0.3283  1.6241
 5416TIP3    H237664   1.458   3.329   5.110 -0.0154 -0.2231  0.2007
 5417TIP3   OH237665   1.075   6.737   4.731 -0.4521 -0.1255 -0.2423
 5417TIP3    H137666   1.085   6.672   4.802  2.6310  0.4909  0.0190
 5417TIP3    H237667   1.018   6.804   4.768 -0.2350 -0.6234  1.0525
 5418TIP3   OH237668   1.164   6.360  15.361 -1.1002  0.0165  0.0900
 5418TIP3    H137669   1.185   6.400  15.445 -0.6457 -0.1491  0.0551
 5418TIP3    H237670   1.189   6.427  15.297  1.0768 -0.8492 -0.0567
 5419TIP3   OH237671   1.737   5.572   4.519 -0.0118  0.1659  0.7747
 5419TIP3    H137672   1.681   5.526   4.581  0.6383 -0.0330  1.2193
 5419TIP3    H237673   1.817   5.520   4.515 -0.5110 -0.5233 -1.1905
 5420TIP3   OH237674   0.685   5.225  13.581  0.1149 -0.2879 -0.2478
 5420TIP3    H137675   0.655   5.287  13.515 -0.9918 -0.1232  0.3802
 5420TIP3    H237676   0.751   5.172  13.537 -0.9460 -0.5079 -1.6155
 5421TIP3   OH237677   2.408   2.994   2.393  0.1951  0.1939  0.0846
 5421TIP3    H137678   2.490   2.945   2.406 -0.5226 -1.1443 -0.3037
 5421TIP3    H237679   2.410   3.020   2.301  0.1864  0.1686  0.0772
 5422TIP3   OH237680   5.835   4.457  15.375 -0.0834  0.0780  0.0409
 5422TIP3    H137681   5.842   4.546  15.409 -0.1134 -0.4594  1.5173
 5422TIP3    H237682   5.751   4.424  15.409 -0.5068 -0.2127 -1.2392
 5423TIP3   OH237683   1.804   4.600  16.257  0.1152  0.0270  0.0048
 5423TIP3    H137684   1.718   4.613  16.219  0.2480 -0.1989 -0.3789
 5423TIP3    H237685   1.859   4.669  16.220  0.2852 -0.2933 -0.3485
 5424TIP3   OH237686   0.997   1.835  15.616 -0.0454 -0.3643 -0.8373
 5424TIP3    H137687   0.967   1.925  15.616 -1.3803 -0.7601  0.4640
 5424TIP3    H237688   1.052   1.828  15.694 -1.8950 -1.2091  0.4676
 5425TIP3   OH237689   0.083   6.127   4.080 -0.4151 -0.1775 -0.1362
 5425TIP3    H137690   0.113   6.189   4.014 -1.3790  0.6308  0.1518
 5425TIP3    H237691   0.115   6.042   4.050 -0.6286  0.2073 -1.5073
 5426TIP3   OH237692   2.098   5.745  13.138 -0.2589 -0.3551  0.4407
 5426TIP3    H137693   2.105   5.820  13.198 -2.0830  0.1464  0.0888
 5426TIP3    H237694   2.013   5.757  13.096  1.0543 -0.5263 -2.4710
 5427TIP3   OH237695   3.891   0.700  16.961  0.2186  0.3336 -0.0383
 5427TIP3    H137696   3.812   0.728  17.006  0.6038 -0.4348  1.1513
 5427TIP3    H237697   3.860   0.659  16.880 -0.6751 -0.8331  0.8639
 5428TIP3   OH237698   3.658   5.637   3.103  0.2184  0.2529 -0.2166
 5428TIP3    H137699   3.724   5.673   3.163  1.5424 -1.6312 -0.4636
 5428TIP3    H237700   3.637   5.551   3.139 -0.9969  0.2068 -0.9870
 5429TIP3   OH237701   3.675   3.265   1.070 -0.4336  0.6821  0.1720
 5429TIP3    H137702   3.754   3.313   1.044 -0.3189  0.8151  0.7654
 5429TIP3    H237703   3.672   3.273   1.165 -0.0533 -1.0573  0.3645
 5430TIP3   OH237704   1.566   2.861   4.038  0.1060  0.1447  0.0461
 5430TIP3    H137705   1.574   2.841   4.131 -0.5302  0.4733  0.1806
 5430TIP3    H237706   1.631   2.929   4.022  2.2464 -1.8602 -0.3967
 5431TIP3   OH237707   1.792   5.261   0.908  0.1836  0.4719  0.2864
 5431TIP3    H137708   1.765   5.252   1.000  0.2794 -0.6870  0.2252
 5431TIP3    H237709   1.746   5.338   0.876 -0.4072  0.4738  1.1186
 5432TIP3   OH237710   5.335   1.049   0.028  0.2173 -0.3192  0.6863
 5432TIP3    H137711   5.395   0.995   0.080  0.7876 -1.5805 -1.1457
 5432TIP3    H237712   5.387   1.075  -0.049 -1.5922 -1.7889 -1.1719
 5433TIP3   OH237713   5.099   4.681  14.695  0.6950 -0.2111 -0.0174
 5433TIP3    H137714   5.050   4.736  14.633 -0.7239  0.8328  1.9337
 5433TIP3    H237715   5.036   4.613  14.721  1.3152 -0.7090  0.2072
 5434TIP3   OH237716   4.641   6.365   2.113  0.7876 -0.2563  0.3715
 5434TIP3    H137717   4.640   6.460   2.130 -0.9490 -0.2367  0.3285
 5434TIP3    H237718   4.665   6.358   2.021  1.3401  0.1111  0.4798
 5435TIP3   OH237719   3.059   2.203   2.428 -0.3564 -0.2415 -0.3465
 5435TIP3    H137720   3.002   2.126   2.427 -0.0313 -0.4802 -0.6809
 5435TIP3    H237721   3.082   2.217   2.336 -0.8358  0.5718 -0.3577
 5436TIP3   OH237722   5.232   0.869   1.520  0.0897 -0.2704  0.2436
 5436TIP3    H137723   5.262   0.946   1.567 -0.5362 -1.0929  2.0888
 5436TIP3    H237724   5.188   0.816   1.586 -1.7354 -1.0359 -1.4891
 5437TIP3   OH237725   5.176   4.580   4.574 -0.0485  0.0024 -0.1816
 5437TIP3    H137726   5.226   4.512   4.620  0.7778  0.5377 -0.2744
 5437TIP3    H237727   5.236   4.614   4.509 -0.8201  0.0846 -0.8658
 5438TIP3   OH237728   4.769   6.406  15.454  0.1784 -0.8015 -0.3537
 5438TIP3    H137729   4.835   6.463  15.494 -0.8611 -1.0030  1.7927
 5438TIP3    H237730   4.818   6.331  15.421  1.0957 -0.6992  0.7287
 5439TIP3   OH237731   0.496   2.830  11.563  0.4927 -0.3813 -0.3566
 5439TIP3    H137732   0.558   2.775  11.514  3.3408  1.5384  0.7986
 5439TIP3    H237733   0.432   2.768  11.597  0.2278 -2.2038 -3.6973
 5440TIP3   OH237734   6.735   6.627   4.721  0.4284 -0.4043  0.2773
 5440TIP3    H137735   6.807   6.676   4.680  0.1238 -0.1222  0.0714
 5440TIP3    H237736   6.663   6.690   4.724  0.1033 -0.7719  0.2233
 5441TIP3   OH237737   1.640   0.297   4.857 -0.4249  0.0851  0.3633
 5441TIP3    H137738   1.721   0.345   4.870  0.1018 -0.3190 -1.1136
 5441TIP3    H237739   1.608   0.277   4.945  0.5206  1.1626  0.9645
 5442TIP3   OH237740   1.874   1.375   3.055  0.2182 -0.0640  0.0761
 5442TIP3    H137741   1.883   1.456   3.105  2.4491 -1.2387  1.7088
 5442TIP3    H237742   1.899   1.399   2.966  2.0377  0.8298  0.7787
 5443TIP3   OH237743   6.096   3.750   2.186  0.0791  0.1898  0.0166
 5443TIP3    H137744   6.120   3.745   2.094  0.7723 -0.0593  0.2054
 5443TIP3    H237745   6.142   3.828   2.218  0.9182 -0.4741  0.4599
 5444TIP3   OH237746   5.504   6.558  14.845 -0.5221 -0.6259 -0.1799
 5444TIP3    H137747   5.590   6.520  14.862 -0.4965 -0.2319  0.6112
 5444TIP3    H237748   5.476   6.518  14.762  0.1684 -1.1857 -0.1522
 5445TIP3   OH237749   5.449   0.212   4.701  0.0478 -0.1173 -0.0864
 5445TIP3    H137750   5.455   0.200   4.796 -0.6719 -0.9066 -0.1338
 5445TIP3    H237751   5.533   0.251   4.677  0.3811 -0.2417  0.8231
 5446TIP3   OH237752   2.712   2.052   0.954 -0.0437  0.6025 -0.1636
 5446TIP3    H137753   2.798   2.018   0.929  0.4806  2.1832 -0.5751
 5446TIP3    H237754   2.659   2.043   0.876  0.0191  0.4953 -0.1943
 5447TIP3   OH237755   4.353   2.949   3.251 -0.0131 -0.3682 -0.3918
 5447TIP3    H137756   4.312   2.991   3.327 -0.0883  1.1782 -1.2568
 5447TIP3    H237757   4.367   2.858   3.279 -0.4847  0.0401  1.2880
 5448TIP3   OH237758   4.698   4.063  14.161  0.2142  0.3639  0.0544
 5448TIP3    H137759   4.611   4.081  14.198  1.1823  2.0698  1.6662
 5448TIP3    H237760   4.728   4.147  14.128  1.9351  0.2025  1.0729
 5449TIP3   OH237761   1.900   5.994   1.652  0.0985 -0.3192 -0.3732
 5449TIP3    H137762   1.901   5.916   1.708 -2.5428 -0.9606 -1.0635
 5449TIP3    H237763   1.933   5.964   1.568 -2.0442 -1.1001 -0.9997
 5450TIP3   OH237764   0.811   2.431   1.132 -0.2313  0.3354  0.1496
 5450TIP3    H137765   0.873   2.362   1.156  0.2477  1.0904  1.1506
 5450TIP3    H237766   0.732   2.384   1.105 -0.2168 -0.6105  1.6322
 5451TIP3   OH237767   1.006   3.091   3.508 -0.1383  0.2405  0.1199
 5451TIP3    H137768   1.033   3.002   3.485  0.3515  0.2439  0.6772
 5451TIP3    H237769   0.937   3.112   3.445  0.4737 -0.1353 -0.6842
 5452TIP3   OH237770   2.838   2.361   2.039  0.1680  0.0868 -0.4714
 5452TIP3    H137771   2.787   2.425   2.088 -0.5557  0.8912 -2.1937
 5452TIP3    H237772   2.920   2.405   2.018  0.7132 -0.4532  0.4612
 5453TIP3   OH237773   2.380   1.959  11.967  0.0676  0.1785  0.5393
 5453TIP3    H137774   2.399   1.928  11.878  1.7976  0.5876  0.7143
 5453TIP3    H237775   2.302   1.912  11.993 -1.1460  0.8530 -1.6019
 5454TIP3   OH237776   1.474   1.840  16.681 -0.2936 -0.1420 -0.3322
 5454TIP3    H137777   1.444   1.803  16.597  0.1062  1.1446 -1.0641
 5454TIP3    H237778   1.569   1.844  16.672 -0.3702  1.7440 -0.5892
 5455TIP3   OH237779   5.598   3.179  12.197  0.2116 -0.5151  0.1134
 5455TIP3    H137780   5.558   3.257  12.159  0.7726 -0.6824 -0.8301
 5455TIP3    H237781   5.558   3.172  12.284 -0.5538  0.2729 -0.1644
 5456TIP3   OH237782   6.315   3.619  14.629  0.3407  0.6059  0.2191
 5456TIP3    H137783   6.299   3.713  14.642 -1.8765  0.3199 -0.0457
 5456TIP3    H237784   6.261   3.577  14.696  0.6238 -0.4975 -0.2373
 5457TIP3   OH237785   4.595   2.165  14.968  0.2145  0.0880 -0.5795
 5457TIP3    H137786   4.582   2.090  14.911  1.2149 -0.0958 -0.5752
 5457TIP3    H237787   4.591   2.129  15.057 -0.7354  0.2818 -0.5211
 5458TIP3   OH237788   3.873   2.803  16.598  0.4293 -0.1673  0.4902
 5458TIP3    H137789   3.903   2.793  16.508  0.1614 -1.9167  0.5690
 5458TIP3    H237790   3.800   2.864  16.592  1.4707  1.0860 -0.2116
 5459TIP3   OH237791   1.050   5.659  17.296  0.4560  0.9676  0.3544
 5459TIP3    H137792   1.056   5.745  17.254  1.1207  0.9986  0.4925
 5459TIP3    H237793   1.141   5.629  17.301  0.2696  0.4537  0.7139
 5460TIP3   OH237794   6.145   3.389   4.495 -0.2146  0.6128  0.1541
 5460TIP3    H137795   6.193   3.436   4.563  1.1032 -0.4373 -0.0020
 5460TIP3    H237796   6.202   3.315   4.472 -0.9263  0.5474 -1.5998
 5461TIP3   OH237797   2.161   4.068   6.563  0.2382 -0.0046 -0.7317
 5461TIP3    H137798   2.226   3.998   6.573  1.3469  1.1712  0.9892
 5461TIP3    H237799   2.195   4.123   6.493  1.5852  0.9939  0.6175
 5462TIP3   OH237800   3.486   1.667   1.614 -0.1613  1.1740 -0.4265
 5462TIP3    H137801   3.490   1.762   1.632 -1.2450  1.0767  0.4806
 5462TIP3    H237802   3.463   1.629   1.699 -1.8970  0.3020 -1.2572
 5463TIP3   OH237803   3.166   3.017   3.489  0.3670  0.3730  0.0571
 5463TIP3    H137804   3.134   3.051   3.406 -0.4368  0.9853  0.6112
 5463TIP3    H237805   3.088   2.990   3.537  0.8987 -1.3769  0.0395
 5464TIP3   OH237806   5.230   6.232   0.911 -0.3566  0.0944  0.2238
 5464TIP3    H137807   5.263   6.158   0.962  0.1488 -0.8034 -1.3324
 5464TIP3    H237808   5.295   6.301   0.923  1.1367 -0.9777 -1.1935
 5465TIP3   OH237809   1.728   1.908   2.684 -0.1550  0.3602 -0.7652
 5465TIP3    H137810   1.666   1.844   2.718 -0.8757  0.5540 -1.6944
 5465TIP3    H237811   1.751   1.962   2.761 -0.2007 -0.4574 -0.1694
 5466TIP3   OH237812   2.477   2.363  13.817  0.2499 -0.7179 -0.2296
 5466TIP3    H137813   2.448   2.296  13.754 -0.2919  1.2534 -2.2407
 5466TIP3    H237814   2.571   2.347  13.828  0.0837 -1.9558 -0.4283
 5467TIP3   OH237815   0.686   3.622   1.668 -0.5190 -0.3448  0.0178
 5467TIP3    H137816   0.722   3.580   1.746 -0.1057  0.3003  0.1825
 5467TIP3    H237817   0.746   3.599   1.597 -1.1132 -1.2676 -0.2094
 5468TIP3   OH237818   3.873   0.506  16.758 -0.0565  0.4759  0.1662
 5468TIP3    H137819   3.884   0.462  16.674 -0.3154  1.4760 -0.4074
 5468TIP3    H237820   3.929   0.457  16.818  1.2090  0.5788 -0.8874
 5469TIP3   OH237821   5.185   6.419   3.636  0.5333  0.6152 -0.1051
 5469TIP3    H137822   5.187   6.345   3.696 -1.7088 -2.0184 -2.9453
 5469TIP3    H237823   5.131   6.389   3.563  0.1720  4.8122 -1.8514
 5470TIP3   OH237824   0.724   2.071  17.137  0.1626 -0.0267  0.1885
 5470TIP3    H137825   0.753   2.152  17.180  0.2627  0.4344 -0.7078
 5470TIP3    H237826   0.796   2.010  17.150  1.0304  0.7038 -0.9080
 5471TIP3   OH237827   1.173   1.722   2.094  0.2012 -0.1509 -0.1273
 5471TIP3    H137828   1.167   1.815   2.117  0.7548 -0.2297  0.3534
 5471TIP3    H237829   1.092   1.684   2.128  0.8093 -0.1840  1.3161
 5472TIP3   OH237830   0.054   4.875   3.883  0.4978 -0.0216 -0.0419
 5472TIP3    H137831   0.097   4.957   3.857 -0.0589  1.4937  3.2567
 5472TIP3    H237832  -0.033   4.880   3.843  0.6138  0.8344 -0.2018
 5473TIP3   OH237833   4.588   0.525   2.567  0.5910 -0.0070  0.2919
 5473TIP3    H137834   4.624   0.447   2.524  0.0166 -0.1970  0.1554
 5473TIP3    H237835   4.570   0.496   2.657  0.8769  0.1191  0.3909
 5474TIP3   OH237836   5.150   1.750   1.365  0.1459  0.2240 -0.1027
 5474TIP3    H137837   5.066   1.781   1.332 -0.4263  0.8565  1.8380
 5474TIP3    H237838   5.144   1.654   1.361 -0.5982  0.2697 -0.1506
 5475TIP3   OH237839   3.085   0.424   6.718 -0.1048 -0.1710 -0.2548
 5475TIP3    H137840   3.178   0.408   6.732  0.0369  0.5964 -0.2977
 5475TIP3    H237841   3.069   0.512   6.753 -0.3753  0.5408 -2.0247
 5476TIP3   OH237842   2.131   2.218  15.560 -0.1861  0.6232  0.2827
 5476TIP3    H137843   2.153   2.308  15.582 -0.7418  0.8439 -0.0417
 5476TIP3    H237844   2.132   2.215  15.465  0.7981  0.0286  0.3006
 5477TIP3   OH237845   4.956   2.491   0.831  0.2414  0.2039 -0.4791
 5477TIP3    H137846   4.887   2.541   0.875  1.2339  2.3696 -1.1979
 5477TIP3    H237847   5.018   2.469   0.901 -1.3423 -2.2297  0.2668
 5478TIP3   OH237848   1.253   4.327   1.094 -0.3341 -0.4971  0.1133
 5478TIP3    H137849   1.339   4.364   1.115  0.6366 -2.1492 -0.6819
 5478TIP3    H237850   1.227   4.370   1.013 -0.7523  0.7332  0.8800
 5479TIP3   OH237851   5.335   3.735  14.731  0.9371 -0.1386  0.2253
 5479TIP3    H137852   5.392   3.800  14.689 -0.0522 -0.6965 -2.1641
 5479TIP3    H237853   5.248   3.776  14.730  0.9493  0.0222  2.2739
 5480TIP3   OH237854   1.521   3.622  13.190 -0.1951  0.2223  0.5567
 5480TIP3    H137855   1.453   3.560  13.163  0.8289 -0.3747 -0.8190
 5480TIP3    H237856   1.515   3.625  13.285 -1.1229 -1.0116  0.5625
 5481TIP3   OH237857   1.942   6.395   4.101 -0.0069  0.1123 -0.0595
 5481TIP3    H137858   2.028   6.415   4.138 -0.1934  0.7685  0.0225
 5481TIP3    H237859   1.960   6.366   4.011  0.4969 -2.0143  0.6715
 5482TIP3   OH237860   4.506   4.915  15.764  0.0420  0.2487  0.4373
 5482TIP3    H137861   4.503   4.840  15.704 -0.0561  0.8275 -0.2840
 5482TIP3    H237862   4.415   4.943  15.772  0.1232  0.5062  0.4423
 5483TIP3   OH237863   4.395   5.506   3.885  0.1367  0.2275  0.0302
 5483TIP3    H137864   4.434   5.593   3.872  1.1617 -0.1156  0.7127
 5483TIP3    H237865   4.339   5.517   3.962 -0.3409  0.4674 -0.3450
 5484TIP3   OH237866   3.430   5.494  11.515 -0.3249 -0.6185 -0.7076
 5484TIP3    H137867   3.421   5.399  11.513 -1.8305 -0.4837 -2.1174
 5484TIP3    H237868   3.515   5.511  11.474 -0.1361 -1.3581 -0.6224
 5485TIP3   OH237869   1.221   5.134  11.170  0.2235 -0.1977 -0.0881
 5485TIP3    H137870   1.295   5.128  11.109  0.6477  0.1300  0.3852
 5485TIP3    H237871   1.261   5.129  11.257 -0.0862  1.9319  0.2328
 5486TIP3   OH237872   4.134   4.670  16.026 -0.3259 -0.8042 -0.1800
 5486TIP3    H137873   4.117   4.577  16.043 -0.1907 -0.6011  1.1275
 5486TIP3    H237874   4.109   4.714  16.107  1.3687  0.0948 -0.1005
 5487TIP3   OH237875   2.865   4.513  13.397  0.0068 -0.1784  0.5007
 5487TIP3    H137876   2.792   4.534  13.338  0.8622  1.3971 -0.0913
 5487TIP3    H237877   2.912   4.596  13.406  1.5377 -1.0699  1.1192
 5488TIP3   OH237878   2.530   6.419   0.915  0.3136  0.4273  0.1543
 5488TIP3    H137879   2.565   6.414   0.826 -0.5170 -1.9622 -0.1048
 5488TIP3    H237880   2.554   6.335   0.955 -0.9698  0.6870  1.5524
 5489TIP3   OH237881   0.906   3.986   5.448 -0.3874  0.5126  0.0300
 5489TIP3    H137882   0.879   4.039   5.523 -0.3676 -0.7859  1.0065
 5489TIP3    H237883   0.828   3.934   5.426  0.2322 -0.7221  0.6204
 5490TIP3   OH237884   1.581   1.032  12.667 -0.0694 -0.0849 -0.7498
 5490TIP3    H137885   1.535   0.951  12.685  1.2677 -0.7808 -0.3541
 5490TIP3    H237886   1.575   1.043  12.572  0.4917 -1.1071 -0.9061
 5491TIP3   OH237887   3.739   2.495  12.770 -0.0872  0.2085  0.0131
 5491TIP3    H137888   3.812   2.443  12.737  0.9149  2.1137 -0.9292
 5491TIP3    H237889   3.761   2.585  12.748 -1.7484  1.0784  1.5713
 5492TIP3   OH237890   3.924   6.484  11.413 -0.1995  0.2078  0.4642
 5492TIP3    H137891   3.956   6.524  11.494  0.1407  1.1645 -0.1249
 5492TIP3    H237892   3.924   6.390  11.431  0.2592  0.3823  1.4345
 5493TIP3   OH237893   0.072   1.541   1.360  0.3490  0.4323 -0.0537
 5493TIP3    H137894   0.040   1.624   1.395 -0.0232  0.5976 -0.7645
 5493TIP3    H237895   0.125   1.504   1.430 -1.7123 -0.0540  1.3195
 5494TIP3   OH237896   1.062   2.219   0.527 -0.5579  0.5055 -0.1386
 5494TIP3    H137897   1.081   2.229   0.434 -0.6231  0.0201 -0.2059
 5494TIP3    H237898   0.984   2.163   0.531  0.2881 -0.7033  0.2316
 5495TIP3   OH237899   4.865   3.435   1.529  0.0640 -0.4253 -0.2508
 5495TIP3    H137900   4.826   3.349   1.512 -1.1783  0.4016 -1.9028
 5495TIP3    H237901   4.851   3.450   1.622 -4.2866  0.0507 -0.7721
 5496TIP3   OH237902   0.987   2.763  11.522 -0.0928 -0.1339 -0.0528
 5496TIP3    H137903   1.034   2.846  11.513 -0.9895  0.2806 -1.1259
 5496TIP3    H237904   1.047   2.708  11.572  0.7022  1.0111  0.3184
 5497TIP3   OH237905   0.461   6.324   1.138 -0.2419 -0.6051  0.2385
 5497TIP3    H137906   0.390   6.350   1.080  1.0011  0.6335 -0.8100
 5497TIP3    H237907   0.441   6.367   1.221 -0.5687 -0.0001 -0.1430
 5498TIP3   OH237908   2.583   3.716   3.504 -0.7692  0.6368  0.0622
 5498TIP3    H137909   2.609   3.808   3.501 -1.3947  0.8263  0.1706
 5498TIP3    H237910   2.658   3.668   3.469 -0.7488  1.2478 -0.7603
 5499TIP3   OH237911   3.861   3.189   5.633 -0.4395 -0.6501  0.5838
 5499TIP3    H137912   3.938   3.240   5.608 -0.9154 -0.5070 -0.6621
 5499TIP3    H237913   3.797   3.207   5.564 -0.4038 -3.4351 -0.2649
 5500TIP3   OH237914   0.062   2.722  17.061 -0.5415  0.2097 -1.0424
 5500TIP3    H137915   0.052   2.777  16.983 -1.4298  1.9507  0.2207
 5500TIP3    H237916   0.005   2.763  17.126  2.1272  0.3851  1.3595
 5501TIP3   OH237917   4.376   1.328  11.733 -0.3891 -0.0041  0.1701
 5501TIP3    H137918   4.316   1.257  11.756 -0.2634 -0.9147 -2.1184
 5501TIP3    H237919   4.461   1.301  11.768 -0.6790 -0.1284  0.7998
 5502TIP3   OH237920   3.956   3.165  15.907 -0.0366  0.6401  0.4311
 5502TIP3    H137921   4.041   3.130  15.934 -0.8306 -1.3652  0.4718
 5502TIP3    H237922   3.955   3.156  15.812 -0.3428  0.3345  0.4632
 5503TIP3   OH237923   4.970   0.784   3.518 -0.1566  0.1883 -0.2409
 5503TIP3    H137924   4.910   0.776   3.444  1.4649  0.1959 -1.6173
 5503TIP3    H237925   4.925   0.740   3.590 -1.3959 -0.6458 -1.4688
 5504TIP3   OH237926   4.045   4.891   3.526  0.1748 -0.3505 -0.2737
 5504TIP3    H137927   3.963   4.842   3.531  0.1099 -0.6095 -2.6881
 5504TIP3    H237928   4.053   4.933   3.611 -2.4624 -0.3306  0.0507
 5505TIP3   OH237929   3.081   4.010  12.296 -0.4125 -0.3023  0.5252
 5505TIP3    H137930   3.153   4.047  12.245  0.1083 -0.2463  1.2879
 5505TIP3    H237931   3.054   4.080  12.355 -2.5366  0.4145 -1.1887
 5506TIP3   OH237932   3.435   4.432  13.944 -0.2370 -0.1239  0.7182
 5506TIP3    H137933   3.499   4.501  13.931 -2.0483  1.8563  1.7048
 5506TIP3    H237934   3.350   4.477  13.945 -1.8811 -2.7762 -2.0471
 5507TIP3   OH237935   0.449   5.762  16.458 -0.3303 -0.3114  0.7851
 5507TIP3    H137936   0.516   5.746  16.525  0.1489 -1.6899  0.0362
 5507TIP3    H237937   0.483   5.836  16.408  0.9244 -1.3090  0.1024
 5508TIP3   OH237938   1.667   0.104   3.126  0.1911 -0.0908 -0.0084
 5508TIP3    H137939   1.613   0.075   3.052  0.6690  1.0097 -0.8182
 5508TIP3    H237940   1.609   0.097   3.202 -0.2332 -1.4894 -0.4371
 5509TIP3   OH237941   4.397   2.531  15.631 -0.1626 -0.0228 -0.3764
 5509TIP3    H137942   4.367   2.611  15.588 -0.3980  0.6487  0.9841
 5509TIP3    H237943   4.428   2.476  15.559 -0.7958  0.9308 -1.4270
 5510TIP3   OH237944   6.208   1.574  14.413 -0.3049  0.0828 -0.3630
 5510TIP3    H137945   6.279   1.528  14.457 -1.8419 -1.4720  0.6491
 5510TIP3    H237946   6.194   1.653  14.464 -0.2343 -0.3223  0.2849
 5511TIP3   OH237947   3.160   3.261  10.894  0.0513 -0.1235 -0.0205
 5511TIP3    H137948   3.197   3.335  10.845  0.1487 -0.2837 -0.1910
 5511TIP3    H237949   3.066   3.275  10.891  0.0447 -0.2394 -0.4284
 5512TIP3   OH237950   4.811   2.056  17.223  0.2357 -0.7898  1.0654
 5512TIP3    H137951   4.750   2.101  17.281  0.8905 -1.5704  2.4075
 5512TIP3    H237952   4.897   2.093  17.246  0.2628  0.7896 -1.2615
 5513TIP3   OH237953   4.096   6.068   5.348  0.5567 -0.0037 -0.0236
 5513TIP3    H137954   4.122   6.040   5.260 -1.2512 -0.9843 -0.2860
 5513TIP3    H237955   4.178   6.097   5.389  1.3406  1.2520 -2.2719
 5514TIP3   OH237956   3.550   2.938   5.377  0.3209 -0.5571  0.2727
 5514TIP3    H137957   3.634   2.917   5.336  2.3573  1.2927  3.1643
 5514TIP3    H237958   3.550   3.033   5.385 -1.8840 -0.5443  0.7892
 5515TIP3   OH237959   6.682   5.677   3.522  0.0633 -0.6646  0.3505
 5515TIP3    H137960   6.708   5.688   3.614 -0.3581 -2.5271  0.7328
 5515TIP3    H237961   6.616   5.744   3.508 -0.4329 -0.8429  1.6588
 5516TIP3   OH237962   4.506   3.444   2.787  0.3302 -0.4096  0.0090
 5516TIP3    H137963   4.532   3.431   2.878  0.6445 -0.4877 -0.0922
 5516TIP3    H237964   4.464   3.362   2.762  1.4522 -0.8966 -0.3317
 5517TIP3   OH237965   5.979   1.614  11.519 -0.2574  0.0947 -0.4307
 5517TIP3    H137966   5.927   1.648  11.446  0.5514 -0.5346 -1.3346
 5517TIP3    H237967   6.068   1.608  11.484  0.1379 -0.2862  0.5912
 5518TIP3   OH237968   6.424   3.554  14.938 -0.2204  0.1720  0.2438
 5518TIP3    H137969   6.376   3.608  15.001 -1.6748  0.2894 -0.9106
 5518TIP3    H237970   6.512   3.547  14.974 -0.6926  1.2278  1.6732
 5519TIP3   OH237971   5.449   3.673   3.012 -0.5071 -0.7098 -0.0676
 5519TIP3    H137972   5.538   3.658   3.042  0.1082 -0.1760 -1.5318
 5519TIP3    H237973   5.449   3.764   2.981 -2.1085 -0.0326  1.7302
 5520TIP3   OH237974   6.287   3.474   2.529  0.0081  0.0092  0.0504
 5520TIP3    H137975   6.346   3.400   2.511  0.6010  0.0307  1.7797
 5520TIP3    H237976   6.238   3.485   2.447 -0.2646 -2.4246 -0.1790
 5521TIP3   OH237977   3.841   1.146   1.908  0.0552  0.4577 -0.1887
 5521TIP3    H137978   3.866   1.224   1.958 -0.5405  0.7543 -0.3403
 5521TIP3    H237979   3.890   1.075   1.949  1.5540  1.0854 -0.8058
 5522TIP3   OH237980   0.258   6.466  14.288  0.1344  0.4293  0.1351
 5522TIP3    H137981   0.278   6.470  14.382  0.4324 -0.1020  0.1020
 5522TIP3    H237982   0.244   6.373  14.271 -2.0665  0.7242  0.0763
 5523TIP3   OH237983   6.414   2.560  15.802 -0.2427 -0.7226  0.1586
 5523TIP3    H137984   6.413   2.465  15.796  1.5077 -0.8129  0.6560
 5523TIP3    H237985   6.495   2.586  15.757 -0.5767  0.5163  0.2212
 5524TIP3   OH237986   0.363   0.079   1.349  0.4757 -0.2503  0.2561
 5524TIP3    H137987   0.438   0.051   1.401 -0.6989  1.2279  2.9545
 5524TIP3    H237988   0.396   0.153   1.298  1.0622 -0.1343  0.7858
 5525TIP3   OH237989   3.252   1.163  15.234 -0.6508  0.2295 -0.2945
 5525TIP3    H137990   3.337   1.174  15.192 -0.4804  1.7696  0.3528
 5525TIP3    H237991   3.194   1.223  15.187 -0.7521  1.0463  0.8202
 5526TIP3   OH237992   4.540   4.790  16.096  0.6543 -0.0219  0.4036
 5526TIP3    H137993   4.588   4.730  16.153 -0.9531 -2.0732 -0.2942
 5526TIP3    H237994   4.581   4.779  16.010 -0.4825 -1.1706 -0.0149
 5527TIP3   OH237995   2.012   2.136  16.476  0.6849  0.4272  0.2794
 5527TIP3    H137996   1.945   2.098  16.418  0.7953  0.8956 -0.1640
 5527TIP3    H237997   2.029   2.067  16.541  0.2701  0.0436 -0.0093
 5528TIP3   OH237998   5.368   6.760  11.762  0.8074  0.5521  0.0175
 5528TIP3    H137999   5.422   6.682  11.772 -0.4691 -0.3603 -0.0968
 5528TIP3    H238000   5.423   6.831  11.795  1.2781 -0.6407  1.9194
 5529TIP3   OH238001   5.633   0.691   5.807 -0.7868 -0.4806 -0.3059
 5529TIP3    H138002   5.685   0.703   5.887 -0.0224 -0.7790 -0.7494
 5529TIP3    H238003   5.661   0.607   5.772  0.7453  0.7497 -2.2352
 5530TIP3   OH238004   0.487   0.939   2.321 -0.1781  0.1129 -0.6808
 5530TIP3    H138005   0.404   0.952   2.366  0.9251  0.4301  1.3762
 5530TIP3    H238006   0.553   0.977   2.379  1.6254 -1.7346 -1.3572
 5531TIP3   OH238007   3.108   1.828  16.333  0.0340  0.0920 -0.2457
 5531TIP3    H138008   3.183   1.883  16.311 -0.4399  1.4297  1.2537
 5531TIP3    H238009   3.108   1.826  16.429  0.4118 -3.1256 -0.1981
 5532TIP3   OH238010   5.890   4.212  12.772  0.4720 -0.1540  0.0627
 5532TIP3    H138011   5.816   4.241  12.826 -0.8861  0.5416 -2.0093
 5532TIP3    H238012   5.854   4.208  12.683  2.3124 -2.1764 -0.6961
 5533TIP3   OH238013   5.319   3.537  16.380 -0.7906  0.0148  0.3816
 5533TIP3    H138014   5.228   3.552  16.406 -1.2158  2.0458 -1.9102
 5533TIP3    H238015   5.362   3.622  16.392  0.3104 -0.4188 -0.3610
 5534TIP3   OH238016   0.061   5.782  16.194  0.4304  0.4136  0.1447
 5534TIP3    H138017   0.102   5.840  16.258  1.8297  1.0596 -1.2732
 5534TIP3    H238018   0.115   5.703  16.197  1.5117  1.0580 -1.3386
 5535TIP3   OH238019   6.012   5.156  13.274  0.3816 -0.3652 -0.2255
 5535TIP3    H138020   6.067   5.222  13.231  0.7319 -0.2259  0.4284
 5535TIP3    H238021   5.926   5.168  13.235  0.3634  0.6888  0.1040
 5536TIP3   OH238022   6.539   5.009  15.444  0.0691 -0.3181  0.0516
 5536TIP3    H138023   6.558   5.102  15.453  1.6268 -0.6706  0.7001
 5536TIP3    H238024   6.592   4.966  15.511 -1.9170 -1.5712  0.9330
 5537TIP3   OH238025   4.958   2.730   3.386  0.3218 -0.1784  0.5945
 5537TIP3    H138026   4.917   2.733   3.473  0.8363 -2.2242  0.9699
 5537TIP3    H238027   4.956   2.637   3.362  2.0488  0.0597 -0.6746
 5538TIP3   OH238028   1.278   2.323   3.330 -0.0202  0.6679 -0.1948
 5538TIP3    H138029   1.336   2.390   3.365  0.5759  0.9223 -1.6049
 5538TIP3    H238030   1.285   2.332   3.235 -0.6234 -0.8020 -0.4127
 5539TIP3   OH238031   4.147   4.628  11.079  0.1468  0.6382 -0.6212
 5539TIP3    H138032   4.145   4.600  11.171 -2.2295 -0.9596 -1.0498
 5539TIP3    H238033   4.159   4.723  11.083 -0.9617  0.7572  1.4326
 5540TIP3   OH238034   5.211   6.712  13.593  0.5842 -0.3351 -0.6390
 5540TIP3    H138035   5.282   6.651  13.612 -0.1818 -0.8708  0.6986
 5540TIP3    H238036   5.156   6.667  13.529  1.7632  0.3549 -2.1854
 5541TIP3   OH238037   5.824   0.595  15.451 -0.4793 -0.1947 -0.0101
 5541TIP3    H138038   5.856   0.685  15.454 -0.6936 -0.1260  0.2514
 5541TIP3    H238039   5.877   0.549  15.516 -0.6002 -0.1834  0.0953
 5542TIP3   OH238040   3.227   0.464   2.825 -0.4112 -0.1654  0.5719
 5542TIP3    H138041   3.136   0.474   2.855 -0.5598 -0.6694  0.2855
 5542TIP3    H238042   3.243   0.370   2.826 -0.7428 -0.3056 -1.9008
 5543TIP3   OH238043   4.479   0.060  15.588 -0.2633  0.2372 -0.1997
 5543TIP3    H138044   4.563   0.097  15.564  0.3320 -0.4271  0.7909
 5543TIP3    H238045   4.492  -0.034  15.583 -1.4977  0.1112 -1.8160
 5544TIP3   OH238046   4.809   1.880  15.666 -0.0634  0.4372  0.5675
 5544TIP3    H138047   4.744   1.812  15.650  1.8823 -1.6490  0.9841
 5544TIP3    H238048   4.768   1.938  15.730 -1.7229 -0.4392  0.3449
 5545TIP3   OH238049   1.305   5.604  17.299  0.4781 -0.5151  0.0542
 5545TIP3    H138050   1.361   5.667  17.344 -0.8017 -0.9126  2.3580
 5545TIP3    H238051   1.321   5.620  17.206  0.8391  2.6320  0.5535
 5546TIP3   OH238052   3.062   5.130   0.258 -0.6138 -0.2567 -0.2174
 5546TIP3    H138053   3.041   5.184   0.334  0.1082 -1.1046  0.6188
 5546TIP3    H238054   3.000   5.157   0.191  0.3217  2.2614 -0.1559
 5547TIP3   OH238055   3.232   6.754  16.633 -0.0486  0.2984  0.3000
 5547TIP3    H138056   3.195   6.667  16.623  0.4696 -0.0393  1.2317
 5547TIP3    H238057   3.204   6.783  16.719 -1.4483  1.6798 -0.5523
 5548TIP3   OH238058   0.278   0.420   4.277 -0.7367  0.2583  0.1128
 5548TIP3    H138059   0.292   0.470   4.358 -0.0773  0.6664 -0.2441
 5548TIP3    H238060   0.352   0.361   4.272 -2.8155 -2.7986  1.9366
 5549TIP3   OH238061   5.408   4.106  16.165  0.4839  0.1468 -0.3186
 5549TIP3    H138062   5.423   4.027  16.113  3.1883  1.6037 -1.9707
 5549TIP3    H238063   5.434   4.082  16.254 -0.0812 -1.1832 -0.4820
 5550TIP3   OH238064   4.170   3.904  12.087  0.0940 -0.0362  0.0904
 5550TIP3    H138065   4.091   3.946  12.120 -0.6036 -0.4920 -0.9328
 5550TIP3    H238066   4.183   3.942  12.000 -0.0450 -1.2555 -0.4885
 5551TIP3   OH238067   6.719   2.912   5.720 -0.2165  0.0931  0.4966
 5551TIP3    H138068   6.779   2.949   5.785 -0.5888  0.8762  0.4071
 5551TIP3    H238069   6.737   2.962   5.640 -0.7506  0.1100  0.3827
 5552TIP3   OH238070   3.348   3.093   4.859  0.5782  0.4672  0.7500
 5552TIP3    H138071   3.321   3.136   4.940 -0.7120 -1.3568  1.3713
 5552TIP3    H238072   3.280   3.028   4.843  1.9742 -0.7489 -0.5868
 5553TIP3   OH238073   3.562   4.258  11.411  0.4153 -0.3893 -0.1444
 5553TIP3    H138074   3.654   4.281  11.424  0.3552  0.6742 -1.4514
 5553TIP3    H238075   3.514   4.324  11.461  0.3332  0.0643 -0.8140
 5554TIP3   OH238076   1.203   5.721   4.187 -0.5936 -0.2568 -0.1063
 5554TIP3    H138077   1.130   5.784   4.193 -0.8274 -0.6219  1.2655
 5554TIP3    H238078   1.166   5.647   4.139  0.0457  1.0791 -2.8687
 5555TIP3   OH238079   5.130   2.552   4.789 -0.4600 -0.0976 -0.1350
 5555TIP3    H138080   5.076   2.550   4.711  0.2322 -1.4172 -0.6093
 5555TIP3    H238081   5.202   2.612   4.767 -0.6842  0.1473 -0.2074
 5556TIP3   OH238082   5.197   0.409   4.308 -0.5487 -0.5104 -0.3020
 5556TIP3    H138083   5.220   0.426   4.217 -0.2433 -2.6054 -0.6577
 5556TIP3    H238084   5.281   0.390   4.351 -0.6258  0.9242  0.5733
 5557TIP3   OH238085   3.031   1.974  11.866 -0.2851 -0.5376 -0.2942
 5557TIP3    H138086   2.998   1.988  11.955 -0.4626 -1.1734 -0.2579
 5557TIP3    H238087   3.050   1.880  11.861  1.1300 -0.2796 -0.4509
 5558TIP3   OH238088   5.650   4.626  16.365 -0.6709 -0.0667  0.0996
 5558TIP3    H138089   5.558   4.622  16.339 -0.2987 -0.7022 -1.1950
 5558TIP3    H238090   5.662   4.552  16.425 -0.4621 -1.5240 -1.6545
 5559TIP3   OH238091   6.095   2.687  15.235  0.4067  0.5668  0.3210
 5559TIP3    H138092   6.181   2.649  15.219  0.6571  1.2405  0.0295
 5559TIP3    H238093   6.098   2.717  15.326  0.6433  0.9957  0.1753
 5560TIP3   OH238094   6.166   2.174   1.585 -0.2420  0.0366 -0.4177
 5560TIP3    H138095   6.257   2.179   1.614  0.0092  0.3034 -1.2145
 5560TIP3    H238096   6.131   2.262   1.600 -0.7945 -0.4250  1.1805
 5561TIP3   OH238097   5.534   3.011   0.844 -0.3862 -0.1720 -0.4096
 5561TIP3    H138098   5.528   3.106   0.849 -3.1290 -0.2008 -1.6516
 5561TIP3    H238099   5.594   2.994   0.772 -0.0404  0.5986 -0.3124
 5562TIP3   OH238100   4.116   4.296  16.440 -0.2272  0.3355  0.1775
 5562TIP3    H138101   4.204   4.262  16.459  0.1110  0.7282 -0.6074
 5562TIP3    H238102   4.129   4.354  16.364 -1.6132 -1.8805 -1.8978
 5563TIP3   OH238103   0.643   5.990   3.475 -0.8634 -0.4620  0.0758
 5563TIP3    H138104   0.630   6.084   3.488  0.4936 -0.1237 -0.8139
 5563TIP3    H238105   0.692   5.962   3.552  1.2841  0.1836 -0.9810
 5564TIP3   OH238106   5.535   5.424  11.884 -0.4403 -0.6716  0.5828
 5564TIP3    H138107   5.444   5.401  11.866 -0.4505  0.3657 -0.7975
 5564TIP3    H238108   5.551   5.504  11.834  1.4002 -1.1409  0.3406
 5565TIP3   OH238109   4.188   3.577   3.591 -0.1254 -0.2695  0.0785
 5565TIP3    H138110   4.138   3.573   3.509  0.8162 -4.8976 -0.5629
 5565TIP3    H238111   4.277   3.598   3.563  0.3277 -2.4467 -0.3256
 5566TIP3   OH238112   0.860   0.882   1.844 -0.0979 -0.0586 -0.1230
 5566TIP3    H138113   0.933   0.926   1.887  0.3771 -0.5512 -0.4145
 5566TIP3    H238114   0.899   0.807   1.800 -0.7219 -0.1060 -0.6151
 5567TIP3   OH238115   4.808   3.026  14.061  0.0643  0.5396  0.5065
 5567TIP3    H138116   4.806   3.064  13.973 -1.0613 -0.4952  0.0588
 5567TIP3    H238117   4.873   3.078  14.107  3.4782 -1.1442 -1.9456
 5568TIP3   OH238118   3.866   0.390  14.903  0.1339 -0.4374 -0.1561
 5568TIP3    H138119   3.786   0.343  14.927  0.2599 -0.9446 -0.6996
 5568TIP3    H238120   3.937   0.330  14.924  0.2765 -0.6756 -1.2383
 5569TIP3   OH238121   6.622   1.992   4.494 -0.9574  0.5113 -0.3693
 5569TIP3    H138122   6.555   1.955   4.437 -1.0710  0.1307  0.0034
 5569TIP3    H238123   6.574   2.015   4.574 -0.7610  0.8347 -0.3446
 5570TIP3   OH238124   3.416   4.940  14.569  0.6484 -0.1822  0.4615
 5570TIP3    H138125   3.427   4.845  14.578 -1.1808 -0.6527 -1.4742
 5570TIP3    H238126   3.368   4.965  14.648 -0.9161 -1.3167 -0.0740
 5571TIP3   OH238127   0.382   1.196   2.122 -0.2126  0.1593  0.6229
 5571TIP3    H138128   0.319   1.153   2.181 -0.3325 -0.0690  0.3285
 5571TIP3    H238129   0.408   1.275   2.169 -1.4008  0.7296  0.3552
 5572TIP3   OH238130   4.129   5.201  16.159  0.4893  0.1252  0.6471
 5572TIP3    H138131   4.152   5.293  16.175  0.6936 -0.0800  1.6082
 5572TIP3    H238132   4.099   5.169  16.244 -0.2088 -0.5255  0.1629
 5573TIP3   OH238133   3.919   0.104   5.977 -0.2960 -0.2835 -0.3041
 5573TIP3    H138134   3.845   0.077   5.924 -0.0323 -2.4525  0.3512
 5573TIP3    H238135   3.969   0.024   5.992  0.3311  0.4842  2.1320
 5574TIP3   OH238136   2.750   2.252  14.739  0.2451 -0.5498  0.3963
 5574TIP3    H138137   2.798   2.333  14.755  0.4531 -0.3871 -0.8999
 5574TIP3    H238138   2.705   2.233  14.821  2.4245 -0.6474  1.6482
 5575TIP3   OH238139   4.605   2.837  13.836 -0.6611  0.1554  0.4615
 5575TIP3    H138140   4.658   2.817  13.913 -0.2235  0.5214  0.2603
 5575TIP3    H238141   4.601   2.933  13.835 -1.5115  0.1299  0.5973
 5576TIP3   OH238142   4.071   3.589  12.791 -0.3389 -0.3134  0.0577
 5576TIP3    H138143   4.139   3.574  12.726 -0.2758 -0.8199  0.2356
 5576TIP3    H238144   4.116   3.635  12.862 -0.2864 -0.2372 -0.0249
 5577TIP3   OH238145   1.539   0.216   5.123  0.3999  0.1902 -0.1721
 5577TIP3    H138146   1.558   0.230   5.216  0.7293  0.6317 -0.3056
 5577TIP3    H238147   1.584   0.134   5.102  1.2396  0.6450 -0.2031
 5578TIP3   OH238148   3.646   2.042   1.710  0.3643  0.1686 -1.2152
 5578TIP3    H138149   3.553   2.033   1.688 -0.2535  0.7051  0.9341
 5578TIP3    H238150   3.683   2.092   1.638 -1.0173 -0.0546 -2.1194
 5579TIP3   OH238151   5.498   0.695   0.366 -0.4233  0.5142 -0.2625
 5579TIP3    H138152   5.576   0.751   0.373 -2.3781  3.4968 -0.6063
 5579TIP3    H238153   5.466   0.687   0.456 -0.5237  0.5319 -0.2966
 5580TIP3   OH238154   0.461   2.918  17.169  0.1214  0.1613 -0.0699
 5580TIP3    H138155   0.372   2.949  17.184  0.0414 -0.1876  0.1878
 5580TIP3    H238156   0.454   2.823  17.164  0.5504  0.0853  0.5255
 5581TIP3   OH238157   2.256   2.220   5.076 -0.4709  0.9847 -0.5072
 5581TIP3    H138158   2.221   2.150   5.131  1.3823  1.7987  1.8716
 5581TIP3    H238159   2.187   2.288   5.076 -0.2441  1.2568  1.4487
 5582TIP3   OH238160   1.129   1.752  11.705 -0.0766 -0.1767  0.2272
 5582TIP3    H138161   1.129   1.822  11.770 -0.0712 -0.4218  0.4879
 5582TIP3    H238162   1.053   1.770  11.650 -0.4000 -0.2938  0.6383
 5583TIP3   OH238163   3.422   5.719  15.861 -0.5629 -0.5387 -0.6428
 5583TIP3    H138164   3.507   5.684  15.835 -0.5139 -1.3518  0.4955
 5583TIP3    H238165   3.364   5.643  15.859 -0.8333 -0.3784  0.2914
 5584TIP3   OH238166   3.331   3.326  16.688  0.5551 -0.0329  0.0425
 5584TIP3    H138167   3.313   3.353  16.778  0.4536 -0.6943  0.2321
 5584TIP3    H238168   3.384   3.246  16.698 -0.1456 -0.5739 -0.4673
 5585TIP3   OH238169   1.191   5.082   2.840  0.4247  0.4312 -0.1628
 5585TIP3    H138170   1.249   5.041   2.776 -1.0924 -1.0635 -0.6744
 5585TIP3    H238171   1.249   5.133   2.897  2.1267 -0.4644 -1.0233
 5586TIP3   OH238172   0.519   3.924  11.516  0.0140  0.1538  0.0651
 5586TIP3    H138173   0.537   3.888  11.429  0.6261 -0.0544  0.2746
 5586TIP3    H238174   0.463   3.859  11.558  1.4739 -0.7980  0.6059
 5587TIP3   OH238175   4.750   5.496  13.431 -0.4334 -0.2821 -0.2063
 5587TIP3    H138176   4.807   5.550  13.375  0.1693 -1.3392 -0.6289
 5587TIP3    H238177   4.754   5.540  13.517 -0.0182  0.3922 -0.5556
 5588TIP3   OH238178   2.384   6.128   6.202  0.1854  0.3414  0.0431
 5588TIP3    H138179   2.456   6.110   6.263  0.9363  1.2504 -0.5374
 5588TIP3    H238180   2.324   6.054   6.213  0.8518 -0.0743  1.0658
 5589TIP3   OH238181   1.105   2.878   2.712  0.0658 -0.6232 -0.0999
 5589TIP3    H138182   1.083   2.950   2.772 -0.9288 -0.5102 -0.5860
 5589TIP3    H238183   1.108   2.919   2.626  1.7530 -0.7401 -0.1130
 5590TIP3   OH238184   5.289   1.288  15.528  0.6724  0.1169  0.1882
 5590TIP3    H138185   5.286   1.383  15.543  0.2181  0.1997 -0.4034
 5590TIP3    H238186   5.217   1.271  15.468  1.6543 -0.3936 -0.8831
 5591TIP3   OH238187   1.866   6.396  13.502  0.2195 -0.2048 -0.3537
 5591TIP3    H138188   1.787   6.405  13.555 -0.6645 -2.1954 -1.2139
 5591TIP3    H238189   1.878   6.301  13.493  0.6338  0.0107 -3.1948
 5592TIP3   OH238190   2.174   3.294   5.297  0.5364 -0.1524 -0.4813
 5592TIP3    H138191   2.232   3.355   5.344  0.4084 -0.5789  0.2421
 5592TIP3    H238192   2.234   3.243   5.243  0.6882  0.3477 -0.7926
 5593TIP3   OH238193   2.558   6.274   4.248 -0.4427  0.2356  0.4112
 5593TIP3    H138194   2.637   6.323   4.223 -0.7466  0.4166 -0.2236
 5593TIP3    H238195   2.491   6.305   4.187 -0.5844 -1.1311 -0.1609
 5594TIP3   OH238196   5.000   1.795   2.369  0.0819 -0.0323  0.3002
 5594TIP3    H138197   4.932   1.797   2.302  0.7294  1.4749 -0.3747
 5594TIP3    H238198   4.982   1.716   2.420 -2.2413  0.3749  0.2406
 5595TIP3   OH238199   2.979   3.733  15.796  0.2036 -0.1946  0.3325
 5595TIP3    H138200   3.057   3.697  15.755  1.1227  0.7784  1.1642
 5595TIP3    H238201   2.926   3.766  15.724 -0.5124 -2.8007 -0.4398
 5596TIP3   OH238202   2.734   2.343   0.951 -0.0512 -0.2113 -0.1198
 5596TIP3    H138203   2.808   2.316   0.897 -1.0059 -0.8859 -1.1301
 5596TIP3    H238204   2.694   2.261   0.980  0.6761  0.1228  2.0063
 5597TIP3   OH238205   1.890   2.483  13.981 -0.5588 -0.3651 -0.9425
 5597TIP3    H138206   1.919   2.569  14.014  0.5315 -1.2360  0.4797
 5597TIP3    H238207   1.870   2.499  13.889  1.2959  1.0599 -1.1674
 5598TIP3   OH238208   0.931   3.812  12.747 -0.1078  0.4604 -0.1804
 5598TIP3    H138209   0.896   3.884  12.694  2.8516  1.5847 -0.8214
 5598TIP3    H238210   0.941   3.849  12.835  0.6019  0.5713 -0.3021
 5599TIP3   OH238211   5.643   3.721   1.975  0.3071  0.7185  0.0195
 5599TIP3    H138212   5.727   3.722   1.930  0.4588 -1.3492  0.1610
 5599TIP3    H238213   5.597   3.645   1.940 -1.0924  1.2030  0.6981
 5600TIP3   OH238214   6.357   2.455   1.518  1.1288 -0.1967  0.1955
 5600TIP3    H138215   6.380   2.393   1.449  0.5210  0.5414 -0.6968
 5600TIP3    H238216   6.433   2.514   1.523  0.5331  0.7104 -0.9822
 5601TIP3   OH238217   5.539   0.911   4.483 -0.7569 -0.2498  0.4462
 5601TIP3    H138218   5.471   0.852   4.450 -1.2703  0.7474 -0.3368
 5601TIP3    H238219   5.620   0.859   4.479 -1.1799 -0.8751 -0.2772
 5602TIP3   OH238220   1.077   2.743  11.021  0.2041  0.0255  0.0842
 5602TIP3    H138221   1.029   2.667  10.987  1.8660 -0.7391 -0.6101
 5602TIP3    H238222   1.149   2.757  10.960  0.5748  1.5013  0.8012
 5603TIP3   OH238223   3.361   3.077  15.920 -0.0463  0.1331  0.2776
 5603TIP3    H138224   3.300   3.008  15.947  0.3740  0.6149  2.6420
 5603TIP3    H238225   3.448   3.039  15.932  0.2520 -0.5656 -3.1152
 5604TIP3   OH238226   4.485   2.117  16.728 -0.1745 -0.2829  0.6979
 5604TIP3    H138227   4.464   2.079  16.642 -0.7905  0.5902  0.4540
 5604TIP3    H238228   4.426   2.073  16.789  0.1701 -0.8078  0.6612
 5605TIP3   OH238229   1.041   2.488  12.618 -0.4013  0.0381 -0.2321
 5605TIP3    H138230   0.996   2.428  12.559 -2.3317 -0.9437  2.0523
 5605TIP3    H238231   0.974   2.552  12.644  0.6341  1.0016  0.1744
 5606TIP3   OH238232   1.304   2.523  15.221 -0.3075 -0.0259  0.0230
 5606TIP3    H138233   1.346   2.440  15.246  2.2517  0.5044 -2.0512
 5606TIP3    H238234   1.280   2.564  15.304  1.5166 -1.3396  1.2795
 5607TIP3   OH238235   1.296   4.645   0.388  0.1010 -0.6428  0.6023
 5607TIP3    H138236   1.287   4.583   0.461 -0.0793  0.7732  1.8479
 5607TIP3    H238237   1.208   4.649   0.350 -0.3543  0.1263  1.6551
 5608TIP3   OH238238   4.261   0.552  11.985 -0.2711 -0.0389  0.2222
 5608TIP3    H138239   4.228   0.532  11.897 -1.0058  1.5126  0.1070
 5608TIP3    H238240   4.346   0.508  11.990 -0.7629 -1.1397 -0.8142
 5609TIP3   OH238241   3.293   2.648   1.948 -0.1478 -0.2241  0.0877
 5609TIP3    H138242   3.358   2.703   1.991  1.1575 -2.9858  1.9355
 5609TIP3    H238243   3.297   2.672   1.855  0.7864  2.2303  0.7011
 5610TIP3   OH238244   2.192   5.933   6.243 -0.3765 -0.3297  0.4172
 5610TIP3    H138245   2.191   5.845   6.279  2.4155 -1.1752 -1.2610
 5610TIP3    H238246   2.109   5.942   6.198 -1.3181 -1.5076  1.8177
 5611TIP3   OH238247   2.431   1.430   1.207  0.1138  0.3292 -0.2025
 5611TIP3    H138248   2.386   1.493   1.263 -0.2296  0.2969 -0.4363
 5611TIP3    H238249   2.523   1.435   1.233 -0.2757 -1.0160  1.6407
 5612TIP3   OH238250   3.835   0.063  14.046 -0.3267  0.8069  0.1454
 5612TIP3    H138251   3.771   0.029  13.984 -0.5430 -0.7843  1.1705
 5612TIP3    H238252   3.784   0.103  14.116 -0.1762  0.5510  0.4069
 5613TIP3   OH238253   4.473   0.493  14.013  0.0502 -0.4836  0.0592
 5613TIP3    H138254   4.548   0.522  14.063 -0.6991 -0.1553  1.0171
 5613TIP3    H238255   4.398   0.506  14.071 -0.8755  0.1344 -1.2281
 5614TIP3   OH238256   4.554   1.158  14.372  0.2217  0.5824 -0.0854
 5614TIP3    H138257   4.471   1.206  14.373  0.1662  0.4819  0.5253
 5614TIP3    H238258   4.574   1.143  14.464  0.4268 -0.2630 -0.2647
 5615TIP3   OH238259   5.257   5.474  14.276 -0.5157  0.1537  0.2209
 5615TIP3    H138260   5.167   5.505  14.271 -0.7632 -0.5655  0.0477
 5615TIP3    H238261   5.254   5.403  14.341 -0.3141 -0.6572 -0.6405
 5616TIP3   OH238262   5.336   1.997  12.063 -0.5587  0.0456 -0.5613
 5616TIP3    H138263   5.387   2.052  12.122 -1.1843 -0.6151  0.6510
 5616TIP3    H238264   5.245   2.018  12.084 -0.8023 -1.1386 -0.3486
 5617TIP3   OH238265   5.017   6.628   3.717  0.9276 -0.1767  0.7029
 5617TIP3    H138266   5.083   6.697   3.709 -0.0221  0.7059  0.3328
 5617TIP3    H238267   5.068   6.547   3.728  2.0594  0.5042  0.5861
 5618TIP3   OH238268   4.933   3.000   1.626 -0.1720 -0.4298  0.1658
 5618TIP3    H138269   5.027   3.002   1.643 -0.1386  0.2764 -0.0512
 5618TIP3    H238270   4.893   3.039   1.704 -0.2657 -0.5292  0.1672
 5619TIP3   OH238271   6.244   6.194   5.528 -0.4817  0.1683  0.0410
 5619TIP3    H138272   6.160   6.228   5.497  0.3352  1.1483 -1.1945
 5619TIP3    H238273   6.273   6.257   5.593  0.0286  0.7367 -0.7093
 5620TIP3   OH238274   2.121   3.495   2.537  0.2155  0.4035  0.4416
 5620TIP3    H138275   2.163   3.451   2.464  0.9120  0.4242  0.8216
 5620TIP3    H238276   2.096   3.424   2.596  0.2181  0.4303  0.4748
 5621TIP3   OH238277   3.036   3.957   1.473  0.1175  0.0362 -0.4419
 5621TIP3    H138278   3.047   4.024   1.406 -0.6698  1.2800  0.6173
 5621TIP3    H238279   3.082   3.881   1.439  0.0757  0.7577 -2.1934
 5622TIP3   OH238280   5.885   5.955  14.738  0.9480  0.5284  0.1567
 5622TIP3    H138281   5.892   5.992  14.826 -3.0420  0.4120  0.6968
 5622TIP3    H238282   5.838   6.021  14.687 -1.3781 -1.4000 -0.3967
 5623TIP3   OH238283   2.601   2.360  13.332  0.1457  0.2278  0.0120
 5623TIP3    H138284   2.538   2.413  13.382  2.9077  1.9513  1.9289
 5623TIP3    H238285   2.591   2.272  13.368 -2.1230  0.0584 -0.8132
 5624TIP3   OH238286   6.671   1.862  15.951 -0.5693 -0.0492  0.0982
 5624TIP3    H138287   6.726   1.791  15.985  1.1205  1.6230  1.0434
 5624TIP3    H238288   6.715   1.888  15.869 -0.3124  0.8524  0.5116
 5625TIP3   OH238289   6.157   4.889   6.354  0.2057  0.0114  0.5271
 5625TIP3    H138290   6.228   4.870   6.416  0.3948 -0.0511  0.2930
 5625TIP3    H238291   6.081   4.844   6.390  1.0163 -2.6728 -0.8784
 5626TIP3   OH238292   1.561   1.465  13.085  0.2876 -0.5241 -0.6030
 5626TIP3    H138293   1.617   1.410  13.141  0.7171 -1.4526 -1.9054
 5626TIP3    H238294   1.472   1.442  13.112  0.4572  1.0277  1.5487
 5627TIP3   OH238295   6.715   3.765  13.383  0.5483  0.8181  1.0085
 5627TIP3    H138296   6.750   3.854  13.374 -0.9994  1.8670  4.0059
 5627TIP3    H238297   6.754   3.732  13.464 -0.1563 -0.6424  0.7882
 5628TIP3   OH238298   3.374   3.956  13.915  0.1738 -0.6682 -0.7495
 5628TIP3    H138299   3.335   3.871  13.894  0.5766 -1.3250  1.0003
 5628TIP3    H238300   3.305   4.004  13.960  0.2112 -0.3955 -0.9823
 5629TIP3   OH238301   1.127   4.936   0.951 -0.2775 -0.0807 -0.2325
 5629TIP3    H138302   1.137   4.971   1.040  0.7175  0.3131 -0.4807
 5629TIP3    H238303   1.063   4.865   0.960  0.0485 -0.2611  0.8556
 5630TIP3   OH238304   2.839   3.586   2.090  0.0249  0.2902 -0.1453
 5630TIP3    H138305   2.832   3.491   2.082  0.6534  0.2441 -0.1240
 5630TIP3    H238306   2.785   3.608   2.166  0.0882 -0.0731  0.0035
 5631TIP3   OH238307   6.297   4.176   4.439  0.1843  0.0933 -0.5998
 5631TIP3    H138308   6.284   4.224   4.520  0.4536  1.9312 -1.5764
 5631TIP3    H238309   6.388   4.146   4.442  1.0902  2.4809 -1.2946
 5632TIP3   OH238310   6.252   4.885   0.418 -0.0419 -0.5165 -0.1656
 5632TIP3    H138311   6.344   4.861   0.416  0.1184  0.0961 -0.1145
 5632TIP3    H238312   6.219   4.848   0.500 -0.3719 -2.6512 -1.1809
 5633TIP3   OH238313   0.133   6.722   2.956  0.0494 -0.3028  0.2814
 5633TIP3    H138314   0.154   6.751   2.867  0.0818  0.7264  0.6102
 5633TIP3    H238315   0.144   6.801   3.010 -0.5281 -0.7741  1.1089
 5634TIP3   OH238316   0.786   0.594  12.792  0.4974  0.4027  0.4136
 5634TIP3    H138317   0.870   0.632  12.764 -0.2738  3.0796  1.4125
 5634TIP3    H238318   0.728   0.670  12.801 -0.9995 -0.9382  3.2732
 5635TIP3   OH238319   4.221   4.587   1.498  0.2898 -0.3968  0.2198
 5635TIP3    H138320   4.255   4.542   1.421 -0.7535  0.1822 -0.5932
 5635TIP3    H238321   4.296   4.636   1.532  0.5578 -0.0117 -0.8968
 5636TIP3   OH238322   6.144   6.072   5.767 -0.5953  0.3218 -0.0240
 5636TIP3    H138323   6.100   5.991   5.742 -0.7562  0.2913  0.3588
 5636TIP3    H238324   6.177   6.108   5.684 -1.8389  0.6452 -0.3999
 5637TIP3   OH238325   5.505   5.087   1.263  0.7383  0.2693  0.3261
 5637TIP3    H138326   5.584   5.076   1.210  1.3834 -0.1522  1.3503
 5637TIP3    H238327   5.509   5.177   1.295  1.2768 -0.0177  1.0969
 5638TIP3   OH238328   0.032   0.175  11.831  0.5238 -0.0346  0.2536
 5638TIP3    H138329   0.039   0.083  11.858  1.3908  0.2193  0.9628
 5638TIP3    H238330   0.103   0.187  11.768  0.7274  0.2757  0.5413
 5639TIP3   OH238331   4.623   3.775  11.866 -0.3237 -1.1410 -0.0725
 5639TIP3    H138332   4.598   3.684  11.853 -0.5228 -1.2187  0.8298
 5639TIP3    H238333   4.662   3.778  11.953  1.6489 -0.7642 -0.9019
 5640TIP3   OH238334   1.099   1.094   2.128  0.6943  0.3490 -0.2409
 5640TIP3    H138335   1.162   1.067   2.061  0.7670 -2.2220  0.7293
 5640TIP3    H238336   1.149   1.091   2.210 -0.4902 -1.3055  0.4821
 5641TIP3   OH238337   1.695   4.132   0.187  0.2980 -0.1245  0.7328
 5641TIP3    H138338   1.630   4.065   0.208  0.7980 -1.0666 -0.5935
 5641TIP3    H238339   1.656   4.181   0.114  0.2397  0.6066  1.2374
 5642TIP3   OH238340   0.670   6.765  12.946  0.1489 -0.2815 -0.1917
 5642TIP3    H138341   0.692   6.837  13.005  1.0684 -0.2237 -0.5850
 5642TIP3    H238342   0.577   6.748  12.962  0.2461  0.0944  0.8727
 5643TIP3   OH238343   3.370   5.634   3.350 -0.6641 -0.4663 -0.4382
 5643TIP3    H138344   3.413   5.719   3.337  0.4586 -1.0107 -0.3727
 5643TIP3    H238345   3.398   5.607   3.438 -1.3618 -0.7095 -0.2921
 5644TIP3   OH238346   4.130   5.941   1.210 -0.4510  0.8229  0.1158
 5644TIP3    H138347   4.199   5.908   1.268 -0.9095 -0.3238  0.0259
 5644TIP3    H238348   4.049   5.921   1.256 -0.7865  0.7599 -0.5010
 5645TIP3   OH238349   5.784   5.571  11.664  0.2299 -0.4865  0.6393
 5645TIP3    H138350   5.807   5.483  11.694  0.3452 -1.2049 -1.4074
 5645TIP3    H238351   5.688   5.575  11.673  0.2294 -0.8050  0.7856
 5646TIP3   OH238352   6.229   1.987  14.415  0.5651 -0.1804  0.3850
 5646TIP3    H138353   6.236   2.076  14.380  0.4085 -1.0751 -2.1646
 5646TIP3    H238354   6.317   1.951  14.407  0.4062 -0.5760  0.3846
 5647TIP3   OH238355   4.446   0.327  16.497 -1.0770  0.1429  0.2752
 5647TIP3    H138356   4.472   0.419  16.505 -1.1109  0.1804 -0.0365
 5647TIP3    H238357   4.451   0.308  16.404 -0.7842 -0.2613  0.3688
 5648TIP3   OH238358   2.706   1.034   2.417 -0.1539 -0.6764  0.2930
 5648TIP3    H138359   2.647   0.961   2.435  0.8128 -1.5133  0.1673
 5648TIP3    H238360   2.769   1.032   2.489  0.0194 -0.1168  0.1605
 5649TIP3   OH238361   2.569   4.176  13.547  0.0129 -0.3369 -0.2653
 5649TIP3    H138362   2.508   4.121  13.596  0.7259 -0.7485  0.1746
 5649TIP3    H238363   2.521   4.258  13.533 -0.0717 -0.0505  1.4861
 5650TIP3   OH238364   1.381   1.427  16.788  0.3724  0.2185 -0.2141
 5650TIP3    H138365   1.451   1.368  16.815 -0.7010 -1.6422 -1.2928
 5650TIP3    H238366   1.353   1.393  16.703 -0.8960  1.7724 -0.4506
 5651TIP3   OH238367   5.285   6.110   2.747  0.1658 -0.1749  0.0483
 5651TIP3    H138368   5.271   6.202   2.727 -0.4802  0.3426  2.4971
 5651TIP3    H238369   5.380   6.099   2.746  0.2065  0.0359 -1.9771
 5652TIP3   OH238370   6.476   3.198   2.841  0.3231  0.2270  0.0329
 5652TIP3    H138371   6.545   3.258   2.812 -0.1449  1.5004  1.4184
 5652TIP3    H238372   6.522   3.119   2.868  0.9843  0.0461 -1.5408
 5653TIP3   OH238373   2.785   1.238   4.152  0.0717 -0.7201 -0.2484
 5653TIP3    H138374   2.808   1.244   4.059 -0.1939  1.0693 -0.2353
 5653TIP3    H238375   2.691   1.219   4.153  0.3771 -2.3898 -0.3094
 5654TIP3   OH238376   3.386   2.931  13.227 -0.2329  0.0430 -0.0760
 5654TIP3    H138377   3.292   2.943  13.219 -0.4425 -2.2460 -1.7448
 5654TIP3    H238378   3.415   3.008  13.275 -2.8706  1.0402  0.0882
 5655TIP3   OH238379   6.332   6.546   3.603  0.8505 -0.4598 -0.4646
 5655TIP3    H138380   6.393   6.573   3.535  0.6828 -0.8840 -0.7904
 5655TIP3    H238381   6.388   6.515   3.675  1.0394 -2.6287 -1.4828
 5656TIP3   OH238382   6.762   5.411  16.369 -0.3376 -0.5450 -0.6175
 5656TIP3    H138383   6.782   5.325  16.405  0.9157 -0.2515 -0.5837
 5656TIP3    H238384   6.759   5.469  16.445 -1.2638 -0.5629 -0.6307
 5657TIP3   OH238385   2.011   4.165   3.407  0.0605 -0.6736  0.0795
 5657TIP3    H138386   1.987   4.176   3.315  0.2130 -0.6102  0.0466
 5657TIP3    H238387   2.028   4.071   3.416 -2.9872 -1.2590  0.7817
 5658TIP3   OH238388   2.082   2.361  13.529 -0.7020  0.2870  0.2351
 5658TIP3    H138389   2.008   2.301  13.539 -1.3609  1.2865  1.9647
 5658TIP3    H238390   2.126   2.333  13.449 -3.2483 -0.0433 -1.1583
 5659TIP3   OH238391   0.977   1.691  10.990 -0.3268 -0.4112  0.3931
 5659TIP3    H138392   0.929   1.611  11.011 -1.5906  0.9310  3.1257
 5659TIP3    H238393   0.912   1.760  10.996  0.9598  0.9948 -0.8871
 5660TIP3   OH238394   0.795   0.218  11.778  0.1039  0.2505 -0.5094
 5660TIP3    H138395   0.821   0.192  11.866 -1.5988  0.3422  0.0553
 5660TIP3    H238396   0.720   0.276  11.791 -0.5841 -0.2396 -2.0357
 5661TIP3   OH238397   3.080   3.383   3.917  0.0780  0.4912  0.3346
 5661TIP3    H138398   3.090   3.295   3.882  0.9163  0.3245  0.9421
 5661TIP3    H238399   2.999   3.380   3.968  1.1153 -0.5569  2.0437
 5662TIP3   OH238400   4.573   6.042  15.675  0.2806 -0.0832  0.4843
 5662TIP3    H138401   4.638   6.111  15.686 -0.4689  1.1705 -2.0189
 5662TIP3    H238402   4.511   6.078  15.610 -2.2266 -1.6883  1.8342
 5663TIP3   OH238403   6.654   6.637   0.967  0.0500 -0.0360 -0.0905
 5663TIP3    H138404   6.746   6.660   0.982 -0.1988  1.4354 -0.6233
 5663TIP3    H238405   6.627   6.593   1.047  0.2561  2.7487  1.6580
 5664TIP3   OH238406   3.262   6.231   3.122 -0.0384  0.6168  0.5274
 5664TIP3    H138407   3.354   6.257   3.134 -0.0889  0.9634  0.1746
 5664TIP3    H238408   3.237   6.269   3.038 -1.2497  2.6529  1.7152
 5665TIP3   OH238409   6.329   1.039   4.337  0.4329 -0.2698  0.1468
 5665TIP3    H138410   6.322   0.945   4.353 -1.0889 -0.2659 -0.3692
 5665TIP3    H238411   6.325   1.078   4.424 -2.0833 -0.5510  0.2337
 5666TIP3   OH238412   3.633   5.306   1.427  0.5633  0.3359  0.2298
 5666TIP3    H138413   3.623   5.398   1.449  0.3964  0.5653 -0.7439
 5666TIP3    H238414   3.544   5.270   1.433  0.5775  0.3116  0.2956
 5667TIP3   OH238415   2.277   6.050   0.571  0.3183  0.3291 -0.4250
 5667TIP3    H138416   2.268   6.001   0.489  0.3437  1.8082 -1.3407
 5667TIP3    H238417   2.218   6.125   0.560  0.3405  0.5544  0.9133
 5668TIP3   OH238418   4.617   2.026   3.705  0.3813  0.0348  0.2469
 5668TIP3    H138419   4.537   2.041   3.655  0.4078 -0.0843  0.1705
 5668TIP3    H238420   4.638   1.934   3.692 -0.2095 -0.2749  1.3458
 5669TIP3   OH238421   6.282   5.995   2.908  0.5679  0.2006 -0.2720
 5669TIP3    H138422   6.355   6.048   2.940 -0.3824  0.7047  1.1325
 5669TIP3    H238423   6.243   6.049   2.839 -0.1757  1.2370  0.9038
 5670TIP3   OH238424   1.060   6.041  16.964  0.3497 -0.1801  0.3618
 5670TIP3    H138425   0.986   5.983  16.944 -1.1306  0.6228  2.9874
 5670TIP3    H238426   1.031   6.127  16.934  0.6851 -0.0517  0.4075
 5671TIP3   OH238427   1.227   5.416  13.664 -0.8525 -0.3613 -0.3612
 5671TIP3    H138428   1.274   5.426  13.747  1.6395 -1.4631 -1.5377
 5671TIP3    H238429   1.156   5.356  13.683 -0.4163 -0.4688  1.0042
 5672TIP3   OH238430   1.853   2.010  11.136 -0.1568 -0.1223 -0.1107
 5672TIP3    H138431   1.916   2.082  11.131  0.4624 -0.7127 -1.1467
 5672TIP3    H238432   1.815   2.017  11.223 -0.5176  1.7933 -0.3867
 5673TIP3   OH238433   1.822   2.886   0.102 -0.2608  0.5741  0.5566
 5673TIP3    H138434   1.820   2.797   0.137 -0.4420  0.2599 -0.2186
 5673TIP3    H238435   1.745   2.890   0.045 -0.1760  1.1839  0.4804
 5674TIP3   OH238436   6.246   5.563   5.115  0.1374  0.4431  0.2149
 5674TIP3    H138437   6.287   5.496   5.061 -2.5464 -0.6493 -0.6585
 5674TIP3    H238438   6.223   5.633   5.054 -1.5077 -0.1021  0.1633
 5675TIP3   OH238439   0.878   1.875   1.123  0.0821  0.1332 -0.3515
 5675TIP3    H138440   0.967   1.838   1.121  0.2691  0.5484  0.0559
 5675TIP3    H238441   0.868   1.919   1.039  0.0927 -0.2970 -0.5818
 5676TIP3   OH238442   3.905   0.738  12.346  0.2492 -1.1048  0.0866
 5676TIP3    H138443   3.949   0.773  12.423  3.1982 -2.0236 -1.0610
 5676TIP3    H238444   3.975   0.706  12.290 -1.8596 -1.7441 -2.3969
 5677TIP3   OH238445   4.048   4.418  16.022 -0.1330  0.0283 -0.1845
 5677TIP3    H138446   3.953   4.418  16.013 -0.1579 -1.6739 -0.3052
 5677TIP3    H238447   4.077   4.341  15.971  1.1623 -0.3385  1.0330
 5678TIP3   OH238448   6.282   3.691  11.526  0.0024  0.4746 -0.1213
 5678TIP3    H138449   6.309   3.610  11.484 -0.8599 -0.8169  1.6815
 5678TIP3    H238450   6.196   3.710  11.489 -0.2890 -0.0665  0.2687
 5679TIP3   OH238451   2.765   5.769  13.896  0.1319 -0.2734  0.2015
 5679TIP3    H138452   2.792   5.767  13.988 -0.7093  1.1155  0.5136
 5679TIP3    H238453   2.788   5.858  13.867  0.3181 -0.6727 -0.9149
 5680TIP3   OH238454   6.543   2.759   5.855  0.7110  0.2830 -0.6703
 5680TIP3    H138455   6.585   2.810   5.785 -0.4633 -0.8482 -2.2845
 5680TIP3    H238456   6.616   2.728   5.909  1.5714  2.1464 -0.6711
 5681TIP3   OH238457   4.830   3.450   4.534  0.2389 -0.3422  0.6095
 5681TIP3    H138458   4.747   3.423   4.573 -0.5029  0.5386 -0.2749
 5681TIP3    H238459   4.831   3.545   4.545  1.6065 -0.4324  1.4671
 5682TIP3   OH238460   0.493   1.154   3.376  0.1200  0.4991 -0.0830
 5682TIP3    H138461   0.431   1.188   3.442 -0.0127 -2.4675  1.4913
 5682TIP3    H238462   0.460   1.188   3.293 -1.9300  1.3809  1.0085
 5683TIP3   OH238463   4.508   6.721  16.354 -0.1826 -0.3933 -0.7478
 5683TIP3    H138464   4.493   6.629  16.377 -0.3502 -0.8843 -2.6596
 5683TIP3    H238465   4.555   6.756  16.429 -3.8612 -0.8264  2.0644
 5684TIP3   OH238466   5.017   1.920   3.082 -0.9150  0.1749  0.2755
 5684TIP3    H138467   5.067   2.001   3.086 -1.1805  0.3729 -0.2474
 5684TIP3    H238468   4.994   1.911   2.989 -0.7919 -0.5558  0.3109
 5685TIP3   OH238469   0.194   5.354   1.174  0.0440 -0.1717  0.2409
 5685TIP3    H138470   0.287   5.377   1.172 -0.0963  0.3891 -0.2429
 5685TIP3    H238471   0.190   5.264   1.140  0.3550  0.0138 -0.2957
 5686TIP3   OH238472   4.895   5.743  11.461 -0.1263 -0.2592 -0.2590
 5686TIP3    H138473   4.954   5.760  11.387 -2.2486 -0.1769 -2.0273
 5686TIP3    H238474   4.859   5.829  11.484  0.2621 -0.3339  0.6847
 5687TIP3   OH238475   2.544   1.150   0.936 -0.3702 -0.3286 -0.6405
 5687TIP3    H138476   2.460   1.188   0.908 -0.7223 -1.7065 -1.5762
 5687TIP3    H238477   2.530   1.127   1.028 -0.1609  1.6600 -0.0535
 5688TIP3   OH238478   1.204   4.352  11.569  0.1517  0.1779  0.7382
 5688TIP3    H138479   1.200   4.278  11.629  0.1890 -0.7433 -0.3731
 5688TIP3    H238480   1.290   4.347  11.529 -0.8845 -0.9748 -1.5297
 5689TIP3   OH238481   5.121   1.712   4.466  0.1856 -0.2414 -0.1506
 5689TIP3    H138482   5.042   1.746   4.509  0.0492  0.4400 -0.9318
 5689TIP3    H238483   5.122   1.753   4.380  0.9996 -0.8242 -0.4337
 5690TIP3   OH238484   4.627   5.639  14.187  0.7110  0.1469  0.3960
 5690TIP3    H138485   4.654   5.692  14.262 -0.4129  0.1051  0.8441
 5690TIP3    H238486   4.662   5.686  14.111  2.2271 -0.0308  0.9464
 5691TIP3   OH238487   4.426   4.347  12.070 -0.3293  0.1127 -0.0093
 5691TIP3    H138488   4.392   4.419  12.016  0.8903  0.1399 -0.7863
 5691TIP3    H238489   4.499   4.386  12.117  0.3894 -0.6260 -0.4881
 5692TIP3   OH238490   0.232   4.059  11.197 -0.2230 -0.5187  0.4138
 5692TIP3    H138491   0.259   3.972  11.228  2.7728  0.0659 -0.2110
 5692TIP3    H238492   0.267   4.064  11.108  0.7976  1.7421  0.8819
 5693TIP3   OH238493   0.121   3.086   5.850 -0.0510 -0.4038 -0.0854
 5693TIP3    H138494   0.157   3.169   5.818  0.4328 -0.8441 -0.7175
 5693TIP3    H238495   0.178   3.061   5.923  1.8395 -1.7560 -1.9011
 5694TIP3   OH238496   5.686   3.455   3.826 -0.0060  0.1339  0.4841
 5694TIP3    H138497   5.781   3.453   3.828  0.0896  2.4450  2.2298
 5694TIP3    H238498   5.663   3.433   3.735  1.9917 -2.8778  0.5890
 5695TIP3   OH238499   1.295   5.530   1.360  0.6556  0.2035  0.7190
 5695TIP3    H138500   1.347   5.543   1.439  0.6386  1.2492  0.5735
 5695TIP3    H238501   1.355   5.550   1.288  0.8159 -1.2263  0.4287
 5696TIP3   OH238502   2.383   4.061   1.635  0.0037  0.7802  0.5534
 5696TIP3    H138503   2.343   4.111   1.706 -0.6291  0.4947  0.4000
 5696TIP3    H238504   2.328   4.078   1.559  0.1863  0.4111  0.3333
 5697TIP3   OH238505   1.908   3.741   0.835 -0.6040 -0.0883 -0.7037
 5697TIP3    H138506   1.877   3.830   0.849 -0.5704 -0.1663 -0.1314
 5697TIP3    H238507   1.913   3.702   0.922  0.2017 -0.3823 -0.8670
 5698TIP3   OH238508   0.476   6.467   1.362 -0.3587  0.5982 -0.2890
 5698TIP3    H138509   0.552   6.442   1.414  0.1638 -0.0741 -1.3509
 5698TIP3    H238510   0.507   6.539   1.307 -0.5554  0.4531 -0.5915
 5699TIP3   OH238511   1.200   6.739  12.071  0.7423  0.1025  0.4867
 5699TIP3    H138512   1.129   6.803  12.065 -2.0240 -2.7655 -0.1499
 5699TIP3    H238513   1.209   6.705  11.982  3.4305  0.7661  0.4247
 5700TIP3   OH238514   2.694   5.656  15.908 -0.1764  0.4729 -0.2114
 5700TIP3    H138515   2.637   5.586  15.940  0.6999 -0.0858  0.1603
 5700TIP3    H238516   2.640   5.735  15.914  0.0188  0.4677  2.9244
 5701TIP3   OH238517   0.676   3.708   2.484  0.1884 -0.3065  0.3387
 5701TIP3    H138518   0.624   3.694   2.405 -0.6449 -0.2856  0.8764
 5701TIP3    H238519   0.612   3.728   2.552  0.8974 -0.3236  1.0247
 5702TIP3   OH238520   6.042   1.120   5.881  0.4106  0.2046 -0.0266
 5702TIP3    H138521   6.126   1.138   5.840  0.0777 -2.2355 -1.9913
 5702TIP3    H238522   6.065   1.069   5.959  0.7958 -1.6237 -1.2591
 5703TIP3   OH238523   4.526   1.502   3.846 -0.1551  0.1702  0.3685
 5703TIP3    H138524   4.586   1.505   3.772  0.0685  2.0431  0.5760
 5703TIP3    H238525   4.576   1.461   3.917  0.0812 -0.3945 -0.1210
 5704TIP3   OH238526   2.917   1.736  11.507  0.4571  0.4734  1.0287
 5704TIP3    H138527   2.860   1.693  11.443 -0.4488  1.3066  1.2451
 5704TIP3    H238528   3.005   1.704  11.486  0.2460  0.9705 -0.8645
 5705TIP3   OH238529   5.453   6.663   2.460 -0.0734 -0.0328 -0.1252
 5705TIP3    H138530   5.533   6.612   2.471 -0.0641  0.2924  1.6272
 5705TIP3    H238531   5.472   6.722   2.387  0.2470 -1.8386 -1.5691
 5706TIP3   OH238532   5.610   3.324  17.081  0.0301 -0.5487 -0.1215
 5706TIP3    H138533   5.677   3.270  17.041 -0.8521 -1.6229 -0.2031
 5706TIP3    H238534   5.554   3.350  17.007 -0.5024 -0.9336  0.1423
 5707TIP3   OH238535   3.059   1.172  11.766  0.0639  0.1492 -0.2069
 5707TIP3    H138536   3.121   1.104  11.793 -1.3575 -1.6767 -1.3244
 5707TIP3    H238537   3.104   1.218  11.695 -0.3758 -2.3165 -2.2675
 5708TIP3   OH238538   4.832   6.074   2.961  0.0808  0.0113 -0.1824
 5708TIP3    H138539   4.918   6.113   2.976 -0.4150  0.9383  0.3691
 5708TIP3    H238540   4.821   6.076   2.866  0.6377 -0.0472 -0.2500
 5709TIP3   OH238541   0.591   6.429   4.386 -0.5023  0.3488 -0.9492
 5709TIP3    H138542   0.599   6.491   4.313 -0.4037  1.7908  0.2405
 5709TIP3    H238543   0.513   6.378   4.365  1.3420 -1.6440 -3.7502
 5710TIP3   OH238544   4.545   2.606   1.290 -0.1412 -0.9184 -0.3829
 5710TIP3    H138545   4.584   2.689   1.264  1.7665 -1.3075  1.0093
 5710TIP3    H238546   4.514   2.621   1.379 -2.4435 -0.9104 -1.1210
 5711TIP3   OH238547   2.317   1.338  17.193 -0.3215  0.1950  0.1754
 5711TIP3    H138548   2.270   1.281  17.132  0.3490  0.0079 -0.1774
 5711TIP3    H238549   2.406   1.342  17.158 -0.0165  0.3698  0.9515
 5712TIP3   OH238550   1.365   4.338  16.900 -0.4852 -0.1848  0.2436
 5712TIP3    H138551   1.402   4.400  16.963 -0.8632 -0.4141  0.6897
 5712TIP3    H238552   1.429   4.267  16.896  1.6431  1.6320 -2.6828
 5713TIP3   OH238553   5.050   5.628   4.857 -0.2433 -0.2016 -0.0030
 5713TIP3    H138554   4.957   5.648   4.866 -0.3304 -0.9376  0.8921
 5713TIP3    H238555   5.092   5.713   4.844 -1.0883  0.0855 -1.0121
 5714TIP3   OH238556   4.532   4.956   0.358 -0.2588  0.1842 -0.1701
 5714TIP3    H138557   4.619   4.941   0.395  0.0508 -0.6744 -1.2032
 5714TIP3    H238558   4.491   5.019   0.418  0.7511 -0.0525  0.7983
 5715TIP3   OH238559   3.212   4.612   6.122  0.7791 -0.0580  1.0364
 5715TIP3    H138560   3.155   4.535   6.126  1.0939 -0.4274 -0.5630
 5715TIP3    H238561   3.175   4.673   6.185 -0.3116 -0.9833  1.3299
 5716TIP3   OH238562   4.088   4.684  14.986 -0.5833  0.3083 -0.2486
 5716TIP3    H138563   4.028   4.667  15.059  0.4022  1.0158  0.7760
 5716TIP3    H238564   4.057   4.766  14.948  1.5658  2.5758  2.4252
 5717TIP3   OH238565   6.726   5.926   0.589 -0.1806 -0.3902  0.5770
 5717TIP3    H138566   6.666   5.995   0.562 -0.4468  0.0756  2.2839
 5717TIP3    H238567   6.670   5.861   0.632  0.3652 -0.6351  0.9269
 5718TIP3   OH238568   2.080   2.112  14.222  0.7407  0.1220  0.0792
 5718TIP3    H138569   2.020   2.173  14.265  1.2334  1.2436 -0.7528
 5718TIP3    H238570   2.030   2.031  14.212 -0.1614  0.5966  0.6379
 5719TIP3   OH238571   3.698   0.325   1.226  0.3111 -0.0084 -0.1665
 5719TIP3    H138572   3.682   0.272   1.148  0.5397  0.5056 -0.5700
 5719TIP3    H238573   3.613   0.366   1.244  0.7071  1.3773 -1.2948
 5720TIP3   OH238574   1.732   5.535   0.818 -0.3932 -0.4165 -0.3766
 5720TIP3    H138575   1.807   5.585   0.786  0.2062  0.1373  1.7874
 5720TIP3    H238576   1.688   5.593   0.880 -1.6892 -1.3325 -0.3979
 5721TIP3   OH238577   4.371   1.897  16.138  0.5547  0.3616 -0.3099
 5721TIP3    H138578   4.381   1.930  16.049  0.4728 -0.9293 -0.8138
 5721TIP3    H238579   4.309   1.824  16.131  3.1015 -2.0333  0.1729
 5722TIP3   OH238580   0.991   4.046  11.180 -0.4733  0.0307  0.2921
 5722TIP3    H138581   0.967   4.074  11.268 -0.3485 -0.1159  0.3724
 5722TIP3    H238582   1.050   4.115  11.149 -3.1301  1.9343 -0.9781
 5723TIP3   OH238583   1.999   1.950   4.834 -0.2165  0.1235 -0.4785
 5723TIP3    H138584   2.016   1.857   4.848 -4.4745 -1.0495 -1.6354
 5723TIP3    H238585   1.941   1.975   4.907 -1.0001  1.1792 -1.4304
 5724TIP3   OH238586   2.885   3.190   1.580  0.2062  0.1458 -0.0811
 5724TIP3    H138587   2.849   3.116   1.630 -0.1743 -0.3528 -1.0637
 5724TIP3    H238588   2.860   3.267   1.631  0.3188 -0.3752  0.7871
 5725TIP3   OH238589   3.747   2.626  14.029  0.4297 -0.2708 -0.0698
 5725TIP3    H138590   3.773   2.715  14.054  0.3521  0.2211 -1.6559
 5725TIP3    H238591   3.795   2.610  13.948 -2.6149 -0.0886 -2.0561
 5726TIP3   OH238592   6.490   1.950   0.389  0.1947  0.0091  0.2448
 5726TIP3    H138593   6.578   1.931   0.358 -0.0956  0.3356 -0.8079
 5726TIP3    H238594   6.450   2.003   0.320 -0.1059  1.7192  1.6441
 5727TIP3   OH238595   0.451   3.344   4.862 -0.0326  0.7427  0.4620
 5727TIP3    H138596   0.531   3.315   4.905  0.3597  0.2635 -0.5725
 5727TIP3    H238597   0.409   3.402   4.926  1.7699  2.0415  0.5333
 5728TIP3   OH238598   6.100   2.758   3.200 -0.1957  0.2205  0.0960
 5728TIP3    H138599   6.036   2.751   3.129  0.1942  0.3249 -0.2710
 5728TIP3    H238600   6.049   2.746   3.280 -0.3227 -2.0969 -0.2660
 5729TIP3   OH238601   2.162   4.522   4.961  0.6610  0.1929 -0.1155
 5729TIP3    H138602   2.209   4.479   5.032 -0.3922 -2.0577 -0.7161
 5729TIP3    H238603   2.080   4.474   4.952  0.6881  0.4764 -2.7446
 5730TIP3   OH238604   2.059   5.341   2.565 -0.5481  0.3620  0.0579
 5730TIP3    H138605   2.116   5.349   2.642  1.9150 -0.8774 -1.5015
 5730TIP3    H238606   2.040   5.247   2.559 -0.6649  0.4361 -0.8660
 5731TIP3   OH238607   2.727   0.447   1.587 -0.2373  0.6114 -0.2286
 5731TIP3    H138608   2.751   0.391   1.661 -0.5520 -0.5300 -0.9707
 5731TIP3    H238609   2.746   0.395   1.509 -1.6663  1.0487 -0.9181
 5732TIP3   OH238610   5.098   4.472   1.863  0.4463  0.3703 -0.6289
 5732TIP3    H138611   5.091   4.383   1.897  1.7353  0.9367  1.2836
 5732TIP3    H238612   5.019   4.516   1.895 -1.8261 -0.7493 -4.1515
 5733TIP3   OH238613   1.371   0.599   0.471  0.2069 -0.1942  0.2280
 5733TIP3    H138614   1.464   0.586   0.455 -0.1320 -1.3463 -0.9735
 5733TIP3    H238615   1.352   0.543   0.547  0.8965  1.7454  1.9151
 5734TIP3   OH238616   3.828   0.907  13.753 -0.4500  0.3302 -0.0735
 5734TIP3    H138617   3.785   0.874  13.674  0.4611  0.2453 -0.5471
 5734TIP3    H238618   3.917   0.928  13.725  0.3067 -0.9741  1.2321
 5735TIP3   OH238619   3.871   1.644  11.002  0.0286  0.0558  0.2357
 5735TIP3    H138620   3.918   1.702  10.941  0.4936  0.3223  0.8300
 5735TIP3    H238621   3.881   1.557  10.965 -1.6157  0.4569 -1.2555
 5736TIP3   OH238622   0.422   3.065   4.446 -0.6537 -0.0067 -0.3992
 5736TIP3    H138623   0.466   2.980   4.441  0.2853  0.4862 -0.6886
 5736TIP3    H238624   0.384   3.067   4.534 -1.6456 -1.1747 -0.7608
 5737TIP3   OH238625   2.843   3.684  10.980  0.2823 -0.2330  0.5903
 5737TIP3    H138626   2.785   3.617  10.943 -0.8097  0.6157  0.7159
 5737TIP3    H238627   2.812   3.766  10.941  1.5940  0.2073  0.4474
 5738TIP3   OH238628   5.589   1.005  11.807  0.0888  0.0526 -0.1691
 5738TIP3    H138629   5.526   1.034  11.741 -0.0506 -2.3026 -1.1848
 5738TIP3    H238630   5.548   1.028  11.891 -1.6616 -0.4647 -0.8242
 5739TIP3   OH238631   0.525   2.640   6.223  0.4670  0.2030  0.0111
 5739TIP3    H138632   0.433   2.620   6.235  0.0739  1.8511  0.0011
 5739TIP3    H238633   0.572   2.570   6.268 -0.7717 -0.8623 -0.3216
 5740TIP3   OH238634   0.014   6.422   5.409 -0.2314  0.3752 -0.5068
 5740TIP3    H138635  -0.059   6.372   5.446  0.4941 -0.2412  0.1285
 5740TIP3    H238636   0.035   6.376   5.327 -0.3975  0.3968 -0.5609
 5741TIP3   OH238637   5.393   4.309  10.569  0.2267  0.1451 -0.1278
 5741TIP3    H138638   5.439   4.252  10.631  1.9821  1.5500 -0.0499
 5741TIP3    H238639   5.463   4.352  10.520 -1.0689  1.3201 -1.0212
 5742TIP3   OH238640   3.585   6.622   2.490  0.6529 -0.2076 -0.1447
 5742TIP3    H138641   3.603   6.640   2.582 -1.7037  1.3833  0.0940
 5742TIP3    H238642   3.623   6.696   2.443  1.2983 -0.6967 -0.4055
 5743TIP3   OH238643   0.441   1.999  15.385  0.0713 -0.2483 -0.2740
 5743TIP3    H138644   0.517   2.032  15.337 -0.7441  0.9122 -0.8080
 5743TIP3    H238645   0.455   1.905  15.391  0.0407 -0.5144 -3.1026
 5744TIP3   OH238646   3.952   5.873  16.162 -0.3286 -0.1956 -0.2898
 5744TIP3    H138647   3.946   5.778  16.155 -3.3215  0.0041 -2.8701
 5744TIP3    H238648   3.861   5.902  16.178  0.4211  2.2467  0.0459
 5745TIP3   OH238649   6.186   4.033  10.936 -0.3395  0.4421  0.1853
 5745TIP3    H138650   6.147   3.987  11.011  0.6267 -1.5497 -0.4565
 5745TIP3    H238651   6.122   4.022  10.866 -1.0878  2.0137  0.5795
 5746TIP3   OH238652   0.954   5.088  13.173 -0.5180  0.2375 -0.3513
 5746TIP3    H138653   0.966   5.083  13.078 -1.0237  2.1025 -0.5515
 5746TIP3    H238654   0.861   5.072  13.186 -0.6224  0.9035 -0.2643
 5747TIP3   OH238655   4.455   0.747   2.482 -0.5154 -0.2099 -0.2436
 5747TIP3    H138656   4.432   0.790   2.564  0.1210 -0.7966  0.2525
 5747TIP3    H238657   4.485   0.660   2.508  2.8580  0.6665 -0.7544
 5748TIP3   OH238658   0.038   6.292  14.536 -0.1272  0.2499 -0.2749
 5748TIP3    H138659   0.048   6.265  14.444 -0.0099  0.4580 -0.3250
 5748TIP3    H238660  -0.015   6.372  14.532  0.3171  0.5571 -0.2082
 5749TIP3   OH238661   3.728   6.643   3.272 -0.9671  0.9390 -0.4011
 5749TIP3    H138662   3.712   6.661   3.364  1.9756  2.1322  0.0068
 5749TIP3    H238663   3.706   6.725   3.227 -2.5597  0.3061 -0.8237
 5750TIP3   OH238664   0.389   0.905   3.009 -0.3380 -0.2566 -0.3667
 5750TIP3    H138665   0.441   0.834   2.971  0.6960  0.6123 -0.6286
 5750TIP3    H238666   0.437   0.930   3.088 -0.2466  0.6750 -0.7035
 5751TIP3   OH238667   1.426   0.624  14.584  0.8619 -0.2302  0.0323
 5751TIP3    H138668   1.419   0.684  14.510  1.3408 -0.5819 -0.3043
 5751TIP3    H238669   1.350   0.645  14.639  0.7022  0.2793 -0.3725
 5752TIP3   OH238670   2.771   5.550  12.841  0.8468  0.0958  0.1902
 5752TIP3    H138671   2.688   5.586  12.872 -1.0120 -2.9083 -0.9437
 5752TIP3    H238672   2.801   5.494  12.913  1.1974  0.1060  0.0565
 5753TIP3   OH238673   1.655   2.896   2.421  0.0090 -0.2715  0.1439
 5753TIP3    H138674   1.569   2.900   2.464 -0.1302  0.3573 -0.1838
 5753TIP3    H238675   1.688   2.986   2.426  1.1770 -0.7298  1.3259
 5754TIP3   OH238676   4.665   2.991  14.407 -0.3064  0.3774 -0.2487
 5754TIP3    H138677   4.710   3.073  14.387 -0.8009  0.9265  0.8103
 5754TIP3    H238678   4.651   2.994  14.502 -0.3373 -0.9325 -0.1961
 5755TIP3   OH238679   4.544   3.559  11.701 -0.3115  0.5066 -0.0108
 5755TIP3    H138680   4.530   3.605  11.619 -0.2915 -1.0663 -0.9434
 5755TIP3    H238681   4.496   3.477  11.691 -1.6541  0.9245  2.2042
 5756TIP3   OH238682   0.549   4.959  13.448  0.0521  0.1923 -0.2741
 5756TIP3    H138683   0.517   4.990  13.533 -0.4143 -0.1406 -0.3227
 5756TIP3    H238684   0.634   4.918  13.468  0.6471  1.4282 -0.2073
 5757TIP3   OH238685   6.470   3.003  13.349 -0.4258  0.0845 -0.1777
 5757TIP3    H138686   6.483   2.954  13.430 -1.9954  1.1823  0.7960
 5757TIP3    H238687   6.443   2.938  13.285 -0.5348 -0.6011  0.5493
 5758TIP3   OH238688   3.675   5.796   0.037  0.1197  0.3520  0.6331
 5758TIP3    H138689   3.580   5.792   0.023  0.4340 -2.9595 -1.7297
 5758TIP3    H238690   3.688   5.755   0.123 -0.5357 -0.8808  0.1752
 5759TIP3   OH238691   2.071   1.845  13.024  0.3453  0.4420  0.3222
 5759TIP3    H138692   2.021   1.926  13.013  0.5014  0.2993 -1.8790
 5759TIP3    H238693   2.144   1.870  13.081  0.5268  1.9414 -0.5097
 5760TIP3   OH238694   3.454   4.560  12.236 -0.3243 -0.6333 -0.0816
 5760TIP3    H138695   3.530   4.509  12.265 -0.4369  0.1740  1.7695
 5760TIP3    H238696   3.484   4.651  12.240 -1.0028 -0.3843 -0.5483
 5761TIP3   OH238697   5.926   1.593   2.718  0.1369  0.3087 -0.2761
 5761TIP3    H138698   5.937   1.636   2.633 -1.7770  1.4677 -0.0072
 5761TIP3    H238699   5.977   1.647   2.779 -0.8684  1.2392 -0.2310
 5762TIP3   OH238700   4.669   6.166   2.311 -0.4040 -0.3353  0.0850
 5762TIP3    H138701   4.646   6.075   2.290  1.0243 -0.7951  0.3863
 5762TIP3    H238702   4.659   6.213   2.229  0.6829 -1.1692 -0.5411
 5763TIP3   OH238703   0.527   1.716   5.578  0.2016 -0.0551  0.1067
 5763TIP3    H138704   0.431   1.707   5.580  0.1032  0.8842  0.2278
 5763TIP3    H238705   0.557   1.672   5.657  0.0496 -2.0313 -0.8721
 5764TIP3   OH238706   6.236   4.503  11.603 -0.3905 -0.2301 -0.4080
 5764TIP3    H138707   6.279   4.588  11.606  0.1161 -0.4787 -0.4201
 5764TIP3    H238708   6.167   4.513  11.537 -0.4727  0.2315 -0.2497
 5765TIP3   OH238709   3.255   5.830   1.870 -0.3223 -0.1788  0.4243
 5765TIP3    H138710   3.332   5.887   1.865 -2.0877  2.2790 -0.7520
 5765TIP3    H238711   3.272   5.773   1.945  2.2928  0.7610  0.6338
 5766TIP3   OH238712   1.551   6.073  12.180 -0.0922 -0.5799  0.2177
 5766TIP3    H138713   1.617   6.004  12.179  0.0265 -0.4816  0.6951
 5766TIP3    H238714   1.501   6.061  12.099  1.1087 -0.0712 -0.6296
 5767TIP3   OH238715   3.538   1.688  11.419 -0.1573 -0.1273 -0.1681
 5767TIP3    H138716   3.492   1.696  11.335 -0.9680  0.2795  0.3056
 5767TIP3    H238717   3.596   1.612  11.408  0.5163  0.5478 -1.4515
 5768TIP3   OH238718   1.489   2.058   3.315 -0.2535 -0.2028  0.5745
 5768TIP3    H138719   1.475   2.104   3.399  0.2059  2.3997 -0.6653
 5768TIP3    H238720   1.433   2.105   3.253  0.6571 -1.0142 -0.9030
 5769TIP3   OH238721   0.996   2.382  11.178  0.5411  0.0088 -0.0365
 5769TIP3    H138722   1.018   2.396  11.085  1.1358 -0.0890  0.0835
 5769TIP3    H238723   1.080   2.383  11.223  0.2510  0.1087  0.5154
 5770TIP3   OH238724   2.495   1.417  11.047 -0.0537  0.3071 -0.6030
 5770TIP3    H138725   2.409   1.386  11.076 -0.1242  1.4266  0.4617
 5770TIP3    H238726   2.490   1.418  10.951 -1.3153  0.5959 -0.5433
 5771TIP3   OH238727   5.215   3.584   5.900 -0.6971  0.3941 -0.2019
 5771TIP3    H138728   5.145   3.542   5.950  0.2272  0.2725  1.0432
 5771TIP3    H238729   5.225   3.529   5.822 -3.1824  1.4196 -1.3574
 5772TIP3   OH238730   4.615   0.154  14.585  0.3282 -0.6310  0.2118
 5772TIP3    H138731   4.576   0.238  14.565 -1.0837 -1.1750  0.5810
 5772TIP3    H238732   4.709   0.172  14.593 -0.0836  1.1609  1.6651
 5773TIP3   OH238733   2.281   5.425  13.045  0.0041 -0.9054 -0.1087
 5773TIP3    H138734   2.366   5.383  13.030 -0.1833 -1.6154  0.7359
 5773TIP3    H238735   2.256   5.460  12.959  2.4579  1.8608  0.1414
 5774TIP3   OH238736   5.725   1.540   2.383  0.2476 -0.5932  0.0540
 5774TIP3    H138737   5.715   1.525   2.289 -2.1266  1.5538 -0.1472
 5774TIP3    H238738   5.789   1.611   2.391  0.2923 -0.6327  0.0456
 5775TIP3   OH238739   4.534   1.660   1.519 -0.0179  0.1144 -0.3258
 5775TIP3    H138740   4.526   1.582   1.574 -1.1492 -2.1382 -3.3984
 5775TIP3    H238741   4.627   1.682   1.520  0.4608 -1.7751  0.0322
 5776TIP3   OH238742   1.579   6.440  12.264  0.3039 -0.2563  0.5502
 5776TIP3    H138743   1.515   6.507  12.290 -0.5956 -1.4469  1.5578
 5776TIP3    H238744   1.532   6.357  12.275  1.4838 -1.0761 -0.3684
 5777TIP3   OH238745   6.541   4.983  12.631 -0.1875  0.3246 -0.0110
 5777TIP3    H138746   6.484   4.974  12.555 -0.8600  1.4929  0.3173
 5777TIP3    H238747   6.483   5.020  12.699  0.0888 -1.7699  1.4431
 5778TIP3   OH238748   2.141   6.043  13.136 -0.0127  0.6513  0.3446
 5778TIP3    H138749   2.069   6.014  13.081  0.3837  0.0305  0.1406
 5778TIP3    H238750   2.101   6.102  13.199 -0.4170  1.6287 -0.8094
 5779TIP3   OH238751   3.438   0.482  10.771  0.3435 -0.0721 -0.3774
 5779TIP3    H138752   3.480   0.452  10.691  3.4833  0.2363  1.0169
 5779TIP3    H238753   3.396   0.403  10.807  0.1338 -0.5228 -1.5470
 5780TIP3   OH238754   6.564   5.211   3.070 -0.5105  0.7826  0.1390
 5780TIP3    H138755   6.535   5.278   3.008  0.5262 -0.0777 -1.3408
 5780TIP3    H238756   6.659   5.210   3.062 -0.5150 -1.2349 -0.3337
 5781TIP3   OH238757   5.561   1.851   1.952 -0.2268 -0.0670  0.0124
 5781TIP3    H138758   5.476   1.878   1.919 -1.8144 -1.1531  2.8400
 5781TIP3    H238759   5.608   1.819   1.875 -3.1233 -1.3371 -1.3672
 5782TIP3   OH238760   2.774   3.828   0.261  0.0688  0.3914  0.0566
 5782TIP3    H138761   2.713   3.891   0.301  1.3673  1.1350  0.9199
 5782TIP3    H238762   2.804   3.775   0.335  0.3058 -0.1252 -0.4055
 5783TIP3   OH238763   5.153   2.485  14.801 -0.3599 -0.1659 -0.5972
 5783TIP3    H138764   5.245   2.513  14.803 -0.5630  0.4737  0.0634
 5783TIP3    H238765   5.108   2.555  14.753 -0.4505 -0.6754 -1.2823
 5784TIP3   OH238766   4.931   5.679   6.362  0.1042  0.6483  0.0256
 5784TIP3    H138767   4.985   5.611   6.402  0.5152  0.6944 -0.4396
 5784TIP3    H238768   4.842   5.646   6.368  0.3681 -0.2707 -0.8385
 5785TIP3   OH238769   6.582   4.830  11.419  0.1211  0.2788  0.0298
 5785TIP3    H138770   6.600   4.923  11.433 -0.4482  0.2991  0.6357
 5785TIP3    H238771   6.620   4.786  11.495 -0.2236  0.0825  0.0886
 5786TIP3   OH238772   3.418   0.582   3.919  0.3414  0.0985  0.4804
 5786TIP3    H138773   3.508   0.613   3.925  0.3727  0.1081 -0.0354
 5786TIP3    H238774   3.405   0.561   3.827  0.0391 -0.5859  0.6653
 5787TIP3   OH238775   0.659   1.118   0.034 -0.1862  0.7299 -0.4652
 5787TIP3    H138776   0.641   1.097  -0.057 -1.8217 -0.6134  0.1010
 5787TIP3    H238777   0.639   1.036   0.081 -2.9950  2.3639  1.4766
 5788TIP3   OH238778   5.468   0.114  15.425 -0.3623  0.8027 -0.0386
 5788TIP3    H138779   5.450   0.080  15.337 -1.0570 -1.0820  0.7769
 5788TIP3    H238780   5.403   0.185  15.436 -1.3701 -0.0239 -0.4584
 5789TIP3   OH238781   6.692   0.703   3.738  0.0736  0.6282 -0.1462
 5789TIP3    H138782   6.742   0.725   3.659  0.2533  1.1098  0.0973
 5789TIP3    H238783   6.739   0.628   3.775  1.3371  1.7877  0.7101
 5790TIP3   OH238784   6.040   4.026  14.514 -0.7396 -0.0476 -0.0725
 5790TIP3    H138785   6.088   3.986  14.442 -1.4202 -2.5492  0.7716
 5790TIP3    H238786   5.960   4.060  14.474 -0.6056 -0.4144 -0.6673
 5791TIP3   OH238787   2.020   6.203   3.326  0.1154  0.8691 -0.4975
 5791TIP3    H138788   2.043   6.215   3.418 -0.0976  0.6381 -0.4152
 5791TIP3    H238789   2.090   6.148   3.291 -0.6284 -0.3820 -0.0928
 5792TIP3   OH238790   6.351   1.238   5.524  0.2887  0.3364 -0.0623
 5792TIP3    H138791   6.256   1.228   5.523  0.2099 -0.0391  2.8798
 5792TIP3    H238792   6.365   1.333   5.515 -0.2753  0.3276 -1.2864
 5793TIP3   OH238793   0.358   1.775  11.845  0.1692 -0.1882  0.1487
 5793TIP3    H138794   0.370   1.708  11.912  0.7650 -0.2775 -0.0423
 5793TIP3    H238795   0.376   1.731  11.763 -3.6439 -0.9526 -0.4670
 5794TIP3   OH238796   2.988   5.821   5.488  0.2565  0.0393 -0.2477
 5794TIP3    H138797   3.017   5.795   5.575 -1.7764 -0.2823  0.3925
 5794TIP3    H238798   3.025   5.756   5.429 -0.6633 -1.4353  0.7443
 5795TIP3   OH238799   1.601   5.082  13.297  0.3583 -0.2435  0.5529
 5795TIP3    H138800   1.686   5.122  13.277  0.3743  0.6213  2.1928
 5795TIP3    H238801   1.624   4.999  13.338  0.3560 -0.9105 -0.7461
 5796TIP3   OH238802   2.068   4.405  14.709  0.0744 -0.1593  0.1914
 5796TIP3    H138803   2.020   4.388  14.790  0.0887  3.1603  1.0385
 5796TIP3    H238804   2.153   4.362  14.722 -0.4176 -0.8215  1.3548
 5797TIP3   OH238805   3.831   6.031  13.684 -0.3043 -0.0229 -0.2796
 5797TIP3    H138806   3.765   6.060  13.621 -1.5920  1.8113  1.7671
 5797TIP3    H238807   3.848   6.108  13.738 -0.6155 -1.8868  2.7040
 5798TIP3   OH238808   5.752   4.124   3.324  0.1897 -0.1408  0.0154
 5798TIP3    H138809   5.806   4.191   3.282 -0.6953  0.2834 -0.4710
 5798TIP3    H238810   5.801   4.100   3.402  0.4176  1.2588  0.3354
 5799TIP3   OH238811   1.512   5.037   6.388 -0.1720 -0.3103  0.1129
 5799TIP3    H138812   1.567   4.964   6.359 -1.8131 -1.6509  0.2574
 5799TIP3    H238813   1.572   5.112   6.391  2.0942 -2.0443  2.0328
 5800TIP3   OH238814   3.977   1.137  15.492 -0.7275 -1.0637  0.1956
 5800TIP3    H138815   4.051   1.083  15.463 -0.5259 -0.2495 -0.9117
 5800TIP3    H238816   3.979   1.132  15.587  0.3639 -1.5869  0.1614
 5801TIP3   OH238817   4.414   1.208   2.982  0.2100 -0.1318  0.1544
 5801TIP3    H138818   4.338   1.247   2.940  1.6030  1.3468 -1.1657
 5801TIP3    H238819   4.448   1.277   3.039 -0.0495 -1.1628  1.6122
 5802TIP3   OH238820   5.001   5.805   4.355 -0.0152 -0.0383  0.2848
 5802TIP3    H138821   4.967   5.866   4.290 -0.0773  0.8159  1.1025
 5802TIP3    H238822   4.928   5.792   4.416 -0.9515 -3.0259 -1.2821
 5803TIP3   OH238823   3.227   3.364  14.217  0.4204 -0.0925 -0.0065
 5803TIP3    H138824   3.220   3.416  14.297  0.7589  0.1010 -0.1018
 5803TIP3    H238825   3.274   3.285  14.244 -0.4609 -0.5506  0.2303
 5804TIP3   OH238826   4.450   2.381  16.646 -0.0944 -0.0793  0.0521
 5804TIP3    H138827   4.508   2.363  16.571 -1.2800 -0.1772 -0.8655
 5804TIP3    H238828   4.426   2.294  16.679 -0.3849 -0.0540 -0.0932
 5805TIP3   OH238829   3.324   4.689   3.951 -0.0417  0.1124  0.2429
 5805TIP3    H138830   3.312   4.779   3.980  1.0203  0.3136  0.0729
 5805TIP3    H238831   3.264   4.679   3.877 -1.4068  0.1553  1.3071
 5806TIP3   OH238832   4.485   3.958   3.643 -0.0182  0.1228  0.4040
 5806TIP3    H138833   4.572   3.995   3.658  0.2085  0.5034 -1.6034
 5806TIP3    H238834   4.466   3.910   3.724  1.9668  0.1867  0.9748
 5807TIP3   OH238835   0.468   1.690  12.897 -0.2358 -0.0900  0.3231
 5807TIP3    H138836   0.470   1.596  12.878  0.7343  0.0247 -0.2189
 5807TIP3    H238837   0.536   1.727  12.841  0.9363  0.6273  2.1253
 5808TIP3   OH238838   3.783   5.226   1.182 -0.7829  0.6492  0.1484
 5808TIP3    H138839   3.712   5.214   1.119  0.9617  2.9316 -2.4516
 5808TIP3    H238840   3.750   5.292   1.243 -1.4195  0.5832 -0.1176
 5809TIP3   OH238841   2.864   2.671   4.987  0.1961  0.1790  0.0530
 5809TIP3    H138842   2.876   2.703   4.898  1.6872  0.0633  0.1870
 5809TIP3    H238843   2.848   2.577   4.976 -1.2742  0.4222 -0.1599
 5810TIP3   OH238844   0.863   3.653   1.063 -0.1661 -0.2563  0.3954
 5810TIP3    H138845   0.908   3.571   1.040  0.4540  0.3101 -0.4627
 5810TIP3    H238846   0.933   3.716   1.075 -0.7048  0.5769 -0.7006
 5811TIP3   OH238847   5.406   1.612  15.849 -0.3889 -0.8561 -0.1378
 5811TIP3    H138848   5.414   1.686  15.789  0.2515 -0.0416  0.9168
 5811TIP3    H238849   5.479   1.554  15.825 -0.0622 -0.4787 -0.0739
 5812TIP3   OH238850   1.210   3.321  15.301  0.4779 -0.0673 -0.5098
 5812TIP3    H138851   1.227   3.316  15.207 -0.6649 -1.5238 -0.6755
 5812TIP3    H238852   1.263   3.251  15.339  0.4230  0.0843 -0.1485
 5813TIP3   OH238853   1.570   4.287  13.262 -0.0566 -0.3402  0.2049
 5813TIP3    H138854   1.555   4.193  13.277 -1.6612 -0.3715 -1.3076
 5813TIP3    H238855   1.536   4.303  13.174 -1.5279  2.0332  1.1070
 5814TIP3   OH238856   4.631   2.746  12.289  0.9867  0.3652 -0.1696
 5814TIP3    H138857   4.579   2.798  12.227 -1.0508 -2.0487 -0.6577
 5814TIP3    H238858   4.710   2.724  12.240 -0.9020 -2.1244 -2.4099
 5815TIP3   OH238859   6.467   0.522   4.652 -0.0367  0.2375 -0.3560
 5815TIP3    H138860   6.519   0.578   4.710 -1.2736  0.1060  0.9250
 5815TIP3    H238861   6.510   0.531   4.566  1.2003  1.2714  0.3255
 5816TIP3   OH238862   1.192   4.205   4.315 -0.2706 -0.1458 -0.0061
 5816TIP3    H138863   1.212   4.271   4.249 -0.6332  1.8492  1.7664
 5816TIP3    H238864   1.126   4.149   4.274  0.1700  0.4597 -1.6331
 5817TIP3   OH238865   6.067   4.586  12.937 -0.1799  0.6735 -0.2894
 5817TIP3    H138866   5.975   4.593  12.963 -0.1636 -1.1687  0.4600
 5817TIP3    H238867   6.064   4.579  12.842 -0.6060  2.8512 -0.4912
 5818TIP3   OH238868   6.209   6.553   0.963  0.0736  0.1513 -0.1767
 5818TIP3    H138869   6.227   6.543   0.870  0.9485 -1.1787  0.1099
 5818TIP3    H238870   6.257   6.482   1.005 -1.1290  0.0927  1.1994
 5819TIP3   OH238871   5.196   0.090   3.692  0.1678 -0.9459 -0.0552
 5819TIP3    H138872   5.287   0.065   3.709 -0.3045 -2.8909 -0.1478
 5819TIP3    H238873   5.170   0.140   3.769  1.6830  0.8144 -0.6114
 5820TIP3   OH238874   1.748   5.020   5.555  0.5141 -0.2643 -0.3780
 5820TIP3    H138875   1.811   5.037   5.485  0.1847 -0.7174 -0.7932
 5820TIP3    H238876   1.774   5.079   5.626  0.4014  0.7649 -1.1593
 5821TIP3   OH238877   0.915   3.526  11.304  0.1865  0.7212  0.2259
 5821TIP3    H138878   0.910   3.542  11.210 -1.0614  0.0073  0.1484
 5821TIP3    H238879   0.884   3.436  11.315 -0.2797  0.9979  1.3740
 5822TIP3   OH238880   5.522   5.579  12.385 -0.3545  0.1192  0.4743
 5822TIP3    H138881   5.590   5.522  12.420 -0.0560 -1.2799 -2.1669
 5822TIP3    H238882   5.490   5.534  12.307 -2.8982  1.7267  0.4634
 5823TIP3   OH238883   4.194   4.844  17.215 -0.3816 -0.1783 -0.2489
 5823TIP3    H138884   4.161   4.811  17.131 -1.9675 -0.7965  0.5780
 5823TIP3    H238885   4.283   4.809  17.221  0.3032  1.0402 -2.2864
 5824TIP3   OH238886   1.508   1.823   4.486  0.1654  0.4356 -0.5124
 5824TIP3    H138887   1.518   1.913   4.457  0.7083  0.4824 -0.1922
 5824TIP3    H238888   1.538   1.824   4.577  0.2500 -0.0856 -0.5336
 5825TIP3   OH238889   0.353   1.036  11.944  0.0359  0.2858 -0.2203
 5825TIP3    H138890   0.391   1.090  12.012  0.2891 -0.5790  0.3367
 5825TIP3    H238891   0.288   1.093  11.902 -0.5912  0.6304  1.1566
 5826TIP3   OH238892   4.785   0.315   2.436  0.1138 -0.1154  0.0976
 5826TIP3    H138893   4.773   0.226   2.404 -0.0380 -0.0483 -0.0289
 5826TIP3    H238894   4.877   0.318   2.463  0.3485 -0.0577 -0.6853
 5827TIP3   OH238895   2.144   4.812   0.779 -0.1345 -0.2000 -0.2710
 5827TIP3    H138896   2.192   4.816   0.862 -0.3258 -1.0206 -0.1217
 5827TIP3    H238897   2.093   4.894   0.777  0.1777  0.0101  0.2266
 5828TIP3   OH238898   3.781   2.565  15.776 -0.1762 -0.2942  0.2426
 5828TIP3    H138899   3.712   2.576  15.710 -0.5163 -0.0858  0.6297
 5828TIP3    H238900   3.734   2.565  15.860  0.2336 -0.7423  0.4779
 5829TIP3   OH238901   2.702   2.158   4.951  0.0542  0.0301  0.2339
 5829TIP3    H138902   2.742   2.094   5.010  1.2635  0.6693  0.1166
 5829TIP3    H238903   2.770   2.179   4.888  0.5215  3.1372  1.6061
 5830TIP3   OH238904   4.256   6.736   0.688 -0.1812  0.0872 -0.7181
 5830TIP3    H138905   4.221   6.670   0.748  1.2974  0.6841  0.8698
 5830TIP3    H238906   4.271   6.813   0.744  1.5317  0.5637 -1.7800
 5831TIP3   OH238907   0.554   1.316  10.673  0.4646 -0.3868 -0.6319
 5831TIP3    H138908   0.472   1.293  10.631  0.9474  0.7263 -2.2959
 5831TIP3    H238909   0.589   1.387  10.620  1.6495  0.3817  1.0763
 5832TIP3   OH238910   4.661   5.083  12.088  0.0958  0.7123 -0.4221
 5832TIP3    H138911   4.632   5.106  12.000 -1.6403  1.6501  0.3564
 5832TIP3    H238912   4.690   4.992  12.080  0.7614  1.0198 -2.1091
 5833TIP3   OH238913   1.573   5.327   4.648 -0.3866  0.2775  0.1300
 5833TIP3    H138914   1.488   5.329   4.605 -0.3643  2.1537  0.0590
 5833TIP3    H238915   1.627   5.270   4.594 -1.7817 -1.5795  0.6109
 5834TIP3   OH238916   4.992   4.203   6.108 -0.2999  0.0405  0.5501
 5834TIP3    H138917   4.906   4.204   6.150 -0.6235 -3.6327  0.2415
 5834TIP3    H238918   5.054   4.186   6.180 -0.0441  0.6097  0.4722
 5835TIP3   OH238919   4.325   2.947  16.564 -0.1810 -0.3515  0.0999
 5835TIP3    H138920   4.269   2.918  16.492  2.6755 -0.4152 -2.2783
 5835TIP3    H238921   4.374   2.870  16.590  0.9715  0.3457  0.0360
 5836TIP3   OH238922   5.518   4.993   5.968 -0.1396  0.2895  0.0772
 5836TIP3    H138923   5.571   4.970   6.044 -1.0173 -0.4634  0.4901
 5836TIP3    H238924   5.530   4.920   5.908  1.9910  1.7072 -1.3422
 5837TIP3   OH238925   6.534   6.715   2.971 -0.2463 -0.1362 -0.3065
 5837TIP3    H138926   6.547   6.786   2.908 -0.6526  0.4266  0.2333
 5837TIP3    H238927   6.490   6.646   2.921  2.5324 -1.1303 -1.5409
 5838TIP3   OH238928   0.331   0.031   5.155  0.5126  0.4500 -0.2181
 5838TIP3    H138929   0.424   0.010   5.162  0.5942  0.7051 -0.5223
 5838TIP3    H238930   0.326   0.097   5.086 -0.1361 -1.2197 -1.8711
 5839TIP3   OH238931   3.413   0.823   3.484  0.3824 -0.0200  0.0800
 5839TIP3    H138932   3.477   0.889   3.508  1.1368 -0.6164 -0.2564
 5839TIP3    H238933   3.367   0.804   3.566 -0.7847  1.8623 -0.0666
 5840TIP3   OH238934   6.079   2.059   3.988 -0.8414  0.2096  0.0687
 5840TIP3    H138935   5.993   2.102   3.988 -1.6331 -1.2240 -1.7018
 5840TIP3    H238936   6.076   2.000   4.063 -1.4079  0.1772  0.0237
 5841TIP3   OH238937   1.685   2.481  15.389  0.7606 -0.0466 -0.0424
 5841TIP3    H138938   1.678   2.389  15.416  1.1801 -0.0045  0.2311
 5841TIP3    H238939   1.778   2.501  15.397  0.9252 -0.0523 -1.6373
 5842TIP3   OH238940   2.192   3.021  13.830 -0.1842  0.1788 -0.1084
 5842TIP3    H138941   2.138   2.982  13.761  0.2184  0.4130 -0.5640
 5842TIP3    H238942   2.148   3.104  13.850 -0.5275 -0.0752  0.2095
 5843TIP3   OH238943   3.127   5.284  13.373 -0.2283 -0.6479 -0.3382
 5843TIP3    H138944   3.169   5.200  13.393 -2.4231 -1.7926 -0.2413
 5843TIP3    H238945   3.073   5.302  13.450 -1.4914 -0.2888 -1.2863
 5844TIP3   OH238946   0.450   2.026  11.866  0.4447 -0.1486 -0.1658
 5844TIP3    H138947   0.409   1.941  11.847 -1.8965  0.8416  0.1270
 5844TIP3    H238948   0.381   2.077  11.907  2.0523  1.6507  0.4305
 5845TIP3   OH238949   3.574   6.332  10.966  0.0300 -0.1194  0.0755
 5845TIP3    H138950   3.554   6.419  10.930  0.6712  0.2952  0.7110
 5845TIP3    H238951   3.563   6.273  10.891 -0.1235  0.5387 -0.4362
 5846TIP3   OH238952   4.930   0.383  12.603 -0.0612 -0.3341 -0.4605
 5846TIP3    H138953   4.982   0.404  12.525  0.6839 -0.2787  0.0387
 5846TIP3    H238954   4.960   0.445  12.669 -0.7167 -0.3525 -0.1383
 5847TIP3   OH238955   4.833   2.881   2.994  0.0004 -0.5138  0.8428
 5847TIP3    H138956   4.853   2.796   2.954 -0.0859 -0.3141  0.3625
 5847TIP3    H238957   4.809   2.937   2.920  1.6500  0.3937  0.9308
 5848TIP3   OH238958   2.005   0.674  12.333 -0.6925  0.1507 -0.5731
 5848TIP3    H138959   2.039   0.686  12.244  0.6661  1.3552  0.0804
 5848TIP3    H238960   2.011   0.760  12.373 -2.3346 -0.1376  0.3683
 5849TIP3   OH238961   0.587   2.561  16.615  0.0868 -0.3713  0.1157
 5849TIP3    H138962   0.569   2.628  16.681 -1.3538  1.3321 -1.8861
 5849TIP3    H238963   0.683   2.556  16.612  0.2098  1.0386  0.8413
 5850TIP3   OH238964   4.061   0.702  13.206 -0.0672  0.2973 -0.1077
 5850TIP3    H138965   4.117   0.627  13.228  0.1159  0.5810  0.4082
 5850TIP3    H238966   4.089   0.728  13.119  0.6798  0.5010  0.1879
 5851TIP3   OH238967   0.799   6.360   3.854  0.5697 -0.4038 -0.5464
 5851TIP3    H138968   0.805   6.356   3.758 -0.6642  3.2794 -0.9527
 5851TIP3    H238969   0.885   6.393   3.881  1.0564 -1.8198 -0.2784
 5852TIP3   OH238970   3.100   3.415   0.190  0.4496  0.0635  0.2794
 5852TIP3    H138971   3.169   3.372   0.241  2.1128  3.1694  0.9063
 5852TIP3    H238972   3.113   3.382   0.101  0.4156 -2.0309  0.9798
 5853TIP3   OH238973   3.164   2.084   5.875 -0.2219  0.1922  0.2714
 5853TIP3    H138974   3.205   2.013   5.924  1.3141  1.4538  0.9130
 5853TIP3    H238975   3.076   2.091   5.913 -1.0954 -2.4708 -1.0306
 5854TIP3   OH238976   0.073   1.533  13.055 -0.2836  0.3867 -0.2577
 5854TIP3    H138977   0.003   1.592  13.027  1.0051  2.6193  0.8996
 5854TIP3    H238978   0.113   1.578  13.130  1.2891 -1.6298  0.1950
 5855TIP3   OH238979   5.525   5.868  16.350 -0.0588  0.4372  0.3262
 5855TIP3    H138980   5.576   5.787  16.356 -1.9431 -0.7009  2.3421
 5855TIP3    H238981   5.527   5.903  16.440 -1.6101  1.1142  0.1188
 5856TIP3   OH238982   5.585   5.405   2.779 -0.3973  0.0046 -0.4034
 5856TIP3    H138983   5.628   5.491   2.771 -0.5323  0.0742 -0.3823
 5856TIP3    H238984   5.528   5.400   2.702 -2.6188  1.1921  1.0401
 5857TIP3   OH238985   1.745   1.629   4.687  0.1454  0.1269 -0.7935
 5857TIP3    H138986   1.797   1.651   4.764 -1.3341  2.3642 -0.3468
 5857TIP3    H238987   1.800   1.655   4.613 -0.5801  3.5571 -0.3159
 5858TIP3   OH238988   2.490   5.125   4.652  0.2644  0.6682 -0.8614
 5858TIP3    H138989   2.434   5.183   4.600 -1.9342  1.9666  2.6512
 5858TIP3    H238990   2.465   5.037   4.624 -1.1613  1.2884 -1.6639
 5859TIP3   OH238991   6.656   1.404  15.478  0.0477  0.0367 -0.2704
 5859TIP3    H138992   6.638   1.342  15.549  1.4743  1.0172  1.0080
 5859TIP3    H238993   6.578   1.400  15.422  0.1598 -3.0345 -0.3713
 5860TIP3   OH238994   0.322   1.752   1.470 -0.0702  0.6860 -0.0439
 5860TIP3    H138995   0.233   1.770   1.442 -0.1889  1.7062  0.9201
 5860TIP3    H238996   0.361   1.705   1.396 -2.1462 -2.1705  0.5499
 5861TIP3   OH238997   3.594   3.116   2.809  0.0287  0.3939  0.5637
 5861TIP3    H138998   3.600   3.111   2.714 -0.9594  0.7117  0.4776
 5861TIP3    H238999   3.609   3.208   2.830  1.0719  0.1928  0.8015
 5862TIP3   OH239000   5.271   6.100   6.339  0.3027 -0.5258 -0.1165
 5862TIP3    H139001   5.237   6.029   6.285  0.6834 -0.4299 -0.4893
 5862TIP3    H239002   5.325   6.151   6.279  1.7803 -1.1386  0.6547
 5863TIP3   OH239003   6.341   5.344  15.261  0.3551  0.1090 -0.1304
 5863TIP3    H139004   6.371   5.385  15.180  1.2007 -2.0988 -1.0253
 5863TIP3    H239005   6.255   5.383  15.278  0.8654  1.7908 -1.1658
 5864TIP3   OH239006   3.099   3.312  12.812  0.1893 -0.4889 -0.5847
 5864TIP3    H139007   3.175   3.354  12.852 -0.5381  1.2185 -0.9041
 5864TIP3    H239008   3.028   3.324  12.876 -0.4096  0.1942 -1.3518
 5865TIP3   OH239009   5.497   0.594  13.703  0.9846  0.4071 -0.3685
 5865TIP3    H139010   5.449   0.599  13.620  0.0077 -1.6081 -0.0070
 5865TIP3    H239011   5.446   0.649  13.763 -0.4826 -1.0148 -0.2200
 5866TIP3   OH239012   2.567   2.641  16.766  0.2386  0.9586 -0.0968
 5866TIP3    H139013   2.616   2.587  16.703 -1.4395 -0.4675 -0.2364
 5866TIP3    H239014   2.608   2.623  16.850 -0.5611 -0.9377 -0.0722
 5867TIP3   OH239015   6.367   0.848   2.334 -0.0612  0.1305 -0.0589
 5867TIP3    H139016   6.462   0.846   2.321 -0.0592 -0.3148  0.0151
 5867TIP3    H239017   6.333   0.885   2.253  0.0920 -0.8517 -0.5916
 5868TIP3   OH239018   2.951   3.320   0.670 -0.0908  0.2737  0.1272
 5868TIP3    H139019   2.929   3.411   0.694  0.4173  0.8542 -1.4893
 5868TIP3    H239020   2.971   3.324   0.577  1.2652 -1.2673  0.3082
 5869TIP3   OH239021   3.035   4.509   1.715  0.0137  0.1791  0.2087
 5869TIP3    H139022   3.005   4.484   1.803 -0.9595 -1.5990 -0.5826
 5869TIP3    H239023   3.110   4.453   1.699 -0.3744 -0.1645 -0.4382
 5870TIP3   OH239024   2.376   4.694  14.235  0.5553  0.3040  0.4674
 5870TIP3    H139025   2.322   4.643  14.175  0.5367  0.3772  0.4216
 5870TIP3    H239026   2.458   4.708  14.188  0.2843  0.9514  0.1840
 5871TIP3   OH239027   3.218   6.382   3.929  0.0047 -0.2466 -0.2774
 5871TIP3    H139028   3.212   6.287   3.921 -0.2600 -0.1404 -1.7837
 5871TIP3    H239029   3.297   6.397   3.981  0.2443 -1.2823 -0.3196
 5872TIP3   OH239030   1.478   3.048  14.733 -0.2158 -0.1504  0.2749
 5872TIP3    H139031   1.455   3.078  14.821  0.3849 -0.3663  0.5102
 5872TIP3    H239032   1.394   3.029  14.691 -0.6308  1.8016  0.1238
 5873TIP3   OH239033   0.994   6.395  15.090  0.0809 -0.2572  0.2038
 5873TIP3    H139034   1.088   6.385  15.110  0.1340 -2.1261 -0.7967
 5873TIP3    H239035   0.950   6.358  15.167  0.2259 -1.5163 -0.2857
 5874TIP3   OH239036   3.654   6.109  15.097  0.1531  0.2104 -0.2816
 5874TIP3    H139037   3.670   6.187  15.045  1.4345 -0.8442 -1.5270
 5874TIP3    H239038   3.707   6.041  15.056 -2.0248 -1.6960 -0.1332
 5875TIP3   OH239039   2.476   0.742  12.654 -0.0187  0.1777 -0.8688
 5875TIP3    H139040   2.539   0.670  12.650 -1.6768 -1.3717 -0.6436
 5875TIP3    H239041   2.476   0.770  12.745  0.9687  0.7996 -1.0501
 5876TIP3   OH239042   5.067   3.329  12.389  0.2035 -0.3745  0.1186
 5876TIP3    H139043   5.142   3.278  12.359 -0.1522 -1.2744  0.6919
 5876TIP3    H239044   5.076   3.414  12.346  2.0008 -0.1661  0.8311
 5877TIP3   OH239045   2.724   0.823  16.250 -0.3316 -0.0761 -0.0246
 5877TIP3    H139046   2.802   0.840  16.303  0.0008  2.1651 -1.1307
 5877TIP3    H239047   2.734   0.732  16.222  2.3232  0.3688 -0.8036
 5878TIP3   OH239048   4.923   6.637   0.465  0.2433 -0.3300 -0.3438
 5878TIP3    H139049   4.922   6.551   0.424 -2.4420  0.4230 -2.0497
 5878TIP3    H239050   4.994   6.684   0.421 -0.3317 -0.6788 -1.6764
 5879TIP3   OH239051   6.640   5.345  11.962 -0.0127 -0.2848 -0.8977
 5879TIP3    H139052   6.653   5.406  11.889 -1.9982  1.7257  0.3166
 5879TIP3    H239053   6.610   5.264  11.921 -0.0262  0.4344 -2.3737
 5880TIP3   OH239054   2.832   2.958   2.250 -0.4688 -0.2666 -0.0895
 5880TIP3    H139055   2.878   2.924   2.174  1.2669 -1.1348  1.2671
 5880TIP3    H239056   2.779   2.885   2.280 -0.7166 -0.1086 -0.1428
 5881TIP3   OH239057   0.892   4.725   2.374  0.4826 -0.7287 -0.0271
 5881TIP3    H139058   0.932   4.804   2.336  0.2244  0.1419  1.4165
 5881TIP3    H239059   0.943   4.653   2.338  1.5732  0.1778 -0.3766
 5882TIP3   OH239060   2.817   3.754  14.194 -0.3222  0.3950 -0.1415
 5882TIP3    H139061   2.884   3.809  14.233  0.1808  0.4272 -1.0309
 5882TIP3    H239062   2.748   3.750  14.260  1.0977 -0.7409  1.3667
 5883TIP3   OH239063   2.597   5.236  16.902  0.4402  0.1847 -0.9973
 5883TIP3    H139064   2.629   5.295  16.833 -0.7654 -0.3606 -2.0484
 5883TIP3    H239065   2.638   5.152  16.882 -1.6017 -0.5512 -2.4215
 5884TIP3   OH239066   6.275   5.373  17.143  0.3799 -0.8210 -0.0146
 5884TIP3    H139067   6.197   5.428  17.139  0.6205 -0.5590 -1.3150
 5884TIP3    H239068   6.241   5.283  17.150 -0.0129 -0.5857  1.9279
 5885TIP3   OH239069   3.773   4.867  15.134  0.0348 -0.2875  0.3900
 5885TIP3    H139070   3.752   4.828  15.219  0.8333 -1.4364  0.0899
 5885TIP3    H239071   3.852   4.918  15.150 -0.3010  0.2006  0.5129
 5886TIP3   OH239072   1.479   4.740   5.193 -0.0108 -0.1671 -0.1398
 5886TIP3    H139073   1.556   4.795   5.197  1.0958 -1.6201 -0.6114
 5886TIP3    H239074   1.436   4.762   5.110  1.3864 -1.2063 -1.1812
 5887TIP3   OH239075   2.105   4.661   5.566 -0.2643  0.3201 -0.0004
 5887TIP3    H139076   2.113   4.568   5.587 -0.6024  0.3620  0.3488
 5887TIP3    H239077   2.154   4.706   5.635 -0.6471  0.4247  0.2087
 5888TIP3   OH239078   2.188   1.130   1.160 -0.0136  0.2119  0.0819
 5888TIP3    H139079   2.206   1.063   1.094  0.6067  1.0143 -0.5921
 5888TIP3    H239080   2.262   1.191   1.152 -0.9492  1.3833  0.1371
 5889TIP3   OH239081   1.054   0.142   3.468  0.3901  0.1092 -0.2132
 5889TIP3    H139082   1.041   0.213   3.405 -1.0992  1.0481  1.0836
 5889TIP3    H239083   1.125   0.173   3.525  0.0887  0.3379  0.0401
 5890TIP3   OH239084   1.094   3.137   1.128 -0.0718 -0.7789 -0.5483
 5890TIP3    H139085   1.062   3.057   1.170 -0.3347 -0.3654  0.0466
 5890TIP3    H239086   1.181   3.151   1.166 -0.8208  0.2994  0.8495
 5891TIP3   OH239087   3.677   2.034   4.773  0.1412  0.3228  0.0482
 5891TIP3    H139088   3.743   1.974   4.808  1.5120  0.4720 -2.1163
 5891TIP3    H239089   3.640   1.988   4.697 -0.4812  1.2477 -0.2294
 5892TIP3   OH239090   2.020   5.820   3.831  0.1042 -1.0048  0.2664
 5892TIP3    H139091   1.988   5.742   3.876 -0.2396  0.0150  1.8464
 5892TIP3    H239092   2.013   5.890   3.896 -3.3947  1.2590 -2.2025
 5893TIP3   OH239093   6.613   0.153   0.016 -0.0489 -0.0429  0.0578
 5893TIP3    H139094   6.542   0.190  -0.037 -0.1761  0.7585  0.7643
 5893TIP3    H239095   6.576   0.071   0.051 -0.0351 -0.4734 -0.8874
 5894TIP3   OH239096   2.257   5.467  12.171  0.5441 -0.5130 -0.6854
 5894TIP3    H139097   2.250   5.544  12.115 -1.2944 -0.3052 -0.2331
 5894TIP3    H239098   2.251   5.501  12.260  0.8907 -1.0694 -0.4471
 5895TIP3   OH239099   0.556   2.784   4.462 -0.0431  0.1558 -0.5775
 5895TIP3    H139100   0.639   2.821   4.432  0.2981 -0.5624 -0.5495
 5895TIP3    H239101   0.581   2.729   4.537 -0.7232  1.0054  0.3070
 5896TIP3   OH239102   1.465   0.299   1.729  0.6605 -0.5398  0.0726
 5896TIP3    H139103   1.456   0.307   1.824  0.2025  1.2181 -0.0826
 5896TIP3    H239104   1.470   0.390   1.698 -1.1906 -0.9900 -1.7569
 5897TIP3   OH239105   0.517   2.085  15.935 -0.5872  0.1684 -0.3055
 5897TIP3    H139106   0.572   2.057  15.862  0.3631 -0.2545  0.5370
 5897TIP3    H239107   0.577   2.088  16.010 -1.6266  0.1596  0.5490
 5898TIP3   OH239108   0.335   0.422   0.098 -0.4628  0.0790 -0.6325
 5898TIP3    H139109   0.406   0.476   0.133 -1.8442  1.7303 -0.2209
 5898TIP3    H239110   0.345   0.338   0.143  0.7652  0.5129 -0.0249
 5899TIP3   OH239111   0.428   1.271   0.394  0.2363  0.2020  0.0179
 5899TIP3    H139112   0.510   1.313   0.369 -0.3966  1.0293 -0.7389
 5899TIP3    H239113   0.362   1.311   0.336 -0.5940 -0.9027  0.1688
 5900TIP3   OH239114   4.387   5.034  11.611 -0.0454 -0.3544  0.4842
 5900TIP3    H139115   4.306   5.081  11.634  0.7502  1.8597 -0.8582
 5900TIP3    H239116   4.386   5.030  11.515  0.0059 -3.1149  0.5214
 5901TIP3   OH239117   2.427   0.877  13.044  0.3125  0.0951 -0.1534
 5901TIP3    H139118   2.500   0.816  13.035 -0.5093 -0.8528 -0.5586
 5901TIP3    H239119   2.462   0.961  13.014  1.2703 -0.3027 -0.1959
 5902TIP3   OH239120   0.870   3.967  12.520  0.3729  0.0498 -0.0726
 5902TIP3    H139121   0.776   3.989  12.517  0.4792  0.4600 -0.5549
 5902TIP3    H239122   0.914   4.050  12.502  0.8895  0.2830  1.9562
 5903TIP3   OH239123   5.924   5.911   1.416  0.0301  0.3729 -0.2046
 5903TIP3    H139124   5.834   5.909   1.448  0.3723  0.0049  0.7617
 5903TIP3    H239125   5.959   5.824   1.435  0.5861  0.4983 -0.6048
 5904TIP3   OH239126   2.210   2.860   3.609 -0.4044 -0.0305 -0.5984
 5904TIP3    H139127   2.223   2.832   3.699 -0.0988  0.7296 -0.3938
 5904TIP3    H239128   2.184   2.952   3.616 -0.6557 -0.0453 -1.2687
 5905TIP3   OH239129   1.699   6.331   5.747 -0.0493 -0.0093  0.1122
 5905TIP3    H139130   1.658   6.272   5.810  1.3799 -0.6327  0.5183
 5905TIP3    H239131   1.682   6.291   5.662 -0.2858 -0.2493  0.2689
 5906TIP3   OH239132   5.350   4.468  10.810 -0.1691  0.5044 -0.5566
 5906TIP3    H139133   5.402   4.388  10.820 -0.6832  0.2249 -0.0680
 5906TIP3    H239134   5.413   4.534  10.782  1.0055  0.8404  2.5077
 5907TIP3   OH239135   4.371   5.971  14.053 -0.0823  0.8662  0.0984
 5907TIP3    H139136   4.422   6.030  14.109  1.0735  0.4097 -0.4406
 5907TIP3    H239137   4.336   6.028  13.985  1.4024  0.8925 -0.6795
 5908TIP3   OH239138   2.053   1.660   1.920  0.3326  0.2483 -0.0351
 5908TIP3    H139139   2.131   1.716   1.920  0.0779  0.6848  2.3537
 5908TIP3    H239140   2.015   1.670   2.007 -2.7016  0.4060 -1.2451
 5909TIP3   OH239141   0.324   6.243  12.962 -0.4420 -0.5732 -0.2429
 5909TIP3    H139142   0.278   6.232  12.879 -0.3569 -2.0974 -0.1119
 5909TIP3    H239143   0.414   6.217  12.943  0.2812  1.7158 -0.3233
 5910TIP3   OH239144   5.914   0.440   3.076 -0.7455  0.0406 -0.5531
 5910TIP3    H139145   5.912   0.534   3.097  0.7279  0.0667 -0.3956
 5910TIP3    H239146   5.866   0.399   3.147  1.9493  0.3626  1.6096
 5911TIP3   OH239147   1.763   3.496   3.221  0.3900 -0.0071  0.2442
 5911TIP3    H139148   1.696   3.561   3.243 -0.0134  0.1373 -1.3480
 5911TIP3    H239149   1.736   3.418   3.270  0.4514  0.7641  1.5573
 5912TIP3   OH239150   3.448   4.343   1.458 -0.0393  0.2747 -0.1934
 5912TIP3    H139151   3.531   4.366   1.417 -0.3959  0.5365 -0.7706
 5912TIP3    H239152   3.446   4.395   1.539 -0.4256  1.6385 -1.0339
 5913TIP3   OH239153   4.824   1.321  16.409 -0.4539 -0.7304  0.3390
 5913TIP3    H139154   4.781   1.302  16.326 -1.5204 -1.3584  1.0128
 5913TIP3    H239155   4.837   1.416  16.409  0.7467 -0.8574 -1.0849
 5914TIP3   OH239156   5.073   5.608  13.653 -0.1013 -0.9152 -0.5489
 5914TIP3    H139157   5.152   5.660  13.639 -0.9934 -0.1103 -3.0801
 5914TIP3    H239158   5.035   5.599  13.566 -2.7493 -1.3978  0.5812
 5915TIP3   OH239159   3.923   5.167   0.930 -0.2149  0.0669 -0.1496
 5915TIP3    H139160   3.841   5.190   0.974  0.0124  0.1375  0.2438
 5915TIP3    H239161   3.896   5.126   0.847 -0.6271  1.2403 -0.6072
 5916TIP3   OH239162   0.322   2.807   1.232 -0.4310  0.9409  0.0267
 5916TIP3    H139163   0.309   2.733   1.173 -1.1379 -0.2702  1.6195
 5916TIP3    H239164   0.314   2.770   1.320  2.3430  2.3306  0.9966
 5917TIP3   OH239165   4.975   1.981   0.788  0.5037 -0.1329  0.1648
 5917TIP3    H139166   4.907   2.037   0.750  2.0608  1.4450 -0.4364
 5917TIP3    H239167   4.972   1.901   0.736 -0.6948  0.0164 -0.0247
 5918TIP3   OH239168   6.619   0.873   1.650  0.1242  0.2206 -0.0956
 5918TIP3    H139169   6.626   0.881   1.745  0.4145  0.7370 -0.1584
 5918TIP3    H239170   6.546   0.930   1.626 -1.2791 -1.4432  0.0236
 5919TIP3   OH239171   2.854   1.017  13.930 -0.8731 -0.0430  0.4579
 5919TIP3    H139172   2.801   1.073  13.987 -0.5059 -0.2039  0.9649
 5919TIP3    H239173   2.848   1.058  13.844 -0.5818  0.8033  0.8271
 5920TIP3   OH239174   4.384   2.125   2.162  0.0865  0.1014  0.4825
 5920TIP3    H139175   4.298   2.144   2.124 -0.2438 -0.4821  0.9191
 5920TIP3    H239176   4.380   2.165   2.249  0.0289 -0.4583  0.7385
 5921TIP3   OH239177   4.223   0.496  12.934  0.0976  0.6615 -0.2625
 5921TIP3    H139178   4.272   0.464  12.857  0.2687  0.3435 -0.0220
 5921TIP3    H239179   4.147   0.438  12.940  0.3397  0.3816  0.0970
 5922TIP3   OH239180   4.836   1.493   4.545 -0.6334 -0.0339  0.1451
 5922TIP3    H139181   4.915   1.534   4.580  0.0667 -1.1580 -0.0687
 5922TIP3    H239182   4.868   1.424   4.488 -1.7791 -0.5505  0.1035
 5923TIP3   OH239183   5.668   2.653   3.150  0.6200  0.4193  0.4243
 5923TIP3    H139184   5.584   2.681   3.186  1.1088  0.7500  1.3312
 5923TIP3    H239185   5.655   2.562   3.125 -0.2432  0.6991 -0.2074
 5924TIP3   OH239186   3.970   0.268   0.739 -0.5148  0.3843 -0.8335
 5924TIP3    H139187   3.877   0.287   0.731 -0.7110 -0.4152 -0.6172
 5924TIP3    H239188   4.008   0.291   0.654 -1.2839 -1.2338 -1.6621
 5925TIP3   OH239189   5.644   2.536  15.140  0.1008 -0.1302  0.0989
 5925TIP3    H139190   5.703   2.471  15.103  1.4051  0.0640  1.6983
 5925TIP3    H239191   5.701   2.612  15.158 -0.7740  0.3323  0.9959
 5926TIP3   OH239192   3.713   2.578   4.938  0.5049  0.0839  0.2594
 5926TIP3    H139193   3.776   2.524   4.985  0.1244 -1.0229 -0.4618
 5926TIP3    H239194   3.722   2.551   4.846 -0.1175  0.8225 -0.0294
 5927TIP3   OH239195   1.312   1.102   1.909 -0.2909  0.2685 -0.4167
 5927TIP3    H139196   1.395   1.135   1.876  0.3315  0.1241  0.9338
 5927TIP3    H239197   1.245   1.141   1.852  0.7328 -0.4087 -2.1656
 5928TIP3   OH239198   5.916   1.786  15.329 -0.2796  0.5342  0.2387
 5928TIP3    H139199   6.010   1.767  15.326 -0.3803  0.0950 -0.2011
 5928TIP3    H239200   5.875   1.701  15.342 -0.7441  0.3729 -1.8673
 5929TIP3   OH239201   6.062   3.668  12.778  0.1036 -0.4298  0.5533
 5929TIP3    H139202   6.152   3.674  12.748  0.8987  0.3148  2.8638
 5929TIP3    H239203   6.029   3.758  12.773 -0.0635 -0.4675  0.9684
 5930TIP3   OH239204   4.802   0.741  16.159 -0.0762  0.2018 -0.1941
 5930TIP3    H139205   4.799   0.818  16.216 -0.1141  0.5952 -0.7168
 5930TIP3    H239206   4.791   0.776  16.070 -3.0173 -0.6641 -0.2596
 5931TIP3   OH239207   3.956   0.633  14.981  1.1254  0.3238 -0.4496
 5931TIP3    H139208   4.051   0.627  14.981  1.0843 -0.7038  0.7810
 5931TIP3    H239209   3.926   0.563  14.923  1.0867 -0.2342  0.2422
 5932TIP3   OH239210   6.563   0.652  13.886 -0.1743 -0.4854  0.2352
 5932TIP3    H139211   6.470   0.628  13.885 -0.4386  0.4995 -0.1150
 5932TIP3    H239212   6.571   0.713  13.959  0.4355 -1.4288  0.9702
 5933TIP3   OH239213   6.296   2.092  11.300  0.6978 -0.1770 -0.0680
 5933TIP3    H139214   6.366   2.066  11.240 -0.0006  0.6852 -1.3068
 5933TIP3    H239215   6.226   2.028  11.285  0.4228  0.1893 -0.3918
 5934TIP3   OH239216   2.812   0.796  12.762 -0.5118 -0.2621  0.1476
 5934TIP3    H139217   2.843   0.779  12.673 -1.1229 -0.5664 -0.0107
 5934TIP3    H239218   2.756   0.874  12.754  0.2377  0.3173  0.4409
 5935TIP3   OH239219   4.668   6.488  16.968  0.5886  0.4149  0.1378
 5935TIP3    H139220   4.594   6.450  17.015  1.3501 -1.1577  0.1130
 5935TIP3    H239221   4.745   6.452  17.011  1.3125 -0.8026 -2.0166
 5936TIP3   OH239222   4.019   5.431  14.858  1.1908  0.8200 -0.9419
 5936TIP3    H139223   4.009   5.347  14.812 -0.9382  0.2016  0.5211
 5936TIP3    H239224   4.079   5.412  14.930  0.0373  0.2800 -0.0934
 5937TIP3   OH239225   3.130   1.119   0.321  0.4187  0.0936 -0.8983
 5937TIP3    H139226   3.174   1.118   0.406  0.0245  2.0085 -0.6382
 5937TIP3    H239227   3.062   1.052   0.330 -1.4653  2.1286  1.3729
 5938TIP3   OH239228   2.905   6.303   1.023  0.1469 -0.6803 -0.6948
 5938TIP3    H139229   2.859   6.387   1.022  1.2946 -0.0283 -1.8754
 5938TIP3    H239230   2.898   6.272   1.113 -0.9259  0.3187 -0.4132
 5939TIP3   OH239231   5.858   0.512  14.071 -0.9632  0.0254 -0.4009
 5939TIP3    H139232   5.852   0.565  14.150 -2.0860 -0.3124 -0.2373
 5939TIP3    H239233   5.822   0.426  14.097 -0.0936 -0.5065 -0.9186
 5940TIP3   OH239234   3.574   2.688  15.298 -0.2333 -0.1176 -0.2035
 5940TIP3    H139235   3.553   2.781  15.306 -0.7890 -0.2589  0.0182
 5940TIP3    H239236   3.583   2.657  15.388  2.3116  0.2245 -0.2784
 5941TIP3   OH239237   1.827   1.955   4.566 -0.7802  0.4833  0.2699
 5941TIP3    H139238   1.879   1.889   4.522 -1.7921  0.9604 -1.7582
 5941TIP3    H239239   1.887   1.997   4.627  0.0767 -1.7390  1.0385
 5942TIP3   OH239240   1.420   2.832  11.577 -0.4841  0.3198  0.6718
 5942TIP3    H139241   1.447   2.797  11.662  0.7475  0.2348  0.2655
 5942TIP3    H239242   1.377   2.915  11.598  1.2103  1.0881  1.2894
 5943TIP3   OH239243   0.024   4.810   2.868 -0.4134  0.3922  0.0057
 5943TIP3    H139244   0.029   4.726   2.822  1.5787 -0.0033  0.8639
 5943TIP3    H239245   0.008   4.786   2.959  0.2094  0.9457  0.2643
 5944TIP3   OH239246   6.502   5.978  13.764  0.2957  0.0823  0.3593
 5944TIP3    H139247   6.566   6.001  13.832  1.2140  2.6665 -1.2475
 5944TIP3    H239248   6.554   5.963  13.685 -0.9906  1.5954 -0.8330
 5945TIP3   OH239249   3.807   6.249  16.550 -0.6466  0.4686 -0.0769
 5945TIP3    H139250   3.762   6.187  16.492 -1.0683  2.5012 -2.0717
 5945TIP3    H239251   3.886   6.204  16.577 -1.8774 -1.6743  0.2072
 5946TIP3   OH239252   0.280   4.078  14.518 -0.1000 -0.2921  0.5463
 5946TIP3    H139253   0.305   4.041  14.603 -0.0659 -0.0702  0.6325
 5946TIP3    H239254   0.361   4.111  14.481  0.0726 -1.3487 -0.0503
 5947TIP3   OH239255   1.772   6.538   1.113 -0.2492  0.3083 -0.1570
 5947TIP3    H139256   1.829   6.522   1.189  0.0694 -1.1024 -0.6517
 5947TIP3    H239257   1.717   6.460   1.108 -2.2529  1.6317  0.2857
 5948TIP3   OH239258   6.681   3.753  16.364  0.3868  0.0872  0.1055
 5948TIP3    H139259   6.697   3.666  16.401 -2.6569 -1.5499 -1.9231
 5948TIP3    H239260   6.608   3.787  16.416 -0.1341  0.2435 -0.7054
 5949TIP3   OH239261   5.024   0.187  11.832  0.1336 -0.3291 -0.1960
 5949TIP3    H139262   5.036   0.275  11.796  1.3951 -0.8009 -1.0146
 5949TIP3    H239263   5.062   0.192  11.920  3.0229 -0.7430 -1.2925
 5950TIP3   OH239264   4.836   3.367  11.762  0.9424  0.4098 -0.2721
 5950TIP3    H139265   4.783   3.375  11.683  1.1224 -1.4913 -0.6308
 5950TIP3    H239266   4.926   3.383  11.734  0.9494  0.2020 -0.3716
 5951TIP3   OH239267   4.713   3.524   0.559 -0.5631 -0.4065  0.4225
 5951TIP3    H139268   4.749   3.612   0.574 -1.6511  0.4120 -1.4963
 5951TIP3    H239269   4.642   3.516   0.624 -1.5915  0.8615 -0.4937
 5952TIP3   OH239270   1.148   3.975  15.148 -0.0572 -0.2548 -0.0832
 5952TIP3    H139271   1.081   4.036  15.119  0.0831  1.6905  3.1462
 5952TIP3    H239272   1.100   3.899  15.181 -0.4546 -0.2680 -0.6833
 5953TIP3   OH239273   0.735   0.250   0.999  0.0806  0.0359 -0.1774
 5953TIP3    H139274   0.722   0.341   0.973  0.3700 -0.1307 -0.9156
 5953TIP3    H239275   0.826   0.231   0.976  0.5570  0.0667  1.5280
 5954TIP3   OH239276   0.799   1.093  13.649  0.5557  0.4129 -0.1140
 5954TIP3    H139277   0.800   1.075  13.743  0.6811  2.9545  0.4419
 5954TIP3    H239278   0.879   1.052  13.616  0.7415 -0.1190  0.9607
 5955TIP3   OH239279   6.349   4.363  16.396 -0.1547  0.4816  0.4736
 5955TIP3    H139280   6.288   4.294  16.423  0.4261 -0.2572 -0.0608
 5955TIP3    H239281   6.423   4.354  16.456 -0.2121  0.8481  0.6006
 5956TIP3   OH239282   4.777   5.541   1.288  0.6788  0.2686  0.1005
 5956TIP3    H139283   4.797   5.457   1.248  0.9545  0.7663 -0.8226
 5956TIP3    H239284   4.709   5.579   1.232  0.9728  0.9125  0.1731
 5957TIP3   OH239285   6.329   6.247   4.562  0.1584 -0.2501 -0.0802
 5957TIP3    H139286   6.422   6.260   4.582  0.2357 -0.1744 -0.4887
 5957TIP3    H239287   6.317   6.284   4.475 -0.5065  0.7847  0.4310
 5958TIP3   OH239288   3.046   5.281   1.105  0.3878  0.2045  0.1003
 5958TIP3    H139289   3.113   5.345   1.127 -1.3969  1.3757  2.5668
 5958TIP3    H239290   3.071   5.202   1.152  0.6575  0.2544  0.0392
 5959TIP3   OH239291   1.634   1.257  15.021 -1.0847 -0.6160  0.3702
 5959TIP3    H139292   1.610   1.168  14.998  0.0446 -1.1061  0.9947
 5959TIP3    H239293   1.709   1.247  15.080  0.1861  0.7783 -0.9012
 5960TIP3   OH239294   4.930   1.652   3.670 -0.3743 -0.3418 -0.3559
 5960TIP3    H139295   4.952   1.671   3.579 -1.2124 -0.7148 -0.6467
 5960TIP3    H239296   5.011   1.621   3.708 -0.1898 -0.8888 -1.1755
 5961TIP3   OH239297   4.023   4.532   1.861  0.0744 -0.1989  0.2686
 5961TIP3    H139298   4.021   4.508   1.768 -0.6403 -1.2913  0.5470
 5961TIP3    H239299   4.053   4.623   1.861  0.7406 -0.3880 -0.9840
 5962TIP3   OH239300   1.589   2.274  16.917  0.5769  0.1520 -0.2383
 5962TIP3    H139301   1.617   2.194  16.960  1.6139 -0.5920 -2.1787
 5962TIP3    H239302   1.586   2.339  16.987 -1.0739 -1.7079  1.5447
 5963TIP3   OH239303   3.534   4.040   2.044 -0.1395  0.6742 -0.9366
 5963TIP3    H139304   3.482   4.093   2.105 -1.5039 -0.7072 -0.8265
 5963TIP3    H239305   3.489   3.955   2.043  1.8317 -0.4070 -1.2808
 5964TIP3   OH239306   4.028   0.014  16.558  0.0811  0.5419 -0.1758
 5964TIP3    H139307   3.990   0.075  16.621  1.5265  2.5735 -1.1321
 5964TIP3    H239308   4.119   0.005  16.586  0.3118  0.1521 -1.0229
 5965TIP3   OH239309   5.395   1.149  11.687  0.6135  0.3528  0.3001
 5965TIP3    H139310   5.309   1.118  11.658  1.0324 -2.6310  1.8502
 5965TIP3    H239311   5.442   1.170  11.605 -0.7613 -0.3480 -0.7081
 5966TIP3   OH239312   1.330   0.009   4.576 -0.2152  0.2555  0.4048
 5966TIP3    H139313   1.266  -0.012   4.644 -0.2759  0.0769  0.2945
 5966TIP3    H239314   1.376   0.086   4.608 -2.6839  2.4444 -0.9446
 5967TIP3   OH239315   0.972   1.838   4.474  0.8900 -0.0944  0.0568
 5967TIP3    H139316   0.942   1.852   4.563 -0.9301 -2.6465 -0.0620
 5967TIP3    H239317   1.027   1.914   4.455 -0.8626  1.8977  2.3595
 5968TIP3   OH239318   0.506   3.833  16.497  0.1923 -0.5826 -0.1241
 5968TIP3    H139319   0.524   3.830  16.590 -1.8819  0.1557  0.3531
 5968TIP3    H239320   0.537   3.749  16.463 -0.4047 -1.4843  1.4855
 5969TIP3   OH239321   0.066   3.973  13.546  0.0951  0.0019  0.2041
 5969TIP3    H139322   0.038   3.906  13.607 -0.0679  0.3067  0.4672
 5969TIP3    H239323  -0.008   4.034  13.541  0.3052  0.2523  0.1042
 5970TIP3   OH239324   4.399   0.848   1.764 -0.4268  0.0693  0.9134
 5970TIP3    H139325   4.356   0.801   1.835  0.5926  2.1545  3.0699
 5970TIP3    H239326   4.492   0.829   1.776 -0.2918 -0.2088 -0.4211
 5971TIP3   OH239327   2.379   0.445  11.744  0.4371  0.3834  0.3818
 5971TIP3    H139328   2.299   0.452  11.691  1.0652 -0.8026 -0.8060
 5971TIP3    H239329   2.349   0.404  11.825 -0.1499 -0.3626 -0.1792
 5972TIP3   OH239330   2.013   2.214  13.231 -0.0423 -0.4986 -0.3086
 5972TIP3    H139331   1.985   2.122  13.228  0.2049 -0.5557 -2.3906
 5972TIP3    H239332   1.987   2.250  13.146 -0.0338  1.3481  0.4291
 5973TIP3   OH239333   2.805   0.983   3.085  0.1890 -0.2875  0.3209
 5973TIP3    H139334   2.899   0.964   3.078  0.2558 -0.4813  1.5797
 5973TIP3    H239335   2.783   0.964   3.176 -0.9629  0.2777  0.1788
 5974TIP3   OH239336   0.908   3.396   4.389 -0.0845 -0.0681 -0.0434
 5974TIP3    H139337   0.839   3.462   4.380  1.6996  1.7823 -0.7704
 5974TIP3    H239338   0.861   3.317   4.415 -2.7128  0.6413 -2.1529
 5975TIP3   OH239339   0.807   3.781   3.891 -0.5885  0.0808 -1.0552
 5975TIP3    H139340   0.863   3.749   3.962 -1.4408  1.1446  0.1589
 5975TIP3    H239341   0.838   3.736   3.813  0.4493 -1.0656 -0.0201
 5976TIP3   OH239342   2.234   2.563   0.392  0.1362 -0.3814  0.2574
 5976TIP3    H139343   2.237   2.495   0.460  0.2999 -0.7732 -0.1389
 5976TIP3    H239344   2.170   2.531   0.329 -0.0005 -0.0264  0.2141
 5977TIP3   OH239345   3.685   5.845   4.159  0.7726 -0.6866  0.3091
 5977TIP3    H139346   3.706   5.819   4.249 -0.4814  0.0067  0.8343
 5977TIP3    H239347   3.704   5.939   4.156 -0.7435 -0.3566  0.3693
 5978TIP3   OH239348   3.708   2.141  12.132 -0.1511  0.1224 -0.4122
 5978TIP3    H139349   3.771   2.076  12.162  1.0706  1.2058 -0.5317
 5978TIP3    H239350   3.744   2.174  12.050 -1.3502  0.1295 -0.9533
 5979TIP3   OH239351   2.894   3.698   3.711 -0.2878  0.0469  0.0976
 5979TIP3    H139352   2.894   3.787   3.676  0.2014 -0.2544 -0.6868
 5979TIP3    H239353   2.987   3.678   3.725 -0.3787 -0.4420  0.0187
 5980TIP3   OH239354   0.953   0.308  14.621  0.0305  0.5323 -0.3477
 5980TIP3    H139355   1.042   0.304  14.584  0.5813 -0.3809  1.0086
 5980TIP3    H239356   0.951   0.390  14.670  1.0459 -0.5936  1.7267
 5981TIP3   OH239357   3.979   0.453   1.672  0.5301  0.0327  0.2536
 5981TIP3    H139358   3.909   0.441   1.609  0.0883  0.8316  0.5884
 5981TIP3    H239359   3.982   0.370   1.720 -1.0641  0.4401  1.1107
 5982TIP3   OH239360   5.680   2.442   4.504 -0.4403  0.6286  0.1136
 5982TIP3    H139361   5.755   2.476   4.456  1.4532 -2.0636  0.9670
 5982TIP3    H239362   5.706   2.446   4.596 -1.2283 -0.5634  0.4219
 5983TIP3   OH239363   4.842   1.719   2.149  0.5070  0.3666  0.4453
 5983TIP3    H139364   4.824   1.799   2.099  1.7918  0.0183 -0.6393
 5983TIP3    H239365   4.877   1.658   2.084 -0.5005 -1.1139  1.2339
 5984TIP3   OH239366   0.929   0.773  17.057 -0.5979  0.2012 -0.8220
 5984TIP3    H139367   0.906   0.724  17.136 -0.2822  1.0458 -0.2030
 5984TIP3    H239368   0.996   0.719  17.015  1.0480  0.9191  0.7618
 5985TIP3   OH239369   2.319   1.177  12.056  0.1312 -0.4542 -0.1919
 5985TIP3    H139370   2.409   1.205  12.042 -0.3452  0.6998 -1.0818
 5985TIP3    H239371   2.269   1.223  11.990 -1.0103 -1.7486 -0.2768
 5986TIP3   OH239372   4.486   4.056  15.669 -0.3496 -0.1907  1.0070
 5986TIP3    H139373   4.466   4.029  15.759 -1.2993  0.2732  0.9460
 5986TIP3    H239374   4.441   3.992  15.615  0.8216 -0.9010  0.8434
 5987TIP3   OH239375   0.391   2.482  15.700 -0.2503  0.0592  0.1069
 5987TIP3    H139376   0.437   2.474  15.783  0.1689 -3.2571 -0.3240
 5987TIP3    H239377   0.298   2.475  15.723 -0.0749 -2.7862  0.2331
 5988TIP3   OH239378   4.199   6.547  10.783  0.2903 -0.8099  0.3251
 5988TIP3    H139379   4.123   6.582  10.828 -0.2698  0.5016 -1.5210
 5988TIP3    H239380   4.173   6.458  10.757  0.5381 -1.4901  2.2537
 5989TIP3   OH239381   2.774   1.577   3.841 -0.6931  0.2313  0.0723
 5989TIP3    H139382   2.834   1.591   3.768  0.0385  0.7602  0.7552
 5989TIP3    H239383   2.831   1.561   3.917 -1.3418  1.9568  0.9889
 5990TIP3   OH239384   0.014   0.220  13.787  0.7862  0.2594  0.2243
 5990TIP3    H139385  -0.045   0.265  13.847  0.1744 -0.1929 -0.0293
 5990TIP3    H239386   0.086   0.281  13.775 -0.9349  2.0593 -1.6558
 5991TIP3   OH239387   3.184   6.282   4.422  0.4133  0.3731 -0.3955
 5991TIP3    H139388   3.199   6.188   4.410  2.7951  0.5806  0.4480
 5991TIP3    H239389   3.120   6.286   4.493 -0.2471 -0.5794 -0.8953
 5992TIP3   OH239390   2.111   1.680  16.922  0.5046  0.8182 -0.1582
 5992TIP3    H139391   2.055   1.662  16.846 -0.6474  0.0970  0.8399
 5992TIP3    H239392   2.087   1.769  16.949  0.8408  1.0352 -0.5398
 5993TIP3   OH239393   4.900   0.657   2.895  0.0507 -0.1519 -0.1470
 5993TIP3    H139394   4.835   0.603   2.940 -0.9650  1.5876  0.5797
 5993TIP3    H239395   4.980   0.646   2.946 -0.6239  0.3857  1.0806
 5994TIP3   OH239396   2.692   4.820  13.043 -0.9135  0.4597  0.2553
 5994TIP3    H139397   2.695   4.761  12.968  0.0477 -0.9238  1.3493
 5994TIP3    H239398   2.598   4.829  13.062 -1.0919 -0.4830 -0.1126
 5995TIP3   OH239399   6.618   1.725   0.242  0.0686  0.5645 -0.0430
 5995TIP3    H139400   6.617   1.664   0.316  0.6703 -0.6009 -0.9851
 5995TIP3    H239401   6.544   1.699   0.188  1.1764 -0.2935 -1.1963
 5996TIP3   OH239402   2.508   3.161  15.138 -0.7184  0.2743 -0.0862
 5996TIP3    H139403   2.495   3.068  15.121  1.0504  0.1029 -0.6574
 5996TIP3    H239404   2.515   3.201  15.052 -0.0387  0.6954  0.1530
 5997TIP3   OH239405   4.175   4.717  12.245  0.4119 -0.0204 -0.1042
 5997TIP3    H139406   4.191   4.717  12.339  0.6641  0.6445 -0.1390
 5997TIP3    H239407   4.161   4.625  12.223 -0.7062 -0.0717  0.7468
 5998TIP3   OH239408   0.250   2.081  12.009 -0.3824 -0.3546 -0.4952
 5998TIP3    H139409   0.179   2.021  12.031 -0.9649  1.1621  2.2024
 5998TIP3    H239410   0.208   2.166  12.001  0.8737  0.2481 -1.0472
 5999TIP3   OH239411   6.175   4.929   5.603 -0.2956  0.2481  0.9106
 5999TIP3    H139412   6.130   4.847   5.581 -0.9262  0.5962  0.9057
 5999TIP3    H239413   6.244   4.937   5.537 -0.0526 -0.4140  1.0713
 6000TIP3   OH239414   0.836   4.045   4.462  0.5714  0.0819  0.4725
 6000TIP3    H139415   0.931   4.048   4.458  0.5351  0.7465 -0.0129
 6000TIP3    H239416   0.817   3.971   4.520  1.3813  0.4440  1.2211
 6001TIP3   OH239417   2.579   1.818  12.248  0.1722 -0.2985  0.3371
 6001TIP3    H139418   2.620   1.895  12.210  0.4036  0.0318  1.2358
 6001TIP3    H239419   2.598   1.824  12.341  0.5690 -1.6717  0.3674
 6002TIP3   OH239420   3.315   3.459  12.008 -0.4607  0.5108  0.2316
 6002TIP3    H139421   3.272   3.492  12.086 -1.0067 -1.3616  0.7702
 6002TIP3    H239422   3.246   3.457  11.941 -0.2990  0.9290  0.0466
 6003TIP3   OH239423   3.418   0.930   2.775 -0.3446 -0.1878  0.4197
 6003TIP3    H139424   3.420   1.005   2.716  0.6692 -0.9627 -0.5625
 6003TIP3    H239425   3.497   0.881   2.754  1.6108  0.9143  4.2766
 6004TIP3   OH239426   0.496   4.216   2.573 -0.0359  0.7322  0.0690
 6004TIP3    H139427   0.587   4.216   2.603  0.0423  0.0469 -0.1521
 6004TIP3    H239428   0.454   4.285   2.624  0.0133 -0.5906  2.0370
 6005TIP3   OH239429   5.128   3.193   4.286 -0.0557  0.4407 -0.4163
 6005TIP3    H139430   5.193   3.210   4.217  0.4486 -0.1862 -0.1049
 6005TIP3    H239431   5.104   3.280   4.318  0.8697  0.6788 -0.3207
 6006TIP3   OH239432   1.844   0.449  11.673 -0.0662  0.4186 -0.9809
 6006TIP3    H139433   1.879   0.360  11.676  1.6317  1.0496  2.3489
 6006TIP3    H239434   1.759   0.443  11.717 -0.0848  0.4116 -1.0178
 6007TIP3   OH239435   0.959   3.847   6.464 -0.1343 -0.1387 -0.2416
 6007TIP3    H139436   1.048   3.849   6.499  0.8060  0.0332 -2.4619
 6007TIP3    H239437   0.915   3.921   6.506  1.0178  0.2752  0.2729
 6008TIP3   OH239438   2.029   4.185  13.408  0.1412  0.0707  0.3517
 6008TIP3    H139439   2.031   4.097  13.445 -4.7678 -0.2341  0.4635
 6008TIP3    H239440   2.024   4.243  13.484  0.3460  0.2244  0.2499
 6009TIP3   OH239441   1.356   5.786  13.136 -0.4866 -0.4120 -0.4630
 6009TIP3    H139442   1.382   5.714  13.193 -0.8760  0.5359  0.9823
 6009TIP3    H239443   1.435   5.840  13.128 -0.9344  0.5265  0.9165
 6010TIP3   OH239444   0.838   2.833   5.711 -0.1293 -0.0881  1.0463
 6010TIP3    H139445   0.766   2.867   5.766 -0.2108  0.0430  0.8580
 6010TIP3    H239446   0.826   2.738   5.712 -0.2214 -0.0755  1.1320
 6011TIP3   OH239447   4.129   0.739   2.367  0.7037  0.1985  0.2956
 6011TIP3    H139448   4.129   0.750   2.462  0.9399  1.2115  0.1956
 6011TIP3    H239449   4.221   0.728   2.344  0.8199  1.5234  0.0433
 6012TIP3   OH239450   1.178   2.431  10.950 -0.3062 -0.1425  0.7360
 6012TIP3    H139451   1.180   2.499  10.882 -0.6816 -0.4821  0.3829
 6012TIP3    H239452   1.270   2.419  10.974 -0.1791  0.0244  0.3367
 6013TIP3   OH239453   0.442   1.620  11.643 -0.5389  0.5682  0.0677
 6013TIP3    H139454   0.519   1.575  11.677 -1.3303 -0.2604  0.8160
 6013TIP3    H239455   0.445   1.604  11.549 -1.3808 -2.1201  0.3924
 6014TIP3   OH239456   6.546   3.990  13.787 -0.5628 -0.1458  0.3706
 6014TIP3    H139457   6.507   4.029  13.709  1.0192 -0.8978 -0.8479
 6014TIP3    H239458   6.472   3.975  13.846 -1.8919 -0.1963 -1.2399
 6015TIP3   OH239459   1.035   4.302  11.371  0.5525  0.7459 -0.1487
 6015TIP3    H139460   0.960   4.264  11.417  0.8492  0.1914 -0.1133
 6015TIP3    H239461   1.105   4.302  11.435  0.5653  1.3285 -0.1628
 6016TIP3   OH239462   4.751   1.554  13.609 -0.2412  0.0360  0.1992
 6016TIP3    H139463   4.705   1.615  13.551 -1.2071 -0.0672  0.8347
 6016TIP3    H239464   4.808   1.610  13.662 -0.0906  0.2311 -0.1598
 6017TIP3   OH239465   3.760   4.291  16.770 -0.0265  0.2234  0.3382
 6017TIP3    H139466   3.779   4.233  16.697  0.7469  0.5003  0.3096
 6017TIP3    H239467   3.825   4.268  16.837 -1.9107 -1.3744  1.7340
 6018TIP3   OH239468   3.250   1.028   5.516 -0.3074  0.2573 -0.2695
 6018TIP3    H139469   3.202   1.015   5.598  0.9197  1.5195  0.7134
 6018TIP3    H239470   3.270   1.122   5.515  0.2213  0.1474 -1.7217
 6019TIP3   OH239471   0.871   0.625  17.273  0.3208  0.2837 -0.4841
 6019TIP3    H139472   0.785   0.598  17.305  0.0446  0.0142 -1.4287
 6019TIP3    H239473   0.930   0.558  17.308  0.2509  0.7849  0.6475
 6020TIP3   OH239474   3.854   0.523  12.748 -0.1948 -0.6491 -0.0510
 6020TIP3    H139475   3.769   0.479  12.740 -0.3227 -0.3355 -0.5225
 6020TIP3    H239476   3.845   0.578  12.826 -0.8381  0.2301 -0.7079
 6021TIP3   OH239477   2.499   1.381  15.834  0.1727 -0.2897  0.2932
 6021TIP3    H139478   2.512   1.462  15.883 -1.6507  0.4056 -0.2601
 6021TIP3    H239479   2.421   1.342  15.875 -0.1601 -0.7153 -0.7248
 6022TIP3   OH239480   3.411   4.527  17.214  0.1998  0.2738 -0.2980
 6022TIP3    H139481   3.328   4.480  17.223 -0.1241  1.2187  2.5873
 6022TIP3    H239482   3.408   4.564  17.125 -2.6178  0.5027 -0.1860
 6023TIP3   OH239483   3.265   4.163   0.331 -0.3984 -0.1557  0.1064
 6023TIP3    H139484   3.356   4.137   0.345 -0.3672 -1.0703 -1.6621
 6023TIP3    H239485   3.213   4.092   0.368 -0.3973  0.0431  0.4968
 6024TIP3   OH239486   0.977   2.635   2.442 -0.1179  0.5647 -0.0669
 6024TIP3    H139487   1.037   2.690   2.492  1.9668 -2.9009  1.6490
 6024TIP3    H239488   0.934   2.581   2.508  0.2438 -1.9305 -1.7461
 6025TIP3   OH239489   4.189   2.493  12.762 -0.3227  0.1369  0.1367
 6025TIP3    H139490   4.236   2.544  12.696 -1.1722 -1.0557 -1.4646
 6025TIP3    H239491   4.188   2.549  12.839  2.8338  0.6129 -0.0375
 6026TIP3   OH239492   4.656   3.179  16.812 -0.6186  0.8029 -0.3800
 6026TIP3    H139493   4.595   3.106  16.811  0.6537 -0.3290 -2.0988
 6026TIP3    H239494   4.706   3.169  16.893  0.8258 -1.4442 -1.4498
 6027TIP3   OH239495   2.123   0.436   4.227 -0.1176 -0.4234 -0.4253
 6027TIP3    H139496   2.070   0.512   4.253 -0.3127 -0.5985 -0.3121
 6027TIP3    H239497   2.160   0.462   4.143 -0.0199 -0.1209 -0.2917
 6028TIP3   OH239498   2.130   6.517   3.413  0.5808  0.5802 -0.0084
 6028TIP3    H139499   2.075   6.452   3.370  0.3586  2.0890 -2.1457
 6028TIP3    H239500   2.079   6.544   3.490  0.1213 -0.8001  0.2125
 6029TIP3   OH239501   1.210   3.247  14.100 -0.6247 -0.1111  0.4918
 6029TIP3    H139502   1.214   3.269  14.007  1.8893  1.4405  0.8412
 6029TIP3    H239503   1.192   3.331  14.143  1.6683 -0.0618  1.5124
 6030TIP3   OH239504   6.010   3.061  16.802 -0.1525 -0.2415  0.1554
 6030TIP3    H139505   5.954   3.047  16.725 -1.4535  0.0439  1.0225
 6030TIP3    H239506   6.099   3.050  16.768 -0.7381 -1.6906 -1.0732
 6031TIP3   OH239507   2.277   4.197   2.300 -0.3614 -0.0249  0.4102
 6031TIP3    H139508   2.240   4.124   2.351  1.3844  0.6583  2.8982
 6031TIP3    H239509   2.239   4.275   2.340  0.8715  0.5233  0.5705
 6032TIP3   OH239510   3.155   2.353  14.210 -0.4649 -0.2674  0.3262
 6032TIP3    H139511   3.217   2.410  14.165  0.5825  0.4568  2.5854
 6032TIP3    H239512   3.114   2.303  14.139  2.1604 -0.2767 -1.3357
 6033TIP3   OH239513   1.303   0.554  13.029 -0.1212  0.6072  0.2211
 6033TIP3    H139514   1.296   0.481  13.090  2.2727  0.0228 -0.1167
 6033TIP3    H239515   1.250   0.623  13.069 -2.1951 -1.1417  0.7171
 6034TIP3   OH239516   2.705   0.139  12.556 -0.0996  0.2168  0.4738
 6034TIP3    H139517   2.635   0.108  12.614 -2.2138  0.6573 -1.7041
 6034TIP3    H239518   2.707   0.076  12.485  1.2430  0.6234  0.1351
 6035TIP3   OH239519   6.332   5.100  13.130 -0.3150  0.1795 -0.6367
 6035TIP3    H139520   6.239   5.104  13.107 -0.2218  1.7197 -0.8539
 6035TIP3    H239521   6.334   5.061  13.217 -0.9664 -2.1420 -1.5885
 6036TIP3   OH239522   3.143   6.337  12.880 -0.7477  0.8592 -0.1348
 6036TIP3    H139523   3.122   6.265  12.940 -1.0554  0.6010 -0.5460
 6036TIP3    H239524   3.179   6.294  12.803  0.9803  1.2753  0.4117
 6037TIP3   OH239525   4.822   4.829   4.106 -0.1299  0.2507 -0.1189
 6037TIP3    H139526   4.905   4.801   4.145 -0.8843 -0.0443  1.3666
 6037TIP3    H239527   4.786   4.751   4.066  0.0351  0.2364 -0.2386
 6038TIP3   OH239528   2.663   4.779  12.499  0.1968  0.3782  0.0026
 6038TIP3    H139529   2.736   4.770  12.438  0.9909 -0.8900  1.0668
 6038TIP3    H239530   2.608   4.848  12.462  0.7759 -0.1748 -1.9804
 6039TIP3   OH239531   3.821   5.123   3.383 -0.3060  0.3379  0.2680
 6039TIP3    H139532   3.853   5.191   3.442  0.6942  0.7488 -0.7058
 6039TIP3    H239533   3.770   5.064   3.439  1.6718 -0.0195  1.8273
 6040TIP3   OH239534   1.627   6.257  14.775  0.2592  0.2080 -0.4116
 6040TIP3    H139535   1.642   6.260  14.870  2.1332  0.3486 -0.6762
 6040TIP3    H239536   1.532   6.256  14.766  0.0200 -1.8414  1.5352
 6041TIP3   OH239537   1.198   0.687  14.716  0.0500  0.4043 -0.7438
 6041TIP3    H139538   1.131   0.754  14.730 -0.7598 -0.8286  1.8729
 6041TIP3    H239539   1.152   0.616  14.671 -0.4415 -0.3525  0.8622
 6042TIP3   OH239540   0.658   1.541   1.642 -0.6195  0.7368 -0.2673
 6042TIP3    H139541   0.702   1.620   1.610 -0.5511  0.6846 -0.3021
 6042TIP3    H239542   0.588   1.574   1.698 -0.5752  0.8225 -0.2613
 6043TIP3   OH239543   4.925   4.764   4.942  0.1584 -0.2679 -0.2571
 6043TIP3    H139544   5.007   4.720   4.920  0.3924  0.5591 -1.1264
 6043TIP3    H239545   4.949   4.856   4.954 -0.8054  0.2607 -1.9317
 6044TIP3   OH239546   3.569   5.992   4.888  0.9151  0.0378  0.6061
 6044TIP3    H139547   3.565   5.958   4.977  1.5850  0.5443  0.8416
 6044TIP3    H239548   3.536   6.082   4.895 -0.1339 -0.2960  0.1263
 6045TIP3   OH239549   3.512   1.202   3.741 -0.5146  0.3682  0.3148
 6045TIP3    H139550   3.488   1.133   3.803 -1.2254 -0.3561 -0.7194
 6045TIP3    H239551   3.549   1.154   3.666 -0.0683  1.1859  0.0036
 6046TIP3   OH239552   6.229   5.273  13.930  0.0519  0.0943 -0.1913
 6046TIP3    H139553   6.203   5.294  13.841  1.7191 -0.0905 -0.7552
 6046TIP3    H239554   6.256   5.356  13.968  1.9373 -0.2142 -0.7868
 6047TIP3   OH239555   2.856   3.238   1.082  0.0211  0.2139 -0.1040
 6047TIP3    H139556   2.881   3.330   1.091 -0.2028  0.2947 -0.2893
 6047TIP3    H239557   2.763   3.240   1.061 -0.2360 -0.0968  0.9540
 6048TIP3   OH239558   6.599   3.009  15.718 -0.1083 -0.4128 -0.4848
 6048TIP3    H139559   6.621   2.948  15.788 -1.2415  0.0380  0.3119
 6048TIP3    H239560   6.516   3.049  15.747  0.4937  1.3426 -1.0606
 6049TIP3   OH239561   2.335   5.455  13.784 -0.3315 -0.2781 -0.2974
 6049TIP3    H139562   2.305   5.473  13.695 -1.5629  0.4899  0.2500
 6049TIP3    H239563   2.396   5.526  13.804  0.8934 -1.1120 -0.9329
 6050TIP3   OH239564   3.097   5.350   3.926  0.0525  0.1298 -0.7154
 6050TIP3    H139565   3.111   5.357   3.831 -0.1893  1.0088 -0.6978
 6050TIP3    H239566   3.003   5.336   3.935 -0.1907  1.6894 -0.5595
 6051TIP3   OH239567   6.355   4.422   3.619 -0.3817 -0.4145 -0.0162
 6051TIP3    H139568   6.431   4.442   3.563  0.5173 -0.5893  1.0982
 6051TIP3    H239569   6.312   4.349   3.575 -1.3877  1.2387 -1.9928
 6052TIP3   OH239570   6.501   3.834  14.852  0.4456  1.0504 -0.5609
 6052TIP3    H139571   6.415   3.843  14.813  0.6850 -1.3210 -1.7904
 6052TIP3    H239572   6.519   3.740  14.852  2.6131  1.3784  0.6063
 6053TIP3   OH239573   6.062   3.218   5.040  0.2654 -0.4194  0.1611
 6053TIP3    H139574   5.982   3.256   5.003  1.2068  1.1661 -0.3357
 6053TIP3    H239575   6.118   3.203   4.964 -0.1543 -3.1862  0.2917
 6054TIP3   OH239576   6.479   3.064   2.052 -0.6115 -0.1862 -0.1116
 6054TIP3    H139577   6.462   3.064   2.146 -0.5003 -2.2441 -0.0422
 6054TIP3    H239578   6.565   3.105   2.043 -1.2386  1.3257  0.5161
 6055TIP3   OH239579   6.169   6.080   1.183  0.0108 -0.2868 -0.4501
 6055TIP3    H139580   6.080   6.055   1.209  0.1337 -0.6541 -0.3756
 6055TIP3    H239581   6.188   6.026   1.106 -1.5062  2.9497 -3.2981
 6056TIP3   OH239582   6.757   3.226   4.570  0.0783 -0.3888  0.6191
 6056TIP3    H139583   6.804   3.227   4.487  0.9107  0.4592  1.0816
 6056TIP3    H239584   6.801   3.158   4.622  0.0379 -0.4070  0.6295
 6057TIP3   OH239585   1.224   2.329   1.435  0.5748 -0.5560 -0.4322
 6057TIP3    H139586   1.199   2.366   1.350  3.5846 -0.8080 -1.5443
 6057TIP3    H239587   1.141   2.297   1.472 -0.8743 -0.4204 -3.2325
 6058TIP3   OH239588   5.381   0.010  16.108 -0.3217  0.8592 -0.1772
 6058TIP3    H139589   5.332  -0.034  16.040 -0.3022 -0.6832  0.7566
 6058TIP3    H239590   5.361   0.103  16.097 -1.1251  0.5315 -1.6088
 6059TIP3   OH239591   6.378   0.537  12.955  0.7446 -0.2066 -0.3852
 6059TIP3    H139592   6.382   0.608  13.018  0.1056 -0.0730 -0.4926
 6059TIP3    H239593   6.367   0.458  13.008 -0.4436 -0.0318 -0.3471
 6060TIP3   OH239594   2.754   2.353   4.382 -0.2367 -0.3274  0.5145
 6060TIP3    H139595   2.767   2.259   4.395  0.2842 -0.4210 -0.5406
 6060TIP3    H239596   2.790   2.370   4.294  0.4770  1.0126  1.0392
 6061TIP3   OH239597   3.936   5.606   4.898 -0.2056  0.1818  0.2707
 6061TIP3    H139598   3.902   5.580   4.983  0.3215 -0.1482  0.3853
 6061TIP3    H239599   3.900   5.694   4.883  0.4835  0.6504  1.2689
 6062TIP3   OH239600   6.419   5.610  11.002 -0.3081 -0.7442  0.1432
 6062TIP3    H139601   6.441   5.693  10.960 -1.8308 -0.1110  0.5570
 6062TIP3    H239602   6.467   5.613  11.085  0.7127 -0.9011 -0.4161
 6063TIP3   OH239603   4.712   0.950   0.789 -0.0427 -0.5085 -0.1178
 6063TIP3    H139604   4.666   1.018   0.838  3.0778  1.4327  0.4670
 6063TIP3    H239605   4.742   0.994   0.710 -1.2801 -2.3924 -1.7127
 6064TIP3   OH239606   5.518   6.581  11.418 -0.2677 -0.5110 -0.1586
 6064TIP3    H139607   5.505   6.527  11.496 -0.0366 -1.1957 -0.5878
 6064TIP3    H239608   5.546   6.520  11.350  1.3921  0.3439 -0.2910
 6065TIP3   OH239609   5.307   0.798  16.131  0.6676 -0.4324  0.0531
 6065TIP3    H139610   5.222   0.801  16.175  0.1570 -0.0747 -0.9199
 6065TIP3    H239611   5.360   0.863  16.177 -0.3949  1.1926 -0.9154
 6066TIP3   OH239612   0.290   1.924  13.219 -0.0400 -0.0694  0.5830
 6066TIP3    H139613   0.286   1.955  13.309 -1.7047 -0.0699  0.5238
 6066TIP3    H239614   0.206   1.948  13.180  0.4750 -0.4485 -0.8509
 6067TIP3   OH239615   1.932   5.695   0.721  0.2362 -0.3568  0.2477
 6067TIP3    H139616   1.922   5.791   0.717  2.7225  0.1115  2.3450
 6067TIP3    H239617   1.956   5.670   0.632 -1.2639  0.8258 -0.5365
 6068TIP3   OH239618   3.426   5.548   4.176 -0.6096 -0.2592  0.4891
 6068TIP3    H139619   3.464   5.485   4.114 -0.2845  0.3733  0.0337
 6068TIP3    H239620   3.342   5.572   4.137 -0.4197  0.1142  0.3032
 6069TIP3   OH239621   4.154   4.619  11.373 -0.2614 -0.2535 -0.5863
 6069TIP3    H139622   4.112   4.575  11.447 -2.7628  1.4303 -0.8787
 6069TIP3    H239623   4.234   4.657  11.409 -1.2587  0.2572  1.2103
 6070TIP3   OH239624   4.911   5.493  10.951  0.4359 -0.0459 -0.2203
 6070TIP3    H139625   4.856   5.558  10.907  0.0097  0.4807  1.0267
 6070TIP3    H239626   4.968   5.459  10.883 -1.7608 -0.9812 -1.6803
 6071TIP3   OH239627   5.352   1.559  16.810  0.4699  0.0656  0.6555
 6071TIP3    H139628   5.278   1.602  16.854 -0.5952  1.4505 -2.2637
 6071TIP3    H239629   5.316   1.477  16.776  1.3326 -1.0816  2.3788
 6072TIP3   OH239630   4.419   5.796  15.341  0.8136 -0.2776 -0.1830
 6072TIP3    H139631   4.460   5.733  15.399  1.4582  0.5674  0.3034
 6072TIP3    H239632   4.486   5.815  15.275  0.8971  0.4271  0.0908
 6073TIP3   OH239633   1.092   4.635   1.697  0.1009  0.0562  0.3377
 6073TIP3    H139634   1.143   4.568   1.743  3.9649  0.4875 -2.7197
 6073TIP3    H239635   1.091   4.710   1.756  1.8828 -0.4723  1.0951
 6074TIP3   OH239636   1.793   5.028   0.614  0.3426  0.3475 -0.4325
 6074TIP3    H139637   1.819   4.990   0.530 -0.9362  0.7686 -1.0426
 6074TIP3    H239638   1.843   5.109   0.620  0.9274 -0.0044 -0.4738
 6075TIP3   OH239639   1.140   0.566   1.378 -0.1631  0.0153  0.4315
 6075TIP3    H139640   1.206   0.562   1.309  0.8662  1.6465  1.2485
 6075TIP3    H239641   1.189   0.549   1.459 -1.2069 -1.1105  0.8721
 6076TIP3   OH239642   0.078   6.360  13.418 -0.5281 -0.2452  0.3986
 6076TIP3    H139643   0.046   6.290  13.475  1.2097 -1.7494 -0.3705
 6076TIP3    H239644   0.163   6.330  13.388  0.3506  2.2699  0.0827
 6077TIP3   OH239645   2.069   4.427  12.882 -0.0786 -1.0926 -0.1339
 6077TIP3    H139646   2.020   4.445  12.962 -0.1596 -0.8428 -0.2380
 6077TIP3    H239647   2.047   4.336  12.860 -0.5612 -0.9584 -0.2226
 6078TIP3   OH239648   5.730   5.216   2.179  0.3412  0.1193  0.1665
 6078TIP3    H139649   5.818   5.201   2.213 -0.0007 -1.6410  0.3382
 6078TIP3    H239650   5.744   5.240   2.087  1.0969  2.0998  0.7431
 6079TIP3   OH239651   3.974   2.595  12.967  0.0883 -0.4567  0.4074
 6079TIP3    H139652   3.934   2.550  12.893 -0.7640 -0.9086  1.1164
 6079TIP3    H239653   3.943   2.685  12.959 -1.6425 -0.9203  1.2732
 6080TIP3   OH239654   2.303   2.348   3.543  0.4987 -0.6296  0.3728
 6080TIP3    H139655   2.392   2.333   3.510  0.1757 -2.2395  0.1434
 6080TIP3    H239656   2.279   2.434   3.510  1.6588 -0.5329 -0.2682
 6081TIP3   OH239657   2.970   6.459  13.155  0.2702  0.2758 -0.1004
 6081TIP3    H139658   3.033   6.523  13.121  0.2251  0.0271 -0.6650
 6081TIP3    H239659   2.884   6.493  13.128  0.2917 -0.4232 -1.1113
 6082TIP3   OH239660   0.680   6.596  13.311  0.3057 -0.3880 -0.6688
 6082TIP3    H139661   0.584   6.599  13.321  0.3059  0.8411 -0.9839
 6082TIP3    H239662   0.710   6.548  13.389 -0.4734  0.2871  0.0640
 6083TIP3   OH239663   1.764   3.299  12.031 -0.7226  0.6014 -0.4326
 6083TIP3    H139664   1.770   3.208  12.059 -0.4681  0.9047  0.5644
 6083TIP3    H239665   1.762   3.349  12.113 -1.0399  1.4800 -0.9594
 6084TIP3   OH239666   2.581   6.168   3.622 -0.2299 -0.2470  0.6740
 6084TIP3    H139667   2.535   6.115   3.557 -0.2638  0.1618  0.3526
 6084TIP3    H239668   2.659   6.200   3.576 -0.4129  0.2983  0.7265
 6085TIP3   OH239669   5.371   4.217  15.490  0.3025  0.3595  0.0597
 6085TIP3    H139670   5.349   4.250  15.577 -0.4421  0.8413 -0.3038
 6085TIP3    H239671   5.433   4.281  15.455  1.5938 -0.4915  0.7059
 6086TIP3   OH239672   5.739   5.006   5.775  0.1546 -0.3257  0.3363
 6086TIP3    H139673   5.696   5.071   5.831 -0.9416 -1.7405  1.2018
 6086TIP3    H239674   5.815   4.977   5.825 -0.4285 -1.0767  0.8007
 6087TIP3   OH239675   1.954   4.054   2.764 -0.5325  0.1512 -0.3203
 6087TIP3    H139676   1.964   4.046   2.859 -1.2192  1.6911 -0.0911
 6087TIP3    H239677   1.937   3.964   2.734  0.8849 -0.5450  0.8384
 6088TIP3   OH239678   0.260   4.570  11.701 -0.3059 -0.4435  0.0036
 6088TIP3    H139679   0.280   4.481  11.730  0.4883 -0.0986  0.5230
 6088TIP3    H239680   0.254   4.621  11.782  0.5895  0.2500 -0.3573
 6089TIP3   OH239681   6.575   1.661   4.852 -0.0469  0.1193  0.8236
 6089TIP3    H139682   6.527   1.737   4.820  0.0731  1.0895  2.7516
 6089TIP3    H239683   6.509   1.606   4.893  0.1251  0.1802  1.1904
 6090TIP3   OH239684   3.197   4.242  13.760 -0.0566  0.2479  0.0205
 6090TIP3    H139685   3.134   4.234  13.831 -1.0594  0.1729 -0.8399
 6090TIP3    H239686   3.229   4.153  13.745 -0.5154  0.1160 -0.1991
 6091TIP3   OH239687   4.208   3.196   2.277 -0.5700  0.5425  0.0346
 6091TIP3    H139688   4.187   3.118   2.329 -0.8974  1.0336  0.6448
 6091TIP3    H239689   4.191   3.169   2.186 -0.8864 -0.0293  0.2586
 6092TIP3   OH239690   0.985   2.999  13.607 -0.0390  0.1343 -0.1264
 6092TIP3    H139691   1.075   2.980  13.579 -0.2243  1.2841 -1.6123
 6092TIP3    H239692   0.989   2.997  13.703  1.6917  0.6404 -0.1490
 6093TIP3   OH239693   4.950   6.695  17.040 -0.2122 -0.2776  0.2657
 6093TIP3    H139694   4.908   6.733  16.963  3.2247 -0.1382 -1.7477
 6093TIP3    H239695   4.955   6.767  17.103  0.0753  0.6445 -0.7949
 6094TIP3   OH239696   6.646   5.087  14.005 -0.0796  0.8736  0.4473
 6094TIP3    H139697   6.697   5.167  13.988  0.9118  0.3326  0.7896
 6094TIP3    H239698   6.711   5.017  14.005 -1.0504 -0.0783 -0.7851
 6095TIP3   OH239699   1.211   4.091   0.406  0.0545  0.0882 -0.0919
 6095TIP3    H139700   1.259   4.128   0.480  0.2186  0.4451 -0.3744
 6095TIP3    H239701   1.207   4.162   0.341 -2.7487  0.8472  0.7554
 6096TIP3   OH239702   0.352   5.884   2.194  0.6103  0.2841  0.0569
 6096TIP3    H139703   0.385   5.947   2.257 -1.0908 -1.4146  2.8803
 6096TIP3    H239704   0.265   5.916   2.171  0.2984 -0.2715  0.4253
 6097TIP3   OH239705   2.296   5.456   2.383 -0.5083  0.1673 -0.1219
 6097TIP3    H139706   2.386   5.483   2.403  0.0622 -1.5995 -0.1168
 6097TIP3    H239707   2.278   5.496   2.298  0.1687  0.8004  0.0192
 6098TIP3   OH239708   1.262   6.669  13.259  0.1407 -0.3660 -0.5918
 6098TIP3    H139709   1.171   6.639  13.252  0.2643 -0.7599 -0.5553
 6098TIP3    H239710   1.256   6.764  13.265 -0.4433 -0.5092  2.2771
 6099TIP3   OH239711   0.008   2.877  13.968  0.2665 -0.6484  0.2612
 6099TIP3    H139712  -0.057   2.910  14.030  0.6489  0.1152  0.2717
 6099TIP3    H239713  -0.040   2.818  13.911 -0.6537  0.6757 -0.3655
 6100TIP3   OH239714   2.284   3.846  15.284 -0.3264 -0.1564 -0.1795
 6100TIP3    H139715   2.320   3.820  15.369  2.4944 -0.9792 -1.4816
 6100TIP3    H239716   2.190   3.848  15.297 -0.2118 -3.0924  2.2299
 6101TIP3   OH239717   1.963   0.821   4.542  0.4843 -0.2942 -0.0325
 6101TIP3    H139718   1.890   0.858   4.494  0.7390  2.2778  1.3371
 6101TIP3    H239719   1.932   0.736   4.572 -2.1003  0.8029  0.7138
 6102TIP3   OH239720   2.508   1.839  11.721 -0.2186 -0.0341  0.2263
 6102TIP3    H139721   2.449   1.822  11.647  0.0731  0.5369 -0.1479
 6102TIP3    H239722   2.591   1.861  11.680  0.2664 -0.8408  0.7537
 6103TIP3   OH239723   5.902   4.912  13.727  0.4406  0.3641 -0.4272
 6103TIP3    H139724   5.926   4.969  13.654  0.0319  2.3074  0.8581
 6103TIP3    H239725   5.982   4.907  13.781  0.7286 -1.0151 -0.9427
 6104TIP3   OH239726   3.937   3.761   2.052 -0.2629  0.2899  0.2500
 6104TIP3    H139727   3.953   3.843   2.005 -0.1947  0.8794  1.2760
 6104TIP3    H239728   3.849   3.771   2.089 -1.4530 -1.2629 -1.9312
 6105TIP3   OH239729   4.229   2.743   2.096  0.5716  0.4425  0.2978
 6105TIP3    H139730   4.283   2.681   2.145  0.0663 -0.9154 -0.7888
 6105TIP3    H239731   4.144   2.741   2.141  0.6109  0.4846  0.3737
 6106TIP3   OH239732   5.470   1.064   0.425  0.3867 -0.9169  0.4094
 6106TIP3    H139733   5.505   1.045   0.512  0.4313  0.5801  0.7563
 6106TIP3    H239734   5.375   1.055   0.436  0.1380  1.8003  1.3933
 6107TIP3   OH239735   3.369   1.274   2.851 -0.5546 -0.1950 -0.1883
 6107TIP3    H139736   3.346   1.365   2.871 -0.0346 -0.0805 -0.0947
 6107TIP3    H239737   3.343   1.262   2.760 -0.2014  0.1936 -0.3454
 6108TIP3   OH239738   3.905   4.676  14.592 -0.3684 -0.0396 -0.2199
 6108TIP3    H139739   3.933   4.610  14.528  1.2289  1.8454 -1.5666
 6108TIP3    H239740   3.986   4.714  14.623 -1.2646  1.6023  0.1883
 6109TIP3   OH239741   1.149   1.235  14.307 -0.5726  0.3734 -0.0867
 6109TIP3    H139742   1.133   1.143  14.285 -0.8901  0.6014 -0.8613
 6109TIP3    H239743   1.238   1.252  14.276 -0.2612  0.1492  0.6733
 6110TIP3   OH239744   5.737   0.601  10.849  0.2317  0.0947  0.8526
 6110TIP3    H139745   5.752   0.685  10.893  1.0090  0.8247 -0.6939
 6110TIP3    H239746   5.683   0.551  10.909 -0.0582  1.6239  1.9218
 6111TIP3   OH239747   6.058   6.707  17.045  0.0174 -0.1672 -0.3669
 6111TIP3    H139748   6.106   6.653  16.983  3.1145 -0.5454  2.0542
 6111TIP3    H239749   6.084   6.797  17.024  1.3281 -0.3179  0.4708
 6112TIP3   OH239750   2.983   2.969   5.620  0.4377 -0.1527 -0.3105
 6112TIP3    H139751   2.901   2.933   5.586  0.9569 -2.0262  0.3010
 6112TIP3    H239752   3.022   2.897   5.671  2.2353  0.8330 -0.1992
 6113TIP3   OH239753   2.980   5.521   2.004 -0.0517 -0.3842  0.7057
 6113TIP3    H139754   2.900   5.471   1.986  0.5857 -0.1852 -4.0399
 6113TIP3    H239755   3.048   5.454   2.015  0.1681 -0.7375 -2.0617
 6114TIP3   OH239756   5.994   4.350  12.323  0.1571 -0.3784  0.0375
 6114TIP3    H139757   6.054   4.422  12.304 -0.7070  0.1656 -0.7058
 6114TIP3    H239758   6.018   4.282  12.260  0.2519 -0.3142  0.0047
 6115TIP3   OH239759   5.070   4.510  11.769  0.7847  0.5278 -0.7970
 6115TIP3    H139760   5.064   4.427  11.720  0.8636  1.0592 -1.7343
 6115TIP3    H239761   5.020   4.572  11.716  0.0142  0.9043  0.3282
 6116TIP3   OH239762   5.770   5.138   3.614  0.6734 -0.2331  0.0547
 6116TIP3    H139763   5.763   5.160   3.521  1.5940  0.7270  0.1911
 6116TIP3    H239764   5.765   5.043   3.617  1.1862 -0.3094 -1.0337
 6117TIP3   OH239765   6.367   6.126  12.372 -0.3098  0.2454  0.6635
 6117TIP3    H139766   6.278   6.161  12.370  0.1184  1.4849  1.7748
 6117TIP3    H239767   6.414   6.184  12.432  1.2432 -0.3992  0.1208
 6118TIP3   OH239768   6.330   0.352  13.281 -0.3406  0.2238 -0.0932
 6118TIP3    H139769   6.406   0.408  13.263  0.0541 -0.3594 -0.2981
 6118TIP3    H239770   6.334   0.338  13.376 -0.2795  0.3147 -0.0817
 6119TIP3   OH239771   5.536   4.273   3.654  0.5178  0.5116  0.4940
 6119TIP3    H139772   5.595   4.316   3.593 -0.7809  0.8247 -0.6008
 6119TIP3    H239773   5.457   4.328   3.654 -0.3851 -0.7313  0.6722
 6120TIP3   OH239774   2.789   1.182  13.698 -0.2511  0.6068 -0.4808
 6120TIP3    H139775   2.720   1.244  13.674 -1.1627  0.0782  0.7285
 6120TIP3    H239776   2.784   1.114  13.630 -0.6650  0.7714 -0.6202
 6121TIP3   OH239777   5.067   6.276  15.207  0.5322  0.1774 -0.1388
 6121TIP3    H139778   5.102   6.205  15.154  0.9119  0.4270 -0.2249
 6121TIP3    H239779   5.055   6.349  15.146 -0.8360 -0.1235 -0.2655
 6122TIP3   OH239780   6.637   3.960   2.629 -0.1378  0.3367  0.3998
 6122TIP3    H139781   6.731   3.981   2.626 -0.4058  1.6170  0.3015
 6122TIP3    H239782   6.633   3.877   2.677  1.1039 -0.1906 -0.3514
 6123TIP3   OH239783   2.764   3.206   6.543 -0.1688  0.2934  0.3265
 6123TIP3    H139784   2.858   3.219   6.531 -0.2754  1.5775  0.6750
 6123TIP3    H239785   2.729   3.295   6.553 -1.6221 -0.0676 -1.1912
 6124TIP3   OH239786   3.168   1.554  16.176  0.3111  0.0782  0.8142
 6124TIP3    H139787   3.099   1.518  16.119 -0.3154  3.4673 -0.7958
 6124TIP3    H239788   3.120   1.595  16.248  0.9922 -1.6608  2.3468
 6125TIP3   OH239789   1.618   3.480   5.448 -0.0567 -0.0590  0.2977
 6125TIP3    H139790   1.609   3.529   5.366  0.1677  3.1281  2.0026
 6125TIP3    H239791   1.711   3.457   5.451  0.0834  0.4425 -0.0292
 6126TIP3   OH239792   6.276   6.615   1.538  0.5473  0.6238  0.3298
 6126TIP3    H139793   6.366   6.588   1.556  0.7045  0.5554 -0.5569
 6126TIP3    H239794   6.275   6.641   1.446 -0.2889  0.8418  0.3842
 6127TIP3   OH239795   4.779   3.963  12.436  0.1878 -0.0818  0.4159
 6127TIP3    H139796   4.796   4.008  12.518  1.3213  0.9904 -0.3901
 6127TIP3    H239797   4.839   3.888  12.436 -0.0131 -0.2472  0.6693
 6128TIP3   OH239798   0.691   2.344  16.909 -0.2190  0.4649  0.3295
 6128TIP3    H139799   0.776   2.300  16.904  0.4448  1.4115  2.2214
 6128TIP3    H239800   0.712   2.438  16.907 -1.4097  0.7455 -1.1277
 6129TIP3   OH239801   1.530   6.004  11.132  0.2169  0.1060  0.4421
 6129TIP3    H139802   1.573   6.083  11.165 -0.9080  0.0574  2.1560
 6129TIP3    H239803   1.582   5.978  11.056  3.3505 -0.0595  2.4563
 6130TIP3   OH239804   3.767   0.705   2.345 -0.0126  0.7650  0.2328
 6130TIP3    H139805   3.820   0.735   2.272  0.8472  0.1271  0.5709
 6130TIP3    H239806   3.738   0.617   2.319  0.0007  0.6795  0.5043
 6131TIP3   OH239807   4.490   2.483  10.692 -0.2943  0.1831  0.0721
 6131TIP3    H139808   4.574   2.504  10.734 -0.5409  1.6198 -0.1018
 6131TIP3    H239809   4.512   2.415  10.628  0.3787 -0.8251  1.3212
 6132TIP3   OH239810   3.332   0.742  15.547 -0.0150  0.0416  0.0373
 6132TIP3    H139811   3.275   0.794  15.490 -0.7361  0.1869  0.8684
 6132TIP3    H239812   3.274   0.675  15.584  0.4434 -0.0606  0.5804
 6133TIP3   OH239813   3.767   0.039  13.629  0.2478  0.2659 -0.7467
 6133TIP3    H139814   3.695   0.100  13.645 -0.5114 -0.3085 -1.8204
 6133TIP3    H239815   3.845   0.086  13.658 -0.7005  0.1957  2.2679
 6134TIP3   OH239816   2.207   1.864  15.968 -0.5002  0.0143  0.0160
 6134TIP3    H139817   2.218   1.819  16.052 -2.3071 -1.6140 -0.5381
 6134TIP3    H239818   2.119   1.903  15.973  0.4643  2.4146 -0.0791
 6135TIP3   OH239819   0.388   0.963  14.447 -0.1217 -0.2073  0.2966
 6135TIP3    H139820   0.447   0.932  14.515  1.6086  2.5566  0.2132
 6135TIP3    H239821   0.365   1.052  14.474 -2.7802 -0.4944 -0.6680
 6136TIP3   OH239822   3.416   4.355  16.368 -0.0401 -0.7195  0.3948
 6136TIP3    H139823   3.333   4.380  16.409 -0.6622 -0.7661 -0.8112
 6136TIP3    H239824   3.478   4.353  16.441 -0.5894  1.5132  1.0023
 6137TIP3   OH239825   2.141   3.910  15.898 -0.1806 -0.2631  0.5143
 6137TIP3    H139826   2.122   3.824  15.936 -1.2293  0.2490  1.1679
 6137TIP3    H239827   2.237   3.912  15.892 -0.1572 -2.5459 -2.0684
 6138TIP3   OH239828   6.282   2.521  14.131  0.3653 -0.1656 -0.3326
 6138TIP3    H139829   6.301   2.579  14.058  1.4673  0.7240  0.6085
 6138TIP3    H239830   6.358   2.463  14.136 -0.7234 -1.7350 -1.2579
 6139TIP3   OH239831   4.628   1.200  16.179  0.1578  0.1421 -0.5469
 6139TIP3    H139832   4.614   1.146  16.101 -0.4784 -4.6202  2.4656
 6139TIP3    H239833   4.540   1.214  16.214  0.5506  0.6888  0.2582
 6140TIP3   OH239834   3.905   4.851   4.148 -0.7182 -0.1615 -0.0052
 6140TIP3    H139835   3.862   4.771   4.119 -0.7679 -0.6731  1.4109
 6140TIP3    H239836   3.835   4.904   4.187 -0.2258 -0.6791  1.6382
 6141TIP3   OH239837   4.257   3.528   2.072 -0.0674  0.3769  0.2704
 6141TIP3    H139838   4.256   3.537   2.167 -0.1465  0.6394  0.2468
 6141TIP3    H239839   4.250   3.618   2.040 -3.7033  0.1258 -0.0049
 6142TIP3   OH239840   1.739   2.093  15.777  0.3789  0.1212  0.5661
 6142TIP3    H139841   1.795   2.049  15.712  0.9957 -1.0983  1.8650
 6142TIP3    H239842   1.670   2.029  15.795 -0.5923  1.0127  0.1046
 6143TIP3   OH239843   5.381   4.658   6.148 -0.5273 -0.3656  0.3600
 6143TIP3    H139844   5.355   4.592   6.213 -0.6879 -2.2512 -1.4858
 6143TIP3    H239845   5.300   4.679   6.102 -0.4134  0.9468  0.7233
 6144TIP3   OH239846   3.864   4.596   0.306  0.3207 -0.6026  0.1348
 6144TIP3    H139847   3.950   4.557   0.323  0.1782 -1.6953 -1.4520
 6144TIP3    H239848   3.802   4.534   0.343  0.1567  1.2888  3.4214
 6145TIP3   OH239849   2.610   3.767   4.393 -0.1521  0.5658 -0.4632
 6145TIP3    H139850   2.655   3.788   4.312 -0.1873 -0.2219 -0.6984
 6145TIP3    H239851   2.528   3.816   4.388  0.2709  1.2826 -0.4510
 6146TIP3   OH239852   1.952   4.648  12.322 -1.0078 -0.3373 -0.3662
 6146TIP3    H139853   1.925   4.699  12.398  0.8500 -1.4861  1.1531
 6146TIP3    H239854   1.906   4.688  12.248 -0.4766  2.8260  0.8813
 6147TIP3   OH239855   1.364   5.061   4.929 -0.1016 -0.0195  0.2660
 6147TIP3    H139856   1.434   5.126   4.920  0.8960 -0.7754  1.9968
 6147TIP3    H239857   1.283   5.110   4.917  0.6367  1.4979  1.2321
 6148TIP3   OH239858   4.188   5.259  12.108  0.7706 -0.2060  0.1791
 6148TIP3    H139859   4.282   5.270  12.124  0.8274 -0.5118  0.0721
 6148TIP3    H239860   4.180   5.169  12.077  0.8062  0.6348 -2.5244
 6149TIP3   OH239861   2.825   5.634   5.764  0.0917 -0.1195 -0.1956
 6149TIP3    H139862   2.833   5.695   5.837  0.3022 -2.4810  1.8840
 6149TIP3    H239863   2.915   5.619   5.735  0.0600  0.3246 -0.5389
 6150TIP3   OH239864   0.720   5.916  14.905 -0.1156  0.3665 -0.3169
 6150TIP3    H139865   0.745   5.850  14.841  1.2417  2.0431 -1.5891
 6150TIP3    H239866   0.657   5.972  14.860 -0.5072  0.5269  0.4051
 6151TIP3   OH239867   1.121   3.997   1.459 -0.1693  0.0075  0.1994
 6151TIP3    H139868   1.073   4.072   1.496  1.5289  0.4490  1.6631
 6151TIP3    H239869   1.153   4.029   1.375 -0.5267  0.5028  0.2429
 6152TIP3   OH239870   2.565   1.935   1.584 -0.1148 -0.1389  0.1509
 6152TIP3    H139871   2.532   1.884   1.657 -1.0245 -0.8404 -0.7310
 6152TIP3    H239872   2.520   2.019   1.590 -2.2809 -1.1302 -1.1233
 6153TIP3   OH239873   3.608   2.508  15.098  0.0621  0.2022  0.2779
 6153TIP3    H139874   3.589   2.585  15.151 -1.1960  0.0025  0.1586
 6153TIP3    H239875   3.535   2.505  15.035  0.3090 -0.8598  0.0331
 6154TIP3   OH239876   0.747   2.434  11.987 -0.0531  0.4329 -0.1352
 6154TIP3    H139877   0.659   2.468  11.969  0.2583  0.3133 -2.0634
 6154TIP3    H239878   0.806   2.507  11.965  0.3438  0.6344  1.4786
 6155TIP3   OH239879   3.551   3.738  12.621 -0.3398 -0.3105  0.1502
 6155TIP3    H139880   3.514   3.682  12.553  0.3604  1.5333 -1.8484
 6155TIP3    H239881   3.612   3.680  12.668 -0.6977 -1.5907 -0.8820
 6156TIP3   OH239882   5.231   5.155   6.103 -0.1379  0.0644  0.4870
 6156TIP3    H139883   5.171   5.203   6.161 -2.5870 -1.7916 -0.3523
 6156TIP3    H239884   5.228   5.065   6.134  0.6068 -0.4590 -0.8679
 6157TIP3   OH239885   2.124   1.829   0.756 -0.3560 -0.0841  0.3990
 6157TIP3    H139886   2.185   1.787   0.816 -1.0135 -2.7524 -0.6665
 6157TIP3    H239887   2.179   1.879   0.696  0.8473 -2.2253 -0.3910
 6158TIP3   OH239888   6.309   4.152  14.631  0.2556 -0.3545 -0.5391
 6158TIP3    H139889   6.333   4.144  14.539  0.6344 -2.2507 -0.3098
 6158TIP3    H239890   6.393   4.156  14.678  0.0677  0.9401 -0.2756
 6159TIP3   OH239891   2.268   4.333   0.693 -0.0626  0.2903  0.0590
 6159TIP3    H139892   2.218   4.258   0.723 -1.2303  1.0138 -0.0208
 6159TIP3    H239893   2.260   4.331   0.598  0.6263  0.0401 -0.0018
 6160TIP3   OH239894   4.524   0.888  14.983 -0.0262  0.7116 -0.2718
 6160TIP3    H139895   4.442   0.841  14.996  0.3591 -0.2391 -1.1812
 6160TIP3    H239896   4.570   0.839  14.915  0.5878  2.1586 -0.9405
 6161TIP3   OH239897   5.951   1.908   0.504 -0.5476 -0.2138  0.5611
 6161TIP3    H139898   5.932   1.858   0.424 -1.4875  0.7359  0.1714
 6161TIP3    H239899   6.046   1.897   0.517  0.3535  2.2691 -2.5893
 6162TIP3   OH239900   2.318   3.218  11.328 -0.1811  0.0094  0.0273
 6162TIP3    H139901   2.232   3.260  11.328 -0.9535 -1.5272  0.1550
 6162TIP3    H239902   2.323   3.175  11.242 -0.1483 -1.0786  0.5577
 6163TIP3   OH239903   5.672   2.001   0.943  0.5093  0.1472  0.3473
 6163TIP3    H139904   5.735   2.005   1.015  0.1020  0.0317  0.7194
 6163TIP3    H239905   5.628   2.086   0.945  1.0699  0.4574 -0.3007
 6164TIP3   OH239906   0.122   1.287   5.151 -0.3013  0.6225  0.8101
 6164TIP3    H139907   0.069   1.313   5.228 -2.2116 -1.4879  0.3233
 6164TIP3    H239908   0.142   1.369   5.107 -0.8898  1.7224  2.4895
 6165TIP3   OH239909   0.941   2.219  15.966 -0.2141  0.5360  0.0782
 6165TIP3    H139910   0.984   2.302  15.945  0.8902  0.0069  0.1805
 6165TIP3    H239911   0.854   2.227  15.927 -0.2908  1.9082  0.4640
 6166TIP3   OH239912   4.272   4.993  16.930  0.0917  0.1431  0.1507
 6166TIP3    H139913   4.298   4.947  16.851 -1.8627  2.3468 -1.9199
 6166TIP3    H239914   4.342   4.974  16.993  3.5364  0.8913 -3.0600
 6167TIP3   OH239915   5.899   6.657   2.375  0.3349  0.0310 -0.5191
 6167TIP3    H139916   5.993   6.643   2.362  0.3471  0.2991 -0.7445
 6167TIP3    H239917   5.892   6.683   2.467  0.0629 -3.4616  0.5687
 6168TIP3   OH239918   5.982   5.069   2.317  0.1959  0.3589  0.1861
 6168TIP3    H139919   5.930   4.989   2.325  0.0962  0.5076  1.2290
 6168TIP3    H239920   6.035   5.056   2.238  0.2220 -0.7570  0.3701
 6169TIP3   OH239921   3.153   0.625  13.592  0.4840 -0.2071 -0.4356
 6169TIP3    H139922   3.093   0.684  13.546 -0.5312 -2.7276 -2.6154
 6169TIP3    H239923   3.099   0.550  13.618  2.1958 -1.4686 -0.3222
 6170TIP3   OH239924   5.306   6.608  10.979  0.4461 -0.8180 -0.1099
 6170TIP3    H139925   5.312   6.703  10.975 -0.6765 -0.7087  0.5199
 6170TIP3    H239926   5.215   6.590  11.001  0.5353 -2.0597 -0.6592
 6171TIP3   OH239927   0.507   3.810  14.485  0.0597  0.3623  0.3059
 6171TIP3    H139928   0.413   3.821  14.467  0.1613 -0.7980 -1.1029
 6171TIP3    H239929   0.546   3.895  14.463 -0.3918  0.2069 -1.1858
 6172TIP3   OH239930   0.426   2.874  13.639 -0.0689  0.1301 -0.2992
 6172TIP3    H139931   0.495   2.937  13.619  0.8410 -0.4575  0.8422
 6172TIP3    H239932   0.429   2.811  13.567 -0.0898  0.6504 -0.7584
 6173TIP3   OH239933   1.708   0.319  15.581  0.4412 -0.0352 -0.0345
 6173TIP3    H139934   1.738   0.243  15.530 -0.0396 -0.1703 -0.1213
 6173TIP3    H239935   1.614   0.308  15.587  0.3130  0.7635 -0.3851
 6174TIP3   OH239936   3.016   0.733   3.913  0.6823  0.4974  0.2156
 6174TIP3    H139937   2.945   0.777   3.961  0.9629  1.7317 -0.4475
 6174TIP3    H239938   3.085   0.722   3.978  0.3117  0.3350  0.5855
 6175TIP3   OH239939   1.887   3.246   2.335 -0.6354 -0.4882  0.3514
 6175TIP3    H139940   1.965   3.205   2.297 -0.1246  0.6926  0.0961
 6175TIP3    H239941   1.910   3.260   2.427 -0.9014 -0.9859  0.4961
 6176TIP3   OH239942   1.524   5.751  11.555  0.1868  0.6735  0.4090
 6176TIP3    H139943   1.527   5.755  11.651  0.3876 -1.0410  0.5035
 6176TIP3    H239944   1.601   5.801  11.527  0.0357  1.3295  1.1380
 6177TIP3   OH239945   3.693   1.184  13.928 -0.2021  0.6981 -0.0281
 6177TIP3    H139946   3.668   1.202  13.837 -0.4638  1.1656  0.1304
 6177TIP3    H239947   3.788   1.193  13.929 -0.2179  0.8980 -0.2135
 6178TIP3   OH239948   3.764   3.772  14.249 -0.5740 -0.7899  0.3555
 6178TIP3    H139949   3.809   3.706  14.196  0.6854  1.3133 -1.3554
 6178TIP3    H239950   3.679   3.784  14.206 -0.6354 -0.9750  0.4225
 6179TIP3   OH239951   4.881   5.255  14.539 -0.4407  0.2003  0.3580
 6179TIP3    H139952   4.923   5.229  14.620 -0.4636  0.6739  0.5287
 6179TIP3    H239953   4.894   5.350  14.535  1.2653 -0.0315 -1.1559
 6180TIP3   OH239954   2.169   1.061  15.161  0.6277 -0.1642  0.1692
 6180TIP3    H139955   2.076   1.064  15.138  0.4219  0.1809  1.0247
 6180TIP3    H239956   2.198   0.974  15.133  0.2725  0.0586 -0.9315
 6181TIP3   OH239957   4.472   5.866   2.569 -0.4014 -0.3145 -0.1279
 6181TIP3    H139958   4.557   5.846   2.530 -0.6649 -0.5531 -0.5914
 6181TIP3    H239959   4.408   5.837   2.503 -0.8111  1.5390 -0.5919
 6182TIP3   OH239960   0.757   6.562   4.572 -0.3475  0.6340 -0.3548
 6182TIP3    H139961   0.835   6.592   4.526  0.8886 -1.9837 -0.1471
 6182TIP3    H239962   0.696   6.538   4.502 -0.2122  0.8314 -0.5411
 6183TIP3   OH239963   4.311   2.157   4.664  0.2884  0.0999 -0.5112
 6183TIP3    H139964   4.342   2.068   4.648 -1.4847 -0.2824 -2.1544
 6183TIP3    H239965   4.243   2.171   4.598  0.6100  2.7372 -0.3791
 6184TIP3   OH239966   2.814   3.559   1.606 -0.4008 -0.3205  0.0685
 6184TIP3    H139967   2.778   3.548   1.518 -1.7928  0.8871  0.4272
 6184TIP3    H239968   2.811   3.654   1.621  2.6543 -0.1628  0.3033
 6185TIP3   OH239969   3.634   1.701  12.915  0.4823  0.1208  0.1491
 6185TIP3    H139970   3.666   1.726  13.001 -1.4478  4.7615 -0.2079
 6185TIP3    H239971   3.711   1.704  12.859  1.2262  0.1019  1.1429
 6186TIP3   OH239972   2.765   1.828   6.070  0.1364  0.3806 -0.2714
 6186TIP3    H139973   2.672   1.837   6.093 -0.1795  0.6184 -1.5363
 6186TIP3    H239974   2.764   1.786   5.984  1.1881  0.7311 -0.4719
 6187TIP3   OH239975   0.136   5.391  12.345  0.0874  0.3037 -0.0441
 6187TIP3    H139976   0.112   5.479  12.316 -0.3100 -0.1046 -0.9882
 6187TIP3    H239977   0.090   5.380  12.428 -0.4245  0.7250 -0.2674
 6188TIP3   OH239978   3.242   0.733  10.592 -0.5050 -0.0829  0.0360
 6188TIP3    H139979   3.309   0.678  10.633  0.0112  0.4402 -0.1011
 6188TIP3    H239980   3.171   0.672  10.571 -1.0573 -0.2871  2.2514
 6189TIP3   OH239981   2.293   4.388   5.459 -0.0884  0.6439  0.2776
 6189TIP3    H139982   2.302   4.298   5.429 -0.5289  1.3574 -2.2036
 6189TIP3    H239983   2.369   4.402   5.516 -1.0811 -1.8323  2.3921
 6190TIP3   OH239984   4.102   1.238  14.873 -0.6218  0.1353 -0.2799
 6190TIP3    H139985   4.046   1.315  14.864 -0.6381  0.1686  0.0789
 6190TIP3    H239986   4.183   1.261  14.828  0.2141  1.2195  1.6650
 6191TIP3   OH239987   3.548   3.051  13.011  0.7557 -0.2528 -0.0926
 6191TIP3    H139988   3.607   3.042  13.086  2.2434 -2.6681 -1.4103
 6191TIP3    H239989   3.498   2.969  13.011 -1.1735  0.8603 -0.2356
 6192TIP3   OH239990   4.427   5.441  11.782 -0.0529 -0.5484 -0.1394
 6192TIP3    H139991   4.422   5.514  11.720  1.0210  0.3751  0.7994
 6192TIP3    H239992   4.337   5.429  11.813 -0.3072  0.1345 -0.5823
 6193TIP3   OH239993   6.578   0.091  14.704 -0.0364 -0.7838 -0.4114
 6193TIP3    H139994   6.603  -0.002  14.702  2.3832 -0.1915 -0.0874
 6193TIP3    H239995   6.593   0.122  14.615  0.4042 -0.4152 -0.2123
 6194TIP3   OH239996   3.441   3.226  12.015 -0.0812 -0.6247 -0.4750
 6194TIP3    H139997   3.391   3.209  11.935  0.8196 -0.4639 -1.0928
 6194TIP3    H239998   3.409   3.310  12.047  0.0184 -0.3639 -1.0482
 6195TIP3   OH239999   5.198   4.938   2.512 -0.5477  0.2776  0.0139
 6195TIP3    H140000   5.290   4.948   2.489 -0.3487 -2.0341 -0.4714
 6195TIP3    H240001   5.175   4.850   2.482 -2.3573 -0.0205  1.9898
 6196TIP3   OH240002   4.425   3.883   1.049  0.5858  0.3302 -0.6456
 6196TIP3    H140003   4.499   3.878   0.990  0.2828 -1.5702 -0.9372
 6196TIP3    H240004   4.354   3.919   0.996  0.9184  0.7936 -0.7774
 6197TIP3   OH240005   0.511   1.453  16.200 -0.0566  0.3489 -0.5937
 6197TIP3    H140006   0.584   1.506  16.232 -0.7170  2.4756 -2.3425
 6197TIP3    H240007   0.534   1.434  16.109 -1.2186  0.1885 -0.8619
 6198TIP3   OH240008   0.304   6.268  15.916  0.2437 -0.6681 -0.1481
 6198TIP3    H140009   0.358   6.338  15.880 -0.4310  0.9937  1.9333
 6198TIP3    H240010   0.221   6.275  15.869 -0.1854  0.6566  0.7466
 6199TIP3   OH240011   3.042   1.410   6.075  0.5992 -0.5892  0.1069
 6199TIP3    H140012   3.087   1.492   6.053 -0.4464  0.0553  0.3078
 6199TIP3    H240013   3.088   1.343   6.024  2.8267 -0.2326  1.5226
 6200TIP3   OH240014   5.961   2.562   5.635 -0.1933  0.5968  0.5356
 6200TIP3    H140015   5.964   2.657   5.628 -2.2174  0.7871  1.6258
 6200TIP3    H240016   5.908   2.545   5.713  0.7886 -1.4310  0.8316
 6201TIP3   OH240017   2.256   3.708   6.356  0.6132  0.0869 -0.0141
 6201TIP3    H140018   2.211   3.773   6.300  0.4759 -0.7503 -0.9005
 6201TIP3    H240019   2.309   3.761   6.415 -0.6391  1.0704  0.2921
 6202TIP3   OH240020   2.456   4.620  15.381 -0.1586  0.0566 -0.2780
 6202TIP3    H140021   2.434   4.560  15.453 -4.6837 -1.2991 -2.4359
 6202TIP3    H240022   2.527   4.576  15.334 -0.2146 -1.2681  0.8193
 6203TIP3   OH240023   4.721   4.415   6.100  0.0477 -0.2479  0.1641
 6203TIP3    H140024   4.692   4.472   6.170  0.5624 -0.6311  0.6985
 6203TIP3    H240025   4.748   4.334   6.143 -2.3847 -1.6263 -0.7480
 6204TIP3   OH240026   0.011   2.320   2.067 -0.0849  0.5068 -0.3952
 6204TIP3    H140027  -0.069   2.323   2.119 -0.1132  0.1297 -0.4140
 6204TIP3    H240028   0.043   2.411   2.067  0.0846  0.4573  0.5387
 6205TIP3   OH240029   5.512   3.992   3.541 -0.0682 -0.4115  0.7241
 6205TIP3    H140030   5.550   3.932   3.605  0.6254 -0.7611 -0.0028
 6205TIP3    H240031   5.517   4.078   3.582  0.2138 -0.6577  1.2026
 6206TIP3   OH240032   1.590   2.976  16.016  0.3326  0.7182  0.0974
 6206TIP3    H140033   1.573   3.021  16.098  1.8836  1.1946  0.1888
 6206TIP3    H240034   1.685   2.963  16.014  0.0463 -2.0115 -0.2258
 6207TIP3   OH240035   5.254   0.587  15.090 -0.5126  0.1452  0.0290
 6207TIP3    H140036   5.201   0.663  15.115 -0.5441  0.2636 -0.3813
 6207TIP3    H240037   5.262   0.535  15.170 -1.0712  0.2321  0.1444
 6208TIP3   OH240038   1.685   2.783  12.965 -0.3658  0.2101 -0.0557
 6208TIP3    H140039   1.685   2.825  12.879 -3.5510 -0.0674 -0.3368
 6208TIP3    H240040   1.667   2.691  12.946 -1.6161  0.2329  0.8754
 6209TIP3   OH240041   6.305   1.798  12.704 -0.9491 -0.3076  0.7087
 6209TIP3    H140042   6.302   1.733  12.773 -2.4191  0.0016  0.9639
 6209TIP3    H240043   6.216   1.804  12.671 -0.5960  0.6644 -0.1713
 6210TIP3   OH240044   6.298   4.863  14.145 -0.1450 -0.5720  0.2771
 6210TIP3    H140045   6.212   4.840  14.109 -0.4728 -1.2653  1.4423
 6210TIP3    H240046   6.328   4.936  14.091 -0.0264 -2.3586 -2.2420
 6211TIP3   OH240047   4.857   3.940   1.661  0.0056  0.5748 -0.2270
 6211TIP3    H140048   4.815   4.022   1.688  1.3394  1.3247 -0.3727
 6211TIP3    H240049   4.939   3.937   1.711  0.0853 -0.5637 -0.3971
 6212TIP3   OH240050   5.275   1.011  15.237 -0.8400  0.1009  0.3438
 6212TIP3    H140051   5.249   0.947  15.304  0.1740  0.8893  1.5373
 6212TIP3    H240052   5.362   0.983  15.209 -0.1308  1.2584  1.3154
 6213TIP3   OH240053   4.222   4.939  12.842  0.0333 -0.2761 -0.1549
 6213TIP3    H140054   4.177   4.862  12.877 -0.5078  1.2892  2.9651
 6213TIP3    H240055   4.314   4.915  12.842 -0.1753 -1.1185  0.2205
 6214TIP3   OH240056   2.847   4.778  16.239 -0.6456 -0.2872  0.1516
 6214TIP3    H140057   2.848   4.857  16.186 -0.4581  0.2810  0.9764
 6214TIP3    H240058   2.837   4.706  16.176  1.6520  0.1863 -0.8506
 6215TIP3   OH240059   2.453   5.385  15.762 -0.5038  0.4603 -0.7654
 6215TIP3    H140060   2.364   5.419  15.753  0.3275  2.7777 -1.0036
 6215TIP3    H240061   2.506   5.442  15.705  1.1054 -0.9984 -0.8025
 6216TIP3   OH240062   2.987   3.737  11.813  0.0575 -0.3895  0.1606
 6216TIP3    H140063   2.992   3.831  11.830 -0.3285 -0.4655  0.6900
 6216TIP3    H240064   3.001   3.695  11.898  0.9516 -0.8344 -0.1897
 6217TIP3   OH240065   1.416   0.516   5.390 -0.1471  0.4656 -0.2775
 6217TIP3    H140066   1.432   0.533   5.483 -1.5429 -0.2164  0.1172
 6217TIP3    H240067   1.500   0.487   5.356 -0.0147 -1.0080  1.2005
 6218TIP3   OH240068   6.488   5.165   3.365  0.7761  0.3894  0.2982
 6218TIP3    H140069   6.493   5.258   3.387 -0.4209  1.4261 -3.1165
 6218TIP3    H240070   6.490   5.163   3.269 -0.1637 -3.0497  0.2168
 6219TIP3   OH240071   2.105   3.787  11.110  0.1869  0.5492  0.3037
 6219TIP3    H140072   2.141   3.848  11.046  0.3122  0.6600  0.4762
 6219TIP3    H240073   2.013   3.780  11.088  1.0464 -3.2469 -3.0338
 6220TIP3   OH240074   4.500   5.323   1.686 -0.6531 -0.5977 -0.3093
 6220TIP3    H140075   4.533   5.384   1.619  0.1865  0.2741  0.8516
 6220TIP3    H240076   4.552   5.244   1.673 -0.2504 -0.3106 -0.4749
 6221TIP3   OH240077   0.546   3.874  15.642  0.6370 -0.2930 -0.3162
 6221TIP3    H140078   0.624   3.829  15.608  0.3411 -0.7702 -0.3633
 6221TIP3    H240079   0.503   3.809  15.697 -0.9104 -0.7816 -2.0145
 6222TIP3   OH240080   6.769   6.241   5.724  0.4246  0.3617  0.4863
 6222TIP3    H140081   6.761   6.267   5.632 -4.4483 -1.0725  0.2079
 6222TIP3    H240082   6.840   6.177   5.725 -0.6608 -1.1460 -2.7924
 6223TIP3   OH240083   2.343   2.656  12.676  0.4019 -0.5018 -0.0224
 6223TIP3    H140084   2.293   2.733  12.653  2.0224  0.7698  0.4797
 6223TIP3    H240085   2.385   2.679  12.760  2.4416 -1.1304 -0.8031
 6224TIP3   OH240086   3.248   1.798  11.122 -0.0016 -0.1205 -0.9609
 6224TIP3    H140087   3.153   1.786  11.131  0.2473 -1.6917 -0.1564
 6224TIP3    H240088   3.259   1.829  11.032 -0.9459 -4.9912 -3.0977
 6225TIP3   OH240089   2.372   3.324   3.735  0.2228 -0.3938 -0.2244
 6225TIP3    H140090   2.456   3.279   3.727  0.0554 -0.8690  0.5739
 6225TIP3    H240091   2.388   3.411   3.697  1.4738  0.0117  1.0990
 6226TIP3   OH240092   0.257   2.532  16.584 -0.0677  0.2943  0.8404
 6226TIP3    H140093   0.302   2.613  16.558 -0.1323  0.7227  2.0269
 6226TIP3    H240094   0.223   2.550  16.671 -0.4480 -0.8821  0.9514
 6227TIP3   OH240095   0.462   3.426   3.887  0.2668 -0.6240 -0.4237
 6227TIP3    H140096   0.431   3.483   3.817  1.5469  0.1337 -0.4183
 6227TIP3    H240097   0.498   3.486   3.953 -0.9440 -1.3189  0.9285
 6228TIP3   OH240098   2.900   1.296  14.526  0.6053  0.4152  0.4756
 6228TIP3    H140099   2.841   1.245  14.580  0.8647  0.4035  0.7541
 6228TIP3    H240100   2.856   1.380  14.514  0.4008  0.3015  0.4296
 6229TIP3   OH240101   2.806   3.524   5.836  0.2912  0.4689  0.1978
 6229TIP3    H140102   2.896   3.499   5.856  0.1308  0.9844  1.6870
 6229TIP3    H240103   2.753   3.480   5.903 -0.6000  0.0108 -0.7801
 6230TIP3   OH240104   1.388   6.553   5.705 -0.1118  0.3303  0.3473
 6230TIP3    H140105   1.363   6.462   5.716  1.3782 -0.2834 -1.0198
 6230TIP3    H240106   1.360   6.576   5.617  1.2977  0.5520 -0.0732
 6231TIP3   OH240107   5.233   5.779  11.072 -0.3793  0.2797  0.4599
 6231TIP3    H140108   5.241   5.873  11.088  2.2028  0.0044  1.1081
 6231TIP3    H240109   5.148   5.770  11.029 -0.8698  2.8486  0.7196
 6232TIP3   OH240110   2.317   4.908   5.163  0.0020  0.1063  0.0194
 6232TIP3    H140111   2.284   4.898   5.253  1.3140 -3.1506  0.2672
 6232TIP3    H240112   2.239   4.899   5.108 -0.5072 -0.0799  0.7500
 6233TIP3   OH240113   6.477   4.445  14.841  0.2037 -0.5988 -0.0364
 6233TIP3    H140114   6.474   4.442  14.745  1.8193 -0.2375 -0.1315
 6233TIP3    H240115   6.460   4.537  14.862 -0.1117 -0.6705  0.0218
 6234TIP3   OH240116   3.859   5.773   3.557 -0.1781 -0.2002  0.6124
 6234TIP3    H140117   3.874   5.866   3.543  0.8128 -0.5186 -0.5604
 6234TIP3    H240118   3.903   5.753   3.640  1.2312  0.0150 -0.0563
 6235TIP3   OH240119   2.893   4.628  13.826  0.5214  0.6456  0.3224
 6235TIP3    H140120   2.805   4.593  13.835  0.4106  1.1060  1.1750
 6235TIP3    H240121   2.940   4.563  13.774  0.1699 -0.5076  1.3893
 6236TIP3   OH240122   4.013   2.218   4.871  0.0100  0.1898  0.3763
 6236TIP3    H140123   4.059   2.300   4.852 -2.4936  1.6770  0.3650
 6236TIP3    H240124   4.036   2.161   4.797  0.5947  1.4236 -0.4398
 6237TIP3   OH240125   1.844   5.401  13.932  0.5379  0.5807  0.4920
 6237TIP3    H140126   1.815   5.433  14.017 -1.2077  1.5285 -0.4050
 6237TIP3    H240127   1.880   5.479  13.889  1.9494 -0.0146  0.5429
 6238TIP3   OH240128   2.821   6.414   5.495 -0.1372 -0.1472 -0.8977
 6238TIP3    H140129   2.786   6.326   5.481 -0.1028 -0.4195  0.5172
 6238TIP3    H240130   2.845   6.446   5.408 -0.0223 -1.5945 -1.4131
 6239TIP3   OH240131   5.915   2.755  13.403  0.1066  0.0036 -0.0566
 6239TIP3    H140132   5.971   2.802  13.341  0.1908 -0.2475 -0.1715
 6239TIP3    H240133   5.975   2.701  13.453 -0.0947 -0.7248 -0.5883
 6240TIP3   OH240134   2.533   6.208   0.462  0.0220  0.0729 -0.3954
 6240TIP3    H140135   2.465   6.214   0.395  0.4437 -1.2079 -0.9706
 6240TIP3    H240136   2.579   6.126   0.443 -1.1280 -1.4405  2.6965
 6241TIP3   OH240137   1.673   1.793   1.296 -0.0536 -0.4533 -0.5827
 6241TIP3    H140138   1.738   1.764   1.360  0.7596 -1.1149 -1.6691
 6241TIP3    H240139   1.721   1.855   1.241  0.1163 -1.9913 -2.2662
 6242TIP3   OH240140   6.005   0.744  14.510  0.0327  0.0418 -0.3036
 6242TIP3    H140141   6.035   0.813  14.569 -1.1205  0.0529  0.3071
 6242TIP3    H240142   6.010   0.664  14.562 -0.7632  0.0150 -0.2530
 6243TIP3   OH240143   6.249   5.791  17.143  0.5209 -0.1461 -0.1223
 6243TIP3    H140144   6.183   5.858  17.128  0.4538  0.0086  0.8160
 6243TIP3    H240145   6.203   5.708  17.133 -0.6014 -0.1042  3.3810
 6244TIP3   OH240146   5.870   1.482  14.018 -0.4903 -0.1589  0.1326
 6244TIP3    H140147   5.921   1.427  13.959  0.7103  1.0141  0.0367
 6244TIP3    H240148   5.877   1.570  13.981 -1.5165  0.2491  0.8530
 6245TIP3   OH240149   0.787   1.973   1.901 -0.3193 -0.0260 -0.2306
 6245TIP3    H140150   0.775   1.890   1.948 -1.1252  0.6342  0.7699
 6245TIP3    H240151   0.878   1.998   1.919 -0.6294  0.2390  1.0465
 6246TIP3   OH240152   6.225   1.547   3.754  0.4430  0.5313  0.1010
 6246TIP3    H140153   6.235   1.480   3.687  2.6121 -0.0834  0.9519
 6246TIP3    H240154   6.202   1.499   3.833 -0.4000  1.0651  0.1887
 6247TIP3   OH240155   4.061   1.828   2.746  0.0647  0.3103 -0.1262
 6247TIP3    H140156   4.044   1.921   2.729  3.0609  1.1880  1.0579
 6247TIP3    H240157   3.987   1.783   2.707 -0.4563  3.0549 -2.6817
 6248TIP3   OH240158   5.559   5.622   5.582 -0.5158 -0.1232 -0.3964
 6248TIP3    H140159   5.562   5.526   5.584  0.1010 -0.1048  0.5451
 6248TIP3    H240160   5.499   5.643   5.511 -0.4599 -1.2074 -0.7869
 6249TIP3   OH240161   3.566   3.803  13.318  0.3798 -0.0705  0.4107
 6249TIP3    H140162   3.656   3.831  13.332  0.8131 -1.2211  0.0137
 6249TIP3    H240163   3.523   3.819  13.403  1.1610 -0.2991  0.8576
 6250TIP3   OH240164   2.971   0.442   1.025  0.2931  0.6813  0.0666
 6250TIP3    H140165   2.949   0.491   0.946 -0.9856 -0.0402 -0.0487
 6250TIP3    H240166   2.903   0.467   1.088 -1.8006 -2.5820 -0.6839
 6251TIP3   OH240167   1.949   2.219  12.446  0.1253 -0.9714  0.2732
 6251TIP3    H140168   1.928   2.129  12.422 -1.7049 -0.1301 -1.5035
 6251TIP3    H240169   1.951   2.218  12.542 -1.3829 -2.5826  0.3309
 6252TIP3   OH240170   0.832   1.030   3.331 -0.0276  0.2685 -0.2594
 6252TIP3    H140171   0.789   1.063   3.409 -0.1766  0.0283 -0.2405
 6252TIP3    H240172   0.877   1.106   3.294 -1.1783  0.7310 -0.7582
 6253TIP3   OH240173   6.725   2.824   3.351 -0.1333 -0.2081  0.7484
 6253TIP3    H140174   6.680   2.799   3.432  0.0313 -2.0933  0.2995
 6253TIP3    H240175   6.818   2.822   3.374 -0.0927 -0.6156  0.5440
 6254TIP3   OH240176   4.929   1.322   5.672  0.0706 -0.0502 -0.2206
 6254TIP3    H140177   4.867   1.364   5.731  0.4698 -1.8166  1.5897
 6254TIP3    H240178   4.980   1.263   5.729  1.7285 -0.4968 -2.0438
 6255TIP3   OH240179   1.570   1.215  16.741  0.4798 -0.6546 -0.9309
 6255TIP3    H140180   1.594   1.149  16.807  1.3149 -1.8615 -2.3872
 6255TIP3    H240181   1.546   1.164  16.664  1.3497  0.7318 -2.1684
 6256TIP3   OH240182   0.250   6.015  11.200 -0.3190  0.1590 -0.0978
 6256TIP3    H140183   0.256   5.989  11.108 -0.6163 -1.0234  0.2045
 6256TIP3    H240184   0.308   6.090  11.207  0.1535 -0.0912 -1.1263
 6257TIP3   OH240185   0.599   5.415  15.644 -0.4893 -0.2080  0.0173
 6257TIP3    H140186   0.545   5.484  15.682  0.4596  0.2628  0.5674
 6257TIP3    H240187   0.599   5.432  15.550 -0.7476  0.1790  0.0855
 6258TIP3   OH240188   1.062   2.947  16.759  0.3121  0.4442  0.0259
 6258TIP3    H140189   0.980   2.897  16.752  0.2101  0.4247  1.1896
 6258TIP3    H240190   1.039   3.034  16.726 -0.8831  1.1705  2.4814
 6259TIP3   OH240191   2.600   3.305   0.633 -0.3888  0.2064 -0.0767
 6259TIP3    H140192   2.559   3.223   0.606 -1.0988  0.7276 -0.5980
 6259TIP3    H240193   2.628   3.289   0.723  0.0560 -0.8196 -0.3823
 6260TIP3   OH240194   6.027   6.763  12.099 -1.0374  0.7820  0.7341
 6260TIP3    H140195   6.004   6.793  12.012 -1.5391  0.6576  0.8252
 6260TIP3    H240196   6.028   6.667  12.092 -0.9942  0.7741  0.8453
 6261TIP3   OH240197   0.540   0.473   4.565 -0.5374  0.5302  0.1404
 6261TIP3    H140198   0.514   0.382   4.580 -0.8846  0.5409 -0.3890
 6261TIP3    H240199   0.572   0.475   4.475 -1.2022  1.0795 -0.0874
 6262TIP3   OH240200   0.768   5.776  13.850  0.3205  0.5546 -0.0164
 6262TIP3    H140201   0.832   5.802  13.784 -0.1471 -0.5270 -0.9052
 6262TIP3    H240202   0.756   5.682  13.837 -1.0065  0.6347  0.5272
 6263TIP3   OH240203   0.488   0.302  11.492 -0.6787 -0.7584 -0.1707
 6263TIP3    H140204   0.552   0.252  11.442  0.4234 -0.4957  0.9273
 6263TIP3    H240205   0.422   0.329  11.428  0.4361 -0.8297 -1.3785
 6264TIP3   OH240206   1.556   2.697   0.916 -0.0591 -0.3961 -0.0771
 6264TIP3    H140207   1.550   2.792   0.910 -0.2223 -0.1806  2.3125
 6264TIP3    H240208   1.481   2.671   0.969 -1.8405 -2.2952 -3.2189
 6265TIP3   OH240209   4.100   2.659   5.665 -0.6061 -0.0382 -0.5836
 6265TIP3    H140210   4.126   2.575   5.628  0.5120  0.0908 -0.1311
 6265TIP3    H240211   4.119   2.723   5.596  0.7671  0.1100 -0.1018
 6266TIP3   OH240212   2.806   6.413   4.155 -0.3849 -0.8181  1.1024
 6266TIP3    H140213   2.797   6.444   4.245  0.1682 -0.4364  1.0259
 6266TIP3    H240214   2.897   6.384   4.148  0.6779  2.4215 -0.3208
 6267TIP3   OH240215   4.113   6.382  15.349  0.7059 -0.0082  0.1181
 6267TIP3    H140216   4.088   6.399  15.258  1.7385 -1.1918 -0.4113
 6267TIP3    H240217   4.064   6.303  15.372  0.9057 -0.0492  0.3999
 6268TIP3   OH240218   5.588   6.653  16.456 -0.2673  0.1749 -0.4430
 6268TIP3    H140219   5.635   6.694  16.528 -0.3030  0.3778 -0.5349
 6268TIP3    H240220   5.620   6.562  16.455  0.5778  0.4658 -0.8872
 6269TIP3   OH240221   1.641   0.066  11.967 -0.6067 -0.7906  0.0583
 6269TIP3    H140222   1.623   0.069  12.060 -1.1215 -1.5116 -0.0102
 6269TIP3    H240223   1.574   0.007  11.931  0.8515 -2.1863 -0.4536
 6270TIP3   OH240224   0.791   2.328   1.690  0.0926 -0.1896  0.6457
 6270TIP3    H140225   0.723   2.264   1.709  0.9009 -0.9798  0.9393
 6270TIP3    H240226   0.751   2.412   1.711 -1.1175 -0.5412 -0.1150
 6271TIP3   OH240227   3.898   5.414   5.716  0.7163 -0.4664 -0.5174
 6271TIP3    H140228   3.836   5.485   5.731  1.2331 -0.3266  1.0391
 6271TIP3    H240229   3.980   5.457   5.691  0.7282 -0.5777 -0.6789
 6272TIP3   OH240230   1.913   2.448   2.243  0.5451  0.4592 -0.4060
 6272TIP3    H140231   1.964   2.381   2.288  0.5481  1.2518  0.8239
 6272TIP3    H240232   1.859   2.487   2.312  0.5992  1.7769 -1.0748
 6273TIP3   OH240233   2.024   1.840   0.205 -0.2795  0.1956  0.0534
 6273TIP3    H140234   2.112   1.806   0.221 -1.0360 -1.5854  0.7058
 6273TIP3    H240235   2.006   1.821   0.113 -0.1698  0.0899  0.0541
 6274TIP3   OH240236   2.189   1.765  13.474 -0.5820 -0.5271 -0.4500
 6274TIP3    H140237   2.127   1.695  13.453  0.1977 -0.7758 -2.0617
 6274TIP3    H240238   2.268   1.741  13.426  0.5331  0.1762  0.9580
 6275TIP3   OH240239   0.321   0.450  16.428  0.0422  0.3412  0.2585
 6275TIP3    H140240   0.274   0.532  16.417 -1.4850 -0.3916  1.0380
 6275TIP3    H240241   0.338   0.420  16.338 -0.4158  0.9266 -0.0281
 6276TIP3   OH240242   3.859   3.299  16.872  0.1872  0.3019 -0.0515
 6276TIP3    H140243   3.917   3.315  16.797  1.9205 -0.1889  1.1199
 6276TIP3    H240244   3.797   3.371  16.870  0.4950  0.5735 -1.6591
 6277TIP3   OH240245   3.128   3.685   0.240 -0.0352 -0.2570  0.5517
 6277TIP3    H140246   3.147   3.596   0.210 -0.8602  0.4524 -2.4065
 6277TIP3    H240247   3.143   3.740   0.163 -0.9895  1.9840  1.8718
 6278TIP3   OH240248   6.485   5.305   2.579  1.1485  0.1541  0.3672
 6278TIP3    H140249   6.468   5.242   2.509  1.7646  1.7055 -1.2295
 6278TIP3    H240250   6.551   5.262   2.634  0.8759 -0.9542 -0.1306
 6279TIP3   OH240251   6.383   3.177  13.849 -0.7465  0.2331  0.0518
 6279TIP3    H140252   6.368   3.131  13.766  1.4211 -1.0893  0.3320
 6279TIP3    H240253   6.377   3.269  13.826  1.2928 -0.0566 -1.9490
 6280TIP3   OH240254   4.919   4.467  13.295  0.1020 -0.3147  0.2237
 6280TIP3    H140255   4.944   4.506  13.379  0.6835 -1.2276  0.4821
 6280TIP3    H240256   4.943   4.375  13.302 -1.8720 -0.9098 -0.1325
 6281TIP3   OH240257   6.701   6.732  13.761 -0.3606 -0.3001 -0.3984
 6281TIP3    H140258   6.715   6.827  13.752  1.8277 -0.5731 -0.2961
 6281TIP3    H240259   6.639   6.724  13.834 -2.4705  1.0960 -1.8812
 6282TIP3   OH240260   4.973   2.629  13.741 -0.0204 -0.0372 -0.4516
 6282TIP3    H140261   5.058   2.656  13.707  0.2982  0.3859  0.6156
 6282TIP3    H240262   4.991   2.604  13.832 -1.4668  2.8223  0.7484
 6283TIP3   OH240263   2.820   1.605   2.095  0.0533 -0.2694  0.0501
 6283TIP3    H140264   2.897   1.655   2.071 -0.5217 -0.2138 -1.8355
 6283TIP3    H240265   2.747   1.665   2.082 -0.3833 -0.5365  1.1438
 6284TIP3   OH240266   2.082   6.533   1.647 -0.3783 -0.3500  0.0648
 6284TIP3    H140267   2.140   6.458   1.640  1.7309  1.1592  0.5426
 6284TIP3    H240268   2.073   6.566   1.558 -0.9496 -0.8776 -0.0802
 6285TIP3   OH240269   1.124   2.781  13.231  0.1129 -0.2593 -0.4320
 6285TIP3    H140270   1.186   2.742  13.170  1.4262  2.2172 -0.8375
 6285TIP3    H240271   1.045   2.795  13.179 -0.0711 -1.4692 -0.5092
 6286TIP3   OH240272   3.051   1.379  11.424 -0.2193  0.0341  0.4449
 6286TIP3    H140273   3.098   1.367  11.507 -2.5702 -1.4028  1.6911
 6286TIP3    H240274   3.097   1.322  11.363  0.8098  0.1557  1.0706
 6287TIP3   OH240275   6.490   4.447   1.750 -0.4595  0.2776  0.6660
 6287TIP3    H140276   6.428   4.480   1.816 -1.1086  0.1709  0.1173
 6287TIP3    H240277   6.575   4.450   1.794 -0.6474  1.7078  0.9850
 6288TIP3   OH240278   5.086   1.099   3.332 -0.3025  1.2211 -0.4905
 6288TIP3    H140279   5.108   1.043   3.258 -0.2254  0.2317  0.2605
 6288TIP3    H240280   4.996   1.075   3.354 -0.4743  1.8187 -0.5306
 6289TIP3   OH240281   1.549   1.628  15.711  0.3851  0.0208 -0.2579
 6289TIP3    H140282   1.566   1.565  15.641  1.1513 -1.4752  1.2056
 6289TIP3    H240283   1.454   1.632  15.718  0.3085 -1.6093  0.1122
 6290TIP3   OH240284   0.935   1.931  11.597  0.1154 -0.1375 -0.2263
 6290TIP3    H140285   0.925   2.000  11.662 -0.1921 -0.4064  0.0148
 6290TIP3    H240286   0.849   1.926  11.554  0.3881  0.2122 -0.8276
 6291TIP3   OH240287   3.899   0.879  12.029  0.3109  0.6953  0.7572
 6291TIP3    H140288   3.936   0.832  12.103  1.1454 -0.9617 -0.6438
 6291TIP3    H240289   3.943   0.842  11.952 -1.8483  1.0457 -0.7290
 6292TIP3   OH240290   3.885   0.226   0.393 -0.4642  0.2846  0.2780
 6292TIP3    H140291   3.806   0.262   0.434 -0.4059  1.6028 -0.7233
 6292TIP3    H240292   3.952   0.292   0.407 -0.0266  0.0234 -0.5147
 6293TIP3   OH240293   5.474   5.003   0.129 -0.2477 -0.1358  0.4293
 6293TIP3    H140294   5.507   4.913   0.125  0.7685  0.2248  0.3803
 6293TIP3    H240295   5.522   5.042   0.202 -0.0756  0.6047 -0.0797
 6294TIP3   OH240296   3.246   0.223   3.556 -0.3772  0.1267  0.4563
 6294TIP3    H140297   3.325   0.260   3.595 -0.4291  1.4643 -0.6328
 6294TIP3    H240298   3.265   0.220   3.463 -0.4348 -2.5529  0.4714
 6295TIP3   OH240299   1.287   1.214   0.917 -0.1777  1.0596 -0.2863
 6295TIP3    H140300   1.235   1.210   0.997 -0.2585 -1.6138 -0.3865
 6295TIP3    H240301   1.373   1.245   0.945 -0.1646  0.0281  0.8788
 6296TIP3   OH240302   0.787   4.220  12.652 -0.0499  0.5788 -0.1365
 6296TIP3    H140303   0.774   4.240  12.744  0.9887 -0.5177  0.2812
 6296TIP3    H240304   0.710   4.168  12.628 -1.0064  2.0055 -0.2907
 6297TIP3   OH240305   1.566   5.443  14.729  0.3378 -0.3461  0.3737
 6297TIP3    H140306   1.566   5.466  14.636 -1.0268 -0.2818  0.3716
 6297TIP3    H240307   1.562   5.347  14.730  0.1503 -0.3377  0.3730
 6298TIP3   OH240308   5.297   5.054   6.880 -0.8421 -0.6105 -0.1143
 6298TIP3    H140309   5.246   5.086   6.805  0.4313 -0.7906 -1.0888
 6298TIP3    H240310   5.260   4.968   6.900  0.2118 -1.5655 -2.0093
 6299TIP3   OH240311   1.252   5.108   6.470  0.1341 -0.2570  0.5371
 6299TIP3    H140312   1.324   5.165   6.442 -0.3322  0.7517  1.3418
 6299TIP3    H240313   1.294   5.044   6.528  0.5482 -0.3195  0.1729
 6300TIP3   OH240314   2.302   6.659   5.812 -0.2653  0.4775 -0.1616
 6300TIP3    H140315   2.356   6.581   5.823  0.4484  1.2463  2.9444
 6300TIP3    H240316   2.365   6.731   5.807 -0.9381  0.9844 -1.8851
 6301TIP3   OH240317   1.871   1.525  15.232  0.0124  0.2232  0.5576
 6301TIP3    H140318   1.806   1.462  15.263 -0.1444 -0.2803 -0.7373
 6301TIP3    H240319   1.950   1.505  15.282 -0.6954  0.5700  1.8508
 6302TIP3   OH240320   3.873   6.325   3.659 -0.3756 -0.0686  0.2061
 6302TIP3    H140321   3.792   6.350   3.704 -0.0925 -1.0444  1.3048
 6302TIP3    H240322   3.909   6.255   3.713 -0.3057 -1.7113 -1.8916
 6303TIP3   OH240323   1.026   1.424   5.357 -0.0633 -0.0338 -0.5636
 6303TIP3    H140324   0.978   1.380   5.286 -0.2643  0.2439 -0.6028
 6303TIP3    H240325   0.959   1.443   5.423 -0.2771  1.5083 -1.1702
 6304TIP3   OH240326   0.200   0.943  15.451 -0.6800  0.0419  0.0391
 6304TIP3    H140327   0.202   0.869  15.512 -1.5757  1.2822  1.6435
 6304TIP3    H240328   0.170   0.906  15.368 -1.3743 -1.3446  0.8863
 6305TIP3   OH240329   0.167   1.413   4.029  0.1670  0.2090  0.1794
 6305TIP3    H140330   0.249   1.448   4.065  0.7939 -0.3410 -0.6801
 6305TIP3    H240331   0.109   1.405   4.105  1.1437 -0.0507  0.9174
 6306TIP3   OH240332   0.875   0.949  16.222 -0.1049 -0.0506 -0.3676
 6306TIP3    H140333   0.821   1.026  16.208 -1.3341 -0.9171 -0.5138
 6306TIP3    H240334   0.963   0.976  16.193 -0.0274  1.8977  1.4607
 6307TIP3   OH240335   1.631   2.270  12.963 -0.7802 -0.1419  0.0132
 6307TIP3    H140336   1.615   2.226  13.047 -1.8273  0.0276 -0.0891
 6307TIP3    H240337   1.560   2.241  12.907  0.6319 -1.3204 -1.2801
 6308TIP3   OH240338   0.705   0.753  16.554  0.1392  0.4747  0.4111
 6308TIP3    H140339   0.649   0.677  16.538  0.5214  0.2303  0.2504
 6308TIP3    H240340   0.644   0.820  16.586  0.0267 -0.4246  2.2481
 6309TIP3   OH240341   3.399   6.580   0.274 -0.7609  0.5377  0.3302
 6309TIP3    H140342   3.312   6.556   0.242 -0.2437 -2.5274  0.9295
 6309TIP3    H240343   3.455   6.580   0.197 -0.8550  0.0757  0.2572
 6310TIP3   OH240344   1.511   4.715   1.879 -0.0463  0.0026 -0.0716
 6310TIP3    H140345   1.567   4.777   1.926 -1.4751  2.8900 -1.8937
 6310TIP3    H240346   1.567   4.677   1.811  0.9391 -1.1004  1.2951
 6311TIP3   OH240347   1.680   5.944  10.903  0.3882 -0.1479 -0.5017
 6311TIP3    H140348   1.734   6.023  10.910  1.5056 -0.8809 -0.5279
 6311TIP3    H240349   1.670   5.930  10.809 -0.0725  0.1303 -0.4958
 6312TIP3   OH240350   0.749   5.822   5.903 -0.1717  0.5129 -0.0117
 6312TIP3    H140351   0.796   5.807   5.821  1.7801  0.6215  1.0379
 6312TIP3    H240352   0.799   5.773   5.969 -2.3820 -0.5974  0.9589
 6313TIP3   OH240353   2.396   5.317  12.573  0.4917  0.4381  0.3136
 6313TIP3    H140354   2.392   5.297  12.667  0.8286  1.8027  0.6460
 6313TIP3    H240355   2.481   5.281  12.545  1.7442  2.5146  1.2115
 6314TIP3   OH240356   1.190   5.376  14.768 -0.3378 -0.3669 -0.2227
 6314TIP3    H140357   1.176   5.460  14.811  2.6918  0.5299 -0.8303
 6314TIP3    H240358   1.128   5.376  14.694  0.4929  1.9275 -0.9923
 6315TIP3   OH240359   0.727   2.179   1.347  0.1291  0.4584  0.0596
 6315TIP3    H140360   0.683   2.111   1.295 -1.3164  2.0094 -0.8565
 6315TIP3    H240361   0.656   2.223   1.393  0.6729  2.9481 -1.3240
 6316TIP3   OH240362   5.450   4.737  10.353  0.6892 -0.1887 -0.9790
 6316TIP3    H140363   5.378   4.792  10.322  0.4238 -0.5326 -0.9739
 6316TIP3    H240364   5.491   4.788  10.423 -0.0600 -0.3391 -0.4197
 6317TIP3   OH240365   5.468   2.314  15.774 -0.3650  0.3240 -0.5928
 6317TIP3    H140366   5.561   2.330  15.790  0.0214 -1.9516 -0.2031
 6317TIP3    H240367   5.423   2.383  15.824  1.0816  0.0945  1.1295
 6318TIP3   OH240368   5.585   3.495  13.025 -0.7092 -0.0152 -0.1156
 6318TIP3    H140369   5.559   3.544  12.948 -0.3419  0.6103  0.1558
 6318TIP3    H240370   5.620   3.413  12.991 -0.9083  0.0948 -0.5898
 6319TIP3   OH240371   3.694   3.774   4.524 -0.0754 -0.6231  0.3911
 6319TIP3    H140372   3.727   3.715   4.456 -1.0863 -0.7161 -0.0370
 6319TIP3    H240373   3.600   3.780   4.507 -0.1625  0.2444  1.1019
 6320TIP3   OH240374   6.249   6.641  13.348  0.3628  0.2312 -0.0566
 6320TIP3    H140375   6.326   6.599  13.386  0.5125  0.2461 -0.3399
 6320TIP3    H240376   6.228   6.712  13.409  0.3892  0.0335  0.1815
 6321TIP3   OH240377   3.348   4.901   5.375 -0.0359 -0.1974  0.4872
 6321TIP3    H140378   3.283   4.902   5.305  0.2098  0.5282  0.2681
 6321TIP3    H240379   3.299   4.871   5.452 -0.3875 -0.6543  0.0922
 6322TIP3   OH240380   0.104   0.273  16.508  0.1646 -0.5128 -0.0084
 6322TIP3    H140381   0.179   0.322  16.476 -0.4185  0.5282  0.1454
 6322TIP3    H240382   0.060   0.334  16.567 -0.4608 -1.3184  0.3690
 6323TIP3   OH240383   6.358   1.562  13.248 -0.0925 -0.8820  0.1378
 6323TIP3    H140384   6.287   1.619  13.220 -0.2414 -0.5085  1.2057
 6323TIP3    H240385   6.329   1.528  13.333  0.6214 -1.4047  0.1806
 6324TIP3   OH240386   1.511   3.833   0.648  0.2112  0.1928 -0.1175
 6324TIP3    H140387   1.576   3.824   0.718 -1.5576 -2.3241  1.3521
 6324TIP3    H240388   1.482   3.924   0.655  1.8724  0.6969  0.7409
 6325TIP3   OH240389   6.068   4.130  16.104  0.6287 -0.0632  0.5828
 6325TIP3    H140390   6.142   4.175  16.064  1.0474 -0.5625  0.7656
 6325TIP3    H240391   5.995   4.191  16.098  1.0502  0.4216  0.3623
 6326TIP3   OH240392   3.290   3.526   1.021  0.0985  0.2438  0.2445
 6326TIP3    H140393   3.353   3.553   1.089 -0.3956  0.7049  0.5259
 6326TIP3    H240394   3.220   3.483   1.070 -0.2567  0.5724  0.0224
 6327TIP3   OH240395   5.692   1.520  13.012  0.3780 -0.0915 -0.0487
 6327TIP3    H140396   5.657   1.566  12.936 -1.9688 -0.7244  0.5693
 6327TIP3    H240397   5.662   1.571  13.087 -1.2726 -1.9107  0.6028
 6328TIP3   OH240398   2.743   2.187   2.239  0.0942 -0.4338  0.5655
 6328TIP3    H140399   2.704   2.129   2.175  0.5219 -1.0029  0.8154
 6328TIP3    H240400   2.797   2.247   2.188  0.2787 -0.7620  0.3726
 6329TIP3   OH240401   3.378   4.556   3.493 -0.0789  0.4727 -0.6825
 6329TIP3    H140402   3.381   4.496   3.418  0.7963 -0.4171  0.0466
 6329TIP3    H240403   3.461   4.542   3.538 -0.2128  1.6513 -0.0319
 6330TIP3   OH240404   5.984   1.181   5.245 -0.1344 -0.3421  0.3574
 6330TIP3    H140405   5.922   1.228   5.189 -0.7942  0.7565  1.9187
 6330TIP3    H240406   5.934   1.160   5.324  1.7551  1.8141  2.2803
 6331TIP3   OH240407   1.778   1.033   0.774  0.1123  0.2384 -0.0025
 6331TIP3    H140408   1.732   0.983   0.842 -0.4748 -0.5596 -0.9569
 6331TIP3    H240409   1.735   1.118   0.774  0.4886  0.4542  0.9870
 6332TIP3   OH240410   4.382   3.805  14.297  0.1353 -0.3410  0.3170
 6332TIP3    H140411   4.349   3.784  14.209  2.0020  0.0072 -0.5291
 6332TIP3    H240412   4.415   3.895  14.289  3.0064 -1.2594  0.4426
 6333TIP3   OH240413   0.690   5.147  16.552  0.4464  0.8200 -0.4015
 6333TIP3    H140414   0.688   5.156  16.456  2.6386  2.6217 -0.3387
 6333TIP3    H240415   0.765   5.091  16.569 -0.4795 -0.2639  0.2819
 6334TIP3   OH240416   4.809   1.552   6.302  0.0489  0.6755 -0.4702
 6334TIP3    H140417   4.818   1.498   6.380  0.4085  1.4109  0.0118
 6334TIP3    H240418   4.823   1.492   6.229  1.5463  0.3302  0.0763
 6335TIP3   OH240419   3.172   0.088   3.939  0.0656  0.2304 -0.1636
 6335TIP3    H140420   3.210   0.167   3.976 -1.2239  1.6014 -1.5795
 6335TIP3    H240421   3.078   0.107   3.930 -0.2928 -1.4518 -0.5561
 6336TIP3   OH240422   6.568   0.505  12.500 -0.2080 -0.4822 -0.1589
 6336TIP3    H140423   6.477   0.478  12.489 -0.4305  0.6995 -1.5194
 6336TIP3    H240424   6.596   0.531  12.412  1.1859 -0.0279  0.3945
 6337TIP3   OH240425   5.383   4.694  13.968  0.0275 -0.1520  0.0779
 6337TIP3    H140426   5.337   4.624  14.014 -0.3813  0.1161  0.0764
 6337TIP3    H240427   5.470   4.657  13.950  0.1808 -0.2796  1.0216
 6338TIP3   OH240428   0.027   6.170  17.293  0.1941 -0.3946  0.5994
 6338TIP3    H140429   0.024   6.103  17.225  0.8703  1.0019 -0.8747
 6338TIP3    H240430  -0.056   6.217  17.284  0.7816  0.5431 -0.0915
 6339TIP3   OH240431   0.669   3.857   5.432 -0.8594 -0.0199 -0.1664
 6339TIP3    H140432   0.579   3.872   5.403 -1.3719 -0.3105  1.1925
 6339TIP3    H240433   0.672   3.764   5.455  0.1964 -0.3487 -1.4997
 6340TIP3   OH240434   5.082   5.975   2.607 -0.4443 -0.3772  0.0185
 6340TIP3    H140435   5.093   5.902   2.668  0.3885  1.3431  2.0676
 6340TIP3    H240436   5.155   6.033   2.627 -1.7118  1.5685 -0.7439
 6341TIP3   OH240437   1.975   6.530   0.226  0.4637 -0.3701  0.2606
 6341TIP3    H140438   1.947   6.581   0.150 -1.3252 -1.7843 -0.0805
 6341TIP3    H240439   2.059   6.492   0.200  1.0729  1.0959 -0.0468
 6342TIP3   OH240440   6.249   0.319  15.808  0.1152 -0.1658 -0.0032
 6342TIP3    H140441   6.240   0.332  15.903  0.7794 -0.8792  0.1642
 6342TIP3    H240442   6.169   0.357  15.772 -0.3759 -0.3145  0.8862
 6343TIP3   OH240443   4.435   4.163   5.505  0.0311 -0.1832 -0.1709
 6343TIP3    H140444   4.380   4.234   5.472 -0.0353  0.5660  1.4613
 6343TIP3    H240445   4.397   4.084   5.467 -1.3135  0.4505 -0.2147
 6344TIP3   OH240446   4.164   4.867   2.740 -0.2814 -0.1627  0.0626
 6344TIP3    H140447   4.122   4.919   2.808 -1.1074 -0.6917 -0.0291
 6344TIP3    H240448   4.228   4.926   2.700 -1.1141  0.7457  0.0410
 6345TIP3   OH240449   0.595   2.969   6.353  0.1265  0.4546  0.2458
 6345TIP3    H140450   0.611   2.923   6.271 -2.1368 -0.7969  0.4197
 6345TIP3    H240451   0.616   2.904   6.421  0.6245  1.0011  0.6190
 6346TIP3   OH240452   1.774   3.020   4.055  0.3529  0.5889 -0.4105
 6346TIP3    H140453   1.832   3.000   4.128 -1.1479  0.5816  0.8315
 6346TIP3    H240454   1.750   3.112   4.067 -0.9584  0.2235 -0.0954
 6347TIP3   OH240455   2.226   5.213  13.485 -0.0963 -0.1170  0.0876
 6347TIP3    H140456   2.166   5.287  13.497 -0.5712 -0.4462 -0.2458
 6347TIP3    H240457   2.252   5.188  13.574  0.7495  0.9977  0.1783
 6348TIP3   OH240458   0.638   2.322   0.408  0.3853 -0.2845 -0.0603
 6348TIP3    H140459   0.708   2.279   0.359  1.8673  1.7949  0.0875
 6348TIP3    H240460   0.574   2.348   0.341 -0.3040 -2.2021 -0.1959
 6349TIP3   OH240461   4.165   6.222  11.797  0.0145  0.0820  0.0248
 6349TIP3    H140462   4.085   6.170  11.803  0.5257 -0.5526  1.9046
 6349TIP3    H240463   4.236   6.157  11.790  0.4687  0.6050 -0.3564
 6350TIP3   OH240464   3.613   2.073   3.498  0.3997 -0.0362  0.1949
 6350TIP3    H140465   3.598   1.987   3.537  0.9446  0.1331  0.8018
 6350TIP3    H240466   3.566   2.134   3.554 -0.6274 -0.0070 -0.6753
 6351TIP3   OH240467   1.926   5.005   0.376 -0.4661  0.0406  0.2958
 6351TIP3    H140468   1.992   5.070   0.400 -0.1788  0.7579 -2.1906
 6351TIP3    H240469   1.967   4.953   0.307 -2.7396  1.1301 -2.0540
 6352TIP3   OH240470   4.869   2.302  14.531  0.0218  0.5811  0.0104
 6352TIP3    H140471   4.960   2.280  14.553  0.5635  0.9137 -1.7201
 6352TIP3    H240472   4.862   2.395  14.553 -0.2673  0.3148  1.1557
 6353TIP3   OH240473   5.535   2.404  13.350 -0.4716 -0.6235 -0.4249
 6353TIP3    H140474   5.605   2.369  13.405 -0.6977 -1.3907 -0.6200
 6353TIP3    H240475   5.488   2.327  13.318 -2.2824 -0.1178  0.8412
 6354TIP3   OH240476   2.488   2.056  11.451  0.2191  0.2307  0.0741
 6354TIP3    H140477   2.539   2.015  11.521  2.5140  2.9277  0.1726
 6354TIP3    H240478   2.406   2.007  11.449  0.8129 -1.1664  3.3669
 6355TIP3   OH240479   1.276   1.142  15.275 -0.8641  0.6260  0.0633
 6355TIP3    H140480   1.252   1.151  15.367 -2.0822 -0.4133 -0.1326
 6355TIP3    H240481   1.371   1.152  15.274 -0.8531  0.7735  1.4140
 6356TIP3   OH240482   3.351   1.087  16.161  0.1189 -0.4668 -0.5988
 6356TIP3    H140483   3.343   1.174  16.121 -1.8125 -0.5833 -0.5736
 6356TIP3    H240484   3.444   1.065  16.153  0.3671  0.9270 -2.0146
 6357TIP3   OH240485   5.097   1.111   0.869  0.4388  0.1456 -0.0579
 6357TIP3    H140486   5.093   1.161   0.951  1.4671  0.6352 -0.2837
 6357TIP3    H240487   5.034   1.040   0.880  0.7475  0.0547  1.2610
 6358TIP3   OH240488   3.999   1.999   2.103  0.5190  0.1083  0.1713
 6358TIP3    H140489   4.080   2.002   2.052  2.4243  1.6307  3.0319
 6358TIP3    H240490   3.949   2.075   2.072  1.0087  0.2315 -0.3531
 6359TIP3   OH240491   1.065   0.693   3.997  0.0279  0.2230 -0.0208
 6359TIP3    H140492   1.037   0.761   3.935 -0.0372  0.0911 -0.1364
 6359TIP3    H240493   0.985   0.664   4.040  0.1363  0.6648  0.4854
 6360TIP3   OH240494   5.503   1.327   1.077  0.3273  0.2304 -0.0457
 6360TIP3    H140495   5.503   1.359   0.987 -2.1138 -0.8641 -0.5284
 6360TIP3    H240496   5.593   1.298   1.093  0.2832 -1.9373 -3.0568
 6361TIP3   OH240497   5.546   1.827   4.760 -0.1089 -0.1486 -0.1292
 6361TIP3    H140498   5.461   1.865   4.740 -0.4596  0.0093  1.5279
 6361TIP3    H240499   5.596   1.837   4.679 -1.5682 -0.0256 -1.0534
 6362TIP3   OH240500   0.414   6.764  15.743 -0.9765 -0.5987  0.0809
 6362TIP3    H140501   0.348   6.833  15.737 -2.0607 -1.6948 -1.3229
 6362TIP3    H240502   0.480   6.799  15.803 -1.5020  1.6374 -0.5379
 6363TIP3   OH240503   6.616   2.202   1.881  0.3843  0.8822  0.2039
 6363TIP3    H140504   6.687   2.220   1.943  2.0178 -4.8418  0.6726
 6363TIP3    H240505   6.572   2.125   1.918 -2.3276  0.6806 -2.9848
 6364TIP3   OH240506   3.316   1.698  15.991  0.5189  0.2368 -0.0173
 6364TIP3    H140507   3.321   1.781  16.037 -2.1332 -0.6849  2.2483
 6364TIP3    H240508   3.262   1.642  16.048  0.8530 -2.5267 -2.1704
 6365TIP3   OH240509   4.127   4.050   3.177  0.3411  0.8214  0.2114
 6365TIP3    H140510   4.149   4.104   3.253  0.2001  0.7061  0.3363
 6365TIP3    H240511   4.114   3.962   3.214  0.4956  0.7199  0.0205
 6366TIP3   OH240512   4.023   5.821  10.704 -0.3828  0.8543 -0.6876
 6366TIP3    H140513   3.991   5.910  10.685 -1.4811  0.6331  0.0450
 6366TIP3    H240514   4.103   5.836  10.756 -1.6831  1.4746  1.2769
 6367TIP3   OH240515   1.122   1.056  12.240  0.5376 -0.0139 -0.2186
 6367TIP3    H140516   1.144   1.094  12.325 -0.4892  1.1627 -0.4414
 6367TIP3    H240517   1.089   0.968  12.260  0.5310  0.1686  0.5835
 6368TIP3   OH240518   2.897   6.447  13.953  0.2730 -0.2741  0.7375
 6368TIP3    H140519   2.825   6.502  13.922  1.3336  0.7354 -0.0074
 6368TIP3    H240520   2.937   6.498  14.024  0.6550 -0.5445  0.7196
 6369TIP3   OH240521   4.661   5.442  15.685  0.2900  0.5662  0.4784
 6369TIP3    H140522   4.622   5.359  15.710  0.2188  0.4744  0.0682
 6369TIP3    H240523   4.708   5.472  15.764  2.7036 -1.2114 -0.1712
 6370TIP3   OH240524   1.389   5.205  11.422  0.0256 -0.0500  0.7814
 6370TIP3    H140525   1.418   5.130  11.474 -0.6119 -1.2485 -0.5168
 6370TIP3    H240526   1.462   5.224  11.364 -0.0042 -0.0071  0.7584
 6371TIP3   OH240527   3.921   5.356  16.392  0.5074 -0.2399 -0.6186
 6371TIP3    H140528   3.885   5.439  16.361 -1.6099 -0.6001  0.6520
 6371TIP3    H240529   3.851   5.292  16.377  2.0159 -1.7966 -1.3956
 6372TIP3   OH240530   3.068   2.148   5.452  0.6599 -0.0044 -0.1245
 6372TIP3    H140531   3.102   2.201   5.524 -2.1561  2.2121 -0.2006
 6372TIP3    H240532   3.090   2.058   5.475  0.6437  0.6867  3.0842
 6373TIP3   OH240533   2.304   6.700   2.866  0.0792 -0.0537  0.4792
 6373TIP3    H140534   2.212   6.725   2.867  0.1870  0.3847 -0.0258
 6373TIP3    H240535   2.313   6.646   2.787  0.5418  1.0747 -0.2723
 6374TIP3   OH240536   4.026   5.090  12.607  0.4288 -0.0502 -0.0382
 6374TIP3    H140537   4.119   5.083  12.584  0.0857  0.2010 -1.6149
 6374TIP3    H240538   4.022   5.167  12.664  0.9251  1.2090 -1.6258
 6375TIP3   OH240539   6.120   0.931   4.783 -0.3492  0.1243 -0.0520
 6375TIP3    H140540   6.090   0.948   4.873 -1.4344  1.1729 -0.5815
 6375TIP3    H240541   6.071   0.853   4.757  0.9770 -1.0115  0.6957
 6376TIP3   OH240542   5.931   1.515   1.553  0.1395 -0.4357  0.1667
 6376TIP3    H140543   5.941   1.603   1.588 -0.9608  0.1430 -0.8960
 6376TIP3    H240544   6.015   1.472   1.571  1.5906  1.5844 -1.3850
 6377TIP3   OH240545   6.170   4.348   2.163  0.2931 -0.3055 -0.2244
 6377TIP3    H140546   6.212   4.362   2.079  0.9832  0.2544  0.2008
 6377TIP3    H240547   6.242   4.351   2.227 -0.4418  1.3785  0.5980
 6378TIP3   OH240548   6.139   0.486  11.375 -0.3866 -0.1267 -0.1187
 6378TIP3    H140549   6.108   0.433  11.302 -0.6142 -0.3491  0.1397
 6378TIP3    H240550   6.148   0.574  11.338 -1.1983 -0.0838 -0.2350
 6379TIP3   OH240551   2.604   3.738   5.129 -0.1013  0.0548  0.0270
 6379TIP3    H140552   2.631   3.659   5.176 -0.3358 -0.1915 -0.2500
 6379TIP3    H240553   2.546   3.707   5.060 -0.4557  0.5005  0.1168
 6380TIP3   OH240554   3.171   1.073  16.469  1.1180  0.0280 -0.0207
 6380TIP3    H140555   3.193   0.996  16.416  0.3175  0.2726 -0.7341
 6380TIP3    H240556   3.133   1.037  16.550  0.8890 -0.3354 -0.2876
 6381TIP3   OH240557   1.420   4.507  13.123 -0.1466 -0.1122  0.0695
 6381TIP3    H140558   1.448   4.436  13.066 -3.8558 -1.0348 -0.9170
 6381TIP3    H240559   1.494   4.567  13.125  2.0319 -2.5269 -1.5290
 6382TIP3   OH240560   6.259   4.779  16.521  0.0681 -0.1718  0.0058
 6382TIP3    H140561   6.209   4.699  16.504 -0.2432  0.4898 -2.4861
 6382TIP3    H240562   6.310   4.759  16.600 -0.2318 -2.7072 -0.3670
 6383TIP3   OH240563   4.869   5.654  13.220 -0.1788  0.2806 -0.5775
 6383TIP3    H140564   4.840   5.741  13.192 -0.2826 -0.3026 -2.4329
 6383TIP3    H240565   4.951   5.670  13.267  0.5690  1.2910 -2.1303
 6384TIP3   OH240566   2.271   3.333  12.004  0.1579 -0.0276 -0.1816
 6384TIP3    H140567   2.309   3.268  11.944  2.7496  1.5081 -0.3646
 6384TIP3    H240568   2.273   3.291  12.090  0.1036 -0.8228 -0.5560
 6385TIP3   OH240569   6.435   1.186  16.322 -0.2281  0.0376 -0.2152
 6385TIP3    H140570   6.370   1.131  16.367  0.4062 -1.5667 -1.1808
 6385TIP3    H240571   6.438   1.267  16.374 -2.8862  0.1253 -0.0781
 6386TIP3   OH240572   3.745   2.191  12.419  0.7821 -0.3048 -0.2109
 6386TIP3    H140573   3.660   2.155  12.446  0.3924  0.1093 -0.8672
 6386TIP3    H240574   3.737   2.201  12.324  1.8551 -1.0228 -0.3963
 6387TIP3   OH240575   4.240   5.992   0.831  0.0201 -0.4047 -0.2769
 6387TIP3    H140576   4.286   6.049   0.893 -0.0089 -0.4193 -0.2422
 6387TIP3    H240577   4.215   6.051   0.759 -0.6639 -0.2122  0.1018
 6388TIP3   OH240578   6.196   4.601   6.470  0.2078 -0.4464 -0.1587
 6388TIP3    H140579   6.248   4.677   6.499  0.2950 -1.1937  1.7660
 6388TIP3    H240580   6.114   4.608   6.519  0.0462 -1.3645 -0.2807
 6389TIP3   OH240581   2.314   5.156   0.311 -0.0469 -0.3048  0.2671
 6389TIP3    H140582   2.332   5.108   0.392 -0.0888 -0.3675  0.2387
 6389TIP3    H240583   2.230   5.198   0.326 -0.3794 -0.8620  0.0033
 6390TIP3   OH240584   0.970   5.304  14.041 -0.0522  0.1607  0.0424
 6390TIP3    H140585   0.905   5.329  14.106  0.0814  0.8467 -0.0814
 6390TIP3    H240586   1.052   5.340  14.074 -0.4298  3.2558 -1.9486
 6391TIP3   OH240587   0.116   2.842   0.209 -0.3068 -0.4994  0.6072
 6391TIP3    H140588   0.194   2.895   0.229 -0.2994 -0.6432  0.9616
 6391TIP3    H240589   0.070   2.834   0.293  0.3715 -2.1597  0.8571
 6392TIP3   OH240590   0.151   1.814  13.509 -0.2715  0.6400  0.1316
 6392TIP3    H140591   0.074   1.813  13.567 -1.6175 -1.4759 -1.5156
 6392TIP3    H240592   0.139   1.892  13.455 -0.9635  0.6417  0.2742
 6393TIP3   OH240593   1.565   1.035  14.220  0.0469  0.2680  1.0782
 6393TIP3    H140594   1.614   0.957  14.247  0.3205  0.7804  2.1078
 6393TIP3    H240595   1.490   1.000  14.173 -0.8296 -0.7424  3.0893
 6394TIP3   OH240596   4.863   5.450   0.502 -0.1218 -0.9962  0.4365
 6394TIP3    H140597   4.957   5.433   0.488  0.3720  0.2354  2.0025
 6394TIP3    H240598   4.825   5.445   0.414  1.3853 -1.5849 -0.2276
 6395TIP3   OH240599   0.712   6.090   5.228  0.2411 -0.3579  0.0282
 6395TIP3    H140600   0.769   6.138   5.288  0.8525 -1.4765  0.3675
 6395TIP3    H240601   0.763   6.013   5.201 -0.0853  0.0086 -1.8020
 6396TIP3   OH240602   3.391   4.413  10.905  0.2345 -0.3902 -0.1157
 6396TIP3    H140603   3.437   4.483  10.951  0.9716  0.7677 -2.4968
 6396TIP3    H240604   3.298   4.428  10.925  0.3739  1.3417 -0.6624
 6397TIP3   OH240605   3.040   0.311   0.001 -0.2857  0.1606 -0.2384
 6397TIP3    H140606   3.068   0.221  -0.017 -1.0503 -0.7300  2.4750
 6397TIP3    H240607   3.068   0.326   0.092 -0.5099  2.5444 -0.5156
 6398TIP3   OH240608   4.936   0.353   4.921  0.0663 -0.0847  0.1122
 6398TIP3    H140609   5.005   0.300   4.881 -0.3937  0.0553 -0.8764
 6398TIP3    H240610   4.969   0.372   5.009  0.6608 -1.2024  0.1468
 6399TIP3   OH240611   1.979   4.764   4.051  0.2911  0.4052  0.4622
 6399TIP3    H140612   1.966   4.839   4.109 -3.5987  0.1571  0.1593
 6399TIP3    H240613   1.978   4.688   4.108 -2.7019  0.2182  0.2721
 6400TIP3   OH240614   4.651   0.263  16.168 -0.1969  0.0974 -0.3462
 6400TIP3    H140615   4.623   0.350  16.198 -0.7683 -0.1001 -0.3130
 6400TIP3    H240616   4.718   0.237  16.231  1.2078  1.2257 -1.2955
 6401TIP3   OH240617   2.366   1.357  15.259  0.0139 -0.1917 -0.8686
 6401TIP3    H140618   2.429   1.348  15.330  1.6197  1.8099 -1.9100
 6401TIP3    H240619   2.409   1.317  15.183  0.2699  1.5224 -1.6769
 6402TIP3   OH240620   4.096   2.966   1.787  0.4360 -0.3945  0.3382
 6402TIP3    H140621   4.119   3.034   1.724 -0.3421 -0.8126 -0.4225
 6402TIP3    H240622   4.041   2.905   1.737 -0.3003 -0.6686  1.4526
 6403TIP3   OH240623   3.542   5.882  15.257 -0.5079  0.8885 -0.1607
 6403TIP3    H140624   3.575   5.810  15.203 -0.2105  0.9454 -0.0531
 6403TIP3    H240625   3.580   5.961  15.219  0.5996  0.8410  0.7958
 6404TIP3   OH240626   6.744   6.174  13.017  0.2002 -0.4322  0.3077
 6404TIP3    H140627   6.796   6.107  12.973  0.5688 -0.5900  0.9846
 6404TIP3    H240628   6.668   6.126  13.051 -0.5948 -0.1489 -0.9682
 6405TIP3   OH240629   2.479   0.780   5.302 -0.3116  0.6588 -0.2240
 6405TIP3    H140630   2.439   0.863   5.325 -0.1611  0.9901 -1.1286
 6405TIP3    H240631   2.456   0.766   5.210  0.9097  0.4313 -0.5162
 6406TIP3   OH240632   1.108   0.199  11.098 -0.2279  0.3213 -0.0813
 6406TIP3    H140633   1.013   0.209  11.088 -0.4850  0.0786  1.8413
 6406TIP3    H240634   1.121   0.104  11.094  0.0281  0.3812 -0.9016
 6407TIP3   OH240635   3.801   4.042  14.359 -0.1810  0.3458  0.0272
 6407TIP3    H140636   3.781   3.964  14.307 -1.1745  0.0715  0.7890
 6407TIP3    H240637   3.716   4.085  14.369 -0.0949  0.1557  1.7815
 6408TIP3   OH240638   6.759   1.486  11.555 -0.0824 -0.3024 -0.2171
 6408TIP3    H140639   6.836   1.526  11.596  0.0576  0.1479 -0.9024
 6408TIP3    H240640   6.744   1.539  11.477 -1.6728  0.2051  0.4096
 6409TIP3   OH240641   0.095   1.628  13.316 -0.1676  0.2115  0.2160
 6409TIP3    H140642   0.005   1.639  13.285 -0.2076 -0.3188  0.1282
 6409TIP3    H240643   0.107   1.698  13.381 -0.9311 -0.2506  0.8746
 6410TIP3   OH240644   3.562   4.989   2.504  0.6550  0.0388  0.1808
 6410TIP3    H140645   3.561   5.010   2.411  0.6386  2.9479  0.7496
 6410TIP3    H240646   3.604   5.065   2.546 -0.0874 -0.7997  2.6284
 6411TIP3   OH240647   4.384   0.808  13.605  0.9487  0.4039 -0.4821
 6411TIP3    H140648   4.406   0.895  13.639  2.1548  0.5468 -1.5536
 6411TIP3    H240649   4.326   0.826  13.530  0.3706  0.2211 -0.0858
 6412TIP3   OH240650   5.295   4.242  11.963  0.1854  0.5673  0.4416
 6412TIP3    H140651   5.325   4.328  11.992 -0.3230  0.3713  1.6237
 6412TIP3    H240652   5.367   4.182  11.985 -0.7407  0.1931  2.7177
 6413TIP3   OH240653   0.323   1.208  13.180 -0.5813  0.1296 -0.0023
 6413TIP3    H140654   0.311   1.170  13.267  0.4735 -2.9805 -1.0701
 6413TIP3    H240655   0.417   1.210  13.168 -0.7186  0.5795 -1.0785
 6414TIP3   OH240656   4.226   4.795  16.731 -0.4366 -0.1387  0.4143
 6414TIP3    H140657   4.272   4.722  16.774 -0.7284 -0.5071  0.1090
 6414TIP3    H240658   4.135   4.784  16.758 -0.7094 -0.6542 -0.6695
 6415TIP3   OH240659   3.601   2.533  11.564  0.1954 -0.4327  0.1191
 6415TIP3    H140660   3.537   2.600  11.590  0.3231 -0.2548 -0.0209
 6415TIP3    H240661   3.600   2.536  11.468  1.2819  0.4107  0.1115
 6416TIP3   OH240662   5.112   0.924   3.124 -0.2541 -0.9496 -0.1112
 6416TIP3    H140663   5.166   0.971   3.060  0.4462 -1.8572 -0.2140
 6416TIP3    H240664   5.101   0.837   3.087 -2.1456 -0.6841 -0.2722
 6417TIP3   OH240665   4.687   2.946  13.107 -0.2318  0.0137 -0.3837
 6417TIP3    H140666   4.738   2.870  13.081  0.2209  0.5811 -1.2377
 6417TIP3    H240667   4.712   3.014  13.044  0.0362  1.1321  0.8875
 6418TIP3   OH240668   4.886   1.160  17.143  0.0926 -0.5076  0.6744
 6418TIP3    H140669   4.870   1.193  17.231  1.8673 -0.2382  0.9234
 6418TIP3    H240670   4.962   1.209  17.112 -0.5508 -0.5092 -1.0727
 6419TIP3   OH240671   0.839   3.834   0.543 -0.6993 -0.2583 -0.3217
 6419TIP3    H140672   0.880   3.848   0.457  0.4903 -0.9536  0.1061
 6419TIP3    H240673   0.912   3.833   0.605 -1.7216  2.9116  1.1336
 6420TIP3   OH240674   0.382   4.642   2.453  0.0779  0.4195 -0.6821
 6420TIP3    H140675   0.372   4.598   2.369 -1.2325 -1.4589  0.3791
 6420TIP3    H240676   0.312   4.707   2.455  1.5297  2.1476 -1.9209
 6421TIP3   OH240677   5.475   3.785  16.419  0.0273 -0.2664 -0.8264
 6421TIP3    H140678   5.570   3.771  16.419 -0.0030 -1.9875  3.2576
 6421TIP3    H240679   5.464   3.879  16.407  2.2738  0.0618 -0.7251
 6422TIP3   OH240680   2.190   4.874  14.371 -0.3767  0.1855 -0.1068
 6422TIP3    H140681   2.196   4.931  14.294  0.0921 -0.1712 -0.3402
 6422TIP3    H240682   2.245   4.799  14.349 -0.1672  0.1247  0.6119
 6423TIP3   OH240683   4.740   0.437   4.756  0.0713 -0.2742  0.3686
 6423TIP3    H140684   4.696   0.511   4.797 -1.9594 -1.1150 -0.1736
 6423TIP3    H240685   4.792   0.398   4.826  0.1006  0.8701  0.9950
 6424TIP3   OH240686   0.964   1.670  12.476  0.0421  0.0212  0.3286
 6424TIP3    H140687   0.888   1.619  12.504 -0.1812  0.0167 -0.2867
 6424TIP3    H240688   1.029   1.605  12.449 -0.3473  0.0566 -0.7301
 6425TIP3   OH240689   4.499   5.706   2.180  0.0542 -0.0516  0.1111
 6425TIP3    H140690   4.459   5.665   2.104  1.6143  0.3556 -0.9783
 6425TIP3    H240691   4.564   5.642   2.211  0.6793  0.5037 -0.0171
 6426TIP3   OH240692   0.739   2.393   6.019 -0.2986 -0.0753  0.2321
 6426TIP3    H140693   0.790   2.470   5.995 -0.3271 -0.2152 -0.2907
 6426TIP3    H240694   0.725   2.402   6.113 -1.4261  1.2339 -0.0335
 6427TIP3   OH240695   3.438   3.177   0.603  0.1912 -0.6951 -0.8685
 6427TIP3    H140696   3.441   3.268   0.575  1.0153 -0.4191  0.0412
 6427TIP3    H240697   3.362   3.173   0.662 -0.0423 -0.6796 -1.1661
 6428TIP3   OH240698   3.973   1.193  13.917 -0.0537 -0.1053 -0.2149
 6428TIP3    H140699   3.960   1.262  13.852 -1.8802 -0.4597 -0.3000
 6428TIP3    H240700   4.032   1.130  13.876  2.3173  1.7544  0.1832
 6429TIP3   OH240701   5.151   2.158   1.082  0.0522  0.3388 -0.5702
 6429TIP3    H140702   5.199   2.081   1.110  1.1783  0.5826 -1.7454
 6429TIP3    H240703   5.060   2.129   1.076  0.0941 -0.2679  1.1980
 6430TIP3   OH240704   1.874   4.358  16.158 -0.1392 -1.0450  0.1853
 6430TIP3    H140705   1.933   4.319  16.222  0.4606 -1.5649 -0.6665
 6430TIP3    H240706   1.884   4.453  16.172  2.5020 -1.0148 -1.2805
 6431TIP3   OH240707   4.791   6.501  16.178 -0.0247 -0.1745  0.1092
 6431TIP3    H140708   4.880   6.534  16.165  0.2693 -0.9501  0.0899
 6431TIP3    H240709   4.800   6.439  16.251 -0.7893  0.6875  0.9665
 6432TIP3   OH240710   4.881   3.302   2.287  0.1338  0.1387 -0.0328
 6432TIP3    H140711   4.887   3.397   2.298  0.9039  0.0574  0.3656
 6432TIP3    H240712   4.971   3.275   2.267 -0.1532 -0.4618 -0.5570
 6433TIP3   OH240713   3.674   4.149   5.539  0.8585 -0.1912 -0.1192
 6433TIP3    H140714   3.721   4.217   5.490  1.6863 -0.4793  0.2581
 6433TIP3    H240715   3.660   4.188   5.626  0.6463 -0.2071 -0.1479
 6434TIP3   OH240716   1.256   4.298   0.249 -0.2109 -1.3123  0.0647
 6434TIP3    H140717   1.174   4.293   0.200 -0.6734  0.9732  0.4977
 6434TIP3    H240718   1.305   4.368   0.207  0.8252 -1.5563  0.8270
 6435TIP3   OH240719   3.698   0.176  14.886  0.5264 -1.4077 -0.7399
 6435TIP3    H140720   3.755   0.203  14.813  0.4922 -1.8647 -0.9386
 6435TIP3    H240721   3.691   0.081  14.877 -0.0977 -1.3784 -0.5929
 6436TIP3   OH240722   3.564   5.150   1.026 -0.3361  0.2390 -0.0017
 6436TIP3    H140723   3.554   5.243   1.007  0.7148  0.9762  2.6657
 6436TIP3    H240724   3.479   5.124   1.063  0.3036  0.9788  2.1295
 6437TIP3   OH240725   4.190   0.718  11.311  0.4881 -0.0016  0.0700
 6437TIP3    H140726   4.129   0.781  11.351 -1.7688 -1.2842 -1.1867
 6437TIP3    H240727   4.135   0.658  11.262  2.6388 -2.3960  0.3576
 6438TIP3   OH240728   3.916   5.368   1.702 -0.4020 -0.4672 -0.1511
 6438TIP3    H140729   4.005   5.332   1.696  0.4357  1.2400  1.0540
 6438TIP3    H240730   3.927   5.461   1.687 -1.7767 -0.0148  1.3007
 6439TIP3   OH240731   0.324   0.322  15.448 -0.0010  0.1154  0.2394
 6439TIP3    H140732   0.292   0.232  15.436 -3.2060  1.3200 -1.4200
 6439TIP3    H240733   0.404   0.325  15.397 -0.4623 -1.5115 -0.6641
 6440TIP3   OH240734   6.586   0.705  13.603 -0.8300 -0.6864  0.0144
 6440TIP3    H140735   6.560   0.700  13.695 -0.5294 -1.7079  0.0553
 6440TIP3    H240736   6.635   0.623  13.587  0.9229  0.3927 -0.4910
 6441TIP3   OH240737   1.258   0.233   5.169  0.8139  0.1005  0.2288
 6441TIP3    H140738   1.352   0.253   5.164  0.2629  3.4431  0.9617
 6441TIP3    H240739   1.218   0.293   5.107 -1.0166  0.1561  1.4029
 6442TIP3   OH240740   5.366   2.486   0.855  0.1614  0.0705 -0.4173
 6442TIP3    H140741   5.455   2.462   0.879 -0.1694  0.5763  1.4585
 6442TIP3    H240742   5.359   2.579   0.877 -0.5440  0.2735 -1.4480
 6443TIP3   OH240743   0.964   2.831   4.950 -0.1963  0.1591  0.0637
 6443TIP3    H140744   0.902   2.813   5.021 -0.6476  1.1116 -0.0691
 6443TIP3    H240745   1.003   2.746   4.929 -1.1401 -0.3812  0.4506
 6444TIP3   OH240746   0.249   1.117  16.557  0.1676 -0.9438  0.1719
 6444TIP3    H140747   0.314   1.165  16.506  1.6088 -1.8046  1.1219
 6444TIP3    H240748   0.165   1.136  16.514  1.1075 -0.2900 -1.4566
 6445TIP3   OH240749   6.021   6.660  14.526 -0.0104 -0.1594 -0.6120
 6445TIP3    H140750   6.010   6.648  14.620  1.6467  0.7392 -0.2548
 6445TIP3    H240751   6.056   6.576  14.495  1.6609  0.2551  0.0278
 6446TIP3   OH240752   1.648   6.124   0.849 -0.0309 -0.0525  0.1556
 6446TIP3    H140753   1.585   6.073   0.797  1.2698 -1.0409 -0.4995
 6446TIP3    H240754   1.668   6.200   0.794 -1.1397  0.6280  0.6606
 6447TIP3   OH240755   1.966   1.805   5.272 -0.3664 -0.1105 -0.0852
 6447TIP3    H140756   1.887   1.755   5.294 -0.2140 -0.5849 -0.5908
 6447TIP3    H240757   1.985   1.855   5.351 -1.1784  0.0129  0.0434
 6448TIP3   OH240758   2.508   4.719  16.865 -0.3139 -0.2776 -0.3319
 6448TIP3    H140759   2.532   4.793  16.809  2.0282 -0.9747 -0.3571
 6448TIP3    H240760   2.575   4.653  16.847  0.4594 -0.6265  3.1431
 6449TIP3   OH240761   0.243   2.049   1.695  0.3162  0.1957 -0.3162
 6449TIP3    H140762   0.298   2.028   1.771  1.3636  1.0435 -0.8159
 6449TIP3    H240763   0.298   2.029   1.620  1.1476  3.7780 -0.8625
 6450TIP3   OH240764   5.202   3.864   4.180 -0.3374  0.1703 -0.6242
 6450TIP3    H140765   5.285   3.873   4.132 -0.6798  1.4380 -1.0246
 6450TIP3    H240766   5.225   3.886   4.270 -0.2258  0.4737 -0.7256
 6451TIP3   OH240767   5.994   6.248   5.895  0.2485  0.0288 -0.5085
 6451TIP3    H140768   6.024   6.180   5.835  1.5640 -1.0122  1.2393
 6451TIP3    H240769   6.007   6.211   5.982  0.1036  2.1506  0.4800
 6452TIP3   OH240770   0.567   3.093  13.548  0.4683  0.3223 -0.8314
 6452TIP3    H140771   0.528   3.141  13.475 -0.7814 -1.4411 -1.3847
 6452TIP3    H240772   0.645   3.051  13.511 -1.0992 -1.9900 -1.7145
 6453TIP3   OH240773   1.485   5.452   5.787 -0.2204 -0.3684  0.7010
 6453TIP3    H140774   1.393   5.435   5.771  0.1746 -0.7886 -1.3405
 6453TIP3    H240775   1.488   5.543   5.819 -1.1615  0.4657 -1.4359
 6454TIP3   OH240776   4.421   5.894  15.856  0.3854  0.1086  0.3095
 6454TIP3    H140777   4.486   5.948  15.812 -1.3778 -0.1725 -2.9870
 6454TIP3    H240778   4.358   5.957  15.892 -0.4535  0.4083 -1.5350
 6455TIP3   OH240779   3.719   6.028  16.414  0.2793  0.0229 -0.1987
 6455TIP3    H140780   3.797   5.973  16.413 -0.7403 -1.5501  0.7411
 6455TIP3    H240781   3.680   6.015  16.328 -0.0482 -0.9355  0.0732
 6456TIP3   OH240782   6.541   4.541  17.298 -0.3393 -0.2969 -0.7998
 6456TIP3    H140783   6.480   4.615  17.301 -0.5238 -0.4501 -0.7356
 6456TIP3    H240784   6.592   4.554  17.218 -0.2304  0.0099 -0.6842
 6457TIP3   OH240785   3.124   3.248   2.325  0.3518 -0.1121 -0.4389
 6457TIP3    H140786   3.193   3.183   2.340 -0.2295 -0.7493 -0.4319
 6457TIP3    H240787   3.108   3.245   2.231 -2.4438 -2.9854 -0.0474
 6458TIP3   OH240788   2.903   6.397   4.419 -0.0697  0.3643 -0.2840
 6458TIP3    H140789   2.904   6.369   4.510  0.7638 -1.5841 -0.8309
 6458TIP3    H240790   2.943   6.483   4.420 -0.3974  0.5289  1.2247
 6459TIP3   OH240791   3.927   5.638  14.657  0.6223 -0.3398 -0.4537
 6459TIP3    H140792   4.013   5.681  14.663  0.3495  0.2669 -0.7985
 6459TIP3    H240793   3.935   5.580  14.581  0.8230 -0.5089 -0.3048
 6460TIP3   OH240794   2.389   3.239   3.989 -0.2785 -0.2916  0.2299
 6460TIP3    H140795   2.358   3.279   3.908  0.8064  1.9068  0.8278
 6460TIP3    H240796   2.311   3.230   4.044 -0.6271  0.6062 -0.1112
 6461TIP3   OH240797   4.547   5.698   3.309 -0.1637  0.4990 -0.1131
 6461TIP3    H140798   4.511   5.656   3.387 -0.8450  1.1972 -0.0455
 6461TIP3    H240799   4.492   5.775   3.295 -0.3327  0.1643 -1.5280
 6462TIP3   OH240800   0.505   1.002   4.376  0.4298 -0.5778  0.2310
 6462TIP3    H140801   0.481   0.998   4.469 -0.8766  1.5434  0.0593
 6462TIP3    H240802   0.429   1.041   4.333  1.7998  0.4572 -1.3955
 6463TIP3   OH240803   1.475   4.463   5.576  0.6147 -0.0676  0.4311
 6463TIP3    H140804   1.489   4.381   5.528 -0.2862  0.7799 -1.3594
 6463TIP3    H240805   1.391   4.496   5.544  0.9688  1.5845  1.0880
 6464TIP3   OH240806   4.298   1.344  15.511 -0.3380 -0.4880  0.1603
 6464TIP3    H140807   4.374   1.288  15.524  0.9580  1.3263  0.9587
 6464TIP3    H240808   4.301   1.369  15.419  1.6539  1.6127  0.6877
 6465TIP3   OH240809   0.188   6.443   1.379  0.4508 -0.0392 -0.0341
 6465TIP3    H140810   0.273   6.446   1.425  1.3471 -0.5289 -1.5911
 6465TIP3    H240811   0.177   6.532   1.345  1.7789 -0.6634 -2.2572
 6466TIP3   OH240812   5.880   0.529   1.402 -0.5299 -0.0456  0.2915
 6466TIP3    H140813   5.901   0.557   1.491  1.3124 -2.5082  0.7329
 6466TIP3    H240814   5.817   0.458   1.412  0.5900 -1.1592 -0.2350
 6467TIP3   OH240815   5.210   4.549   2.114  0.0634 -0.7454 -0.3711
 6467TIP3    H140816   5.285   4.599   2.146 -0.0802 -1.0567  0.4746
 6467TIP3    H240817   5.231   4.529   2.023 -1.2333  3.6052 -1.9009
 6468TIP3   OH240818   3.313   4.219  14.684 -0.4185 -0.7472 -0.3020
 6468TIP3    H140819   3.228   4.260  14.668 -0.3853 -1.0913 -1.4262
 6468TIP3    H240820   3.292   4.134  14.722 -0.4743  0.5703  2.9009
 6469TIP3   OH240821   6.343   2.477  11.956 -0.4581 -0.8313 -0.3109
 6469TIP3    H140822   6.371   2.386  11.949 -0.2071 -0.6725 -1.6786
 6469TIP3    H240823   6.398   2.524  11.893 -0.7934  0.2217  0.1506
 6470TIP3   OH240824   4.058   3.409  12.182  0.2865 -0.2246 -0.0745
 6470TIP3    H140825   4.148   3.435  12.204 -0.2385  0.9865  0.7271
 6470TIP3    H240826   4.016   3.490  12.153 -0.4167 -0.8827 -0.9631
 6471TIP3   OH240827   4.229   1.534   2.125 -0.0130 -0.0894  0.1963
 6471TIP3    H140828   4.208   1.548   2.217  1.1926 -2.4201  0.8994
 6471TIP3    H240829   4.145   1.514   2.084 -0.5358  0.8070  0.7971
 6472TIP3   OH240830   3.929   5.502  12.703  0.5618  0.5823  0.0912
 6472TIP3    H140831   3.997   5.547  12.653  0.1203 -0.0560 -1.1216
 6472TIP3    H240832   3.875   5.572  12.740  0.0721  1.0727 -1.4848
 6473TIP3   OH240833   1.887   6.184   1.131  0.3293  0.3629  0.0921
 6473TIP3    H140834   1.876   6.208   1.039 -4.4368 -1.9938 -0.2874
 6473TIP3    H240835   1.970   6.135   1.133  0.9800  1.1568 -2.7506
 6474TIP3   OH240836   5.698   5.782   4.573  0.6856  0.7390 -0.3447
 6474TIP3    H140837   5.621   5.773   4.517  0.2641 -1.8594  0.5268
 6474TIP3    H240838   5.764   5.726   4.531  1.5466  1.5874 -0.1533
 6475TIP3   OH240839   4.930   4.679   5.838  0.1882 -0.2788  0.2006
 6475TIP3    H140840   4.864   4.615   5.865 -2.8728  2.2632 -0.5528
 6475TIP3    H240841   4.953   4.655   5.748  0.1907 -1.1171  0.4237
 6476TIP3   OH240842   2.115   1.746  12.618 -0.1820 -0.0562  0.0522
 6476TIP3    H140843   2.077   1.740  12.530  0.4207 -1.7769 -0.1141
 6476TIP3    H240844   2.068   1.680  12.669  0.3375  0.0569  0.6910
 6477TIP3   OH240845   6.308   4.678  12.519 -0.4621 -0.4096  0.5541
 6477TIP3    H140846   6.253   4.701  12.594  1.6798  0.7338  1.8652
 6477TIP3    H240847   6.398   4.692  12.549  0.5144 -0.3976 -2.0717
 6478TIP3   OH240848   4.001   0.811   1.442 -0.4311 -0.1020 -0.4907
 6478TIP3    H140849   4.076   0.870   1.452 -0.4461 -0.3958  1.8892
 6478TIP3    H240850   3.942   0.834   1.513 -1.8819 -0.9760 -1.3463
 6479TIP3   OH240851   1.179   2.608   6.056 -0.0256 -0.5076 -1.1383
 6479TIP3    H140852   1.211   2.518   6.061 -0.7141 -0.7390 -0.6643
 6479TIP3    H240853   1.258   2.662   6.058  0.3516 -1.0471  0.2069
 6480TIP3   OH240854   6.230   4.169   0.255 -0.1425 -0.6718  0.2376
 6480TIP3    H140855   6.288   4.245   0.255  2.1196 -2.2246  2.5716
 6480TIP3    H240856   6.149   4.200   0.297  0.0455  0.8306 -0.4594
 6481TIP3   OH240857   1.038   0.703   0.713  0.6150  0.2965 -0.6689
 6481TIP3    H140858   1.055   0.669   0.625  1.3939 -0.4293 -0.2513
 6481TIP3    H240859   1.113   0.673   0.765  0.1861  0.7585  0.2316
 6482TIP3   OH240860   6.760   0.462  14.462 -0.1160  0.1678 -0.3039
 6482TIP3    H140861   6.834   0.444  14.520 -0.7583 -0.1687  0.4352
 6482TIP3    H240862   6.785   0.541  14.415 -0.1950  1.3295  1.5272
 6483TIP3   OH240863   6.697   5.055  12.145  0.0366  0.0109  0.4140
 6483TIP3    H140864   6.628   4.990  12.159  0.1803 -0.0857  0.6705
 6483TIP3    H240865   6.684   5.119  12.215 -1.4435  1.4220 -1.0473
 6484TIP3   OH240866   3.567   6.535   0.507 -0.1309  0.2173  0.0500
 6484TIP3    H140867   3.635   6.468   0.516  0.7032  0.7812 -1.6758
 6484TIP3    H240868   3.513   6.505   0.433 -0.5088  0.8016  0.0788
 6485TIP3   OH240869   0.795   4.545   2.110 -0.0342 -0.1927 -0.0188
 6485TIP3    H140870   0.888   4.523   2.121  0.3681  2.3124  3.7300
 6485TIP3    H240871   0.750   4.488   2.172 -1.0545 -1.1861 -1.6106
 6486TIP3   OH240872   3.993   3.356  12.914 -0.5285  0.3569  0.4689
 6486TIP3    H140873   4.083   3.341  12.943  0.2973 -0.4307 -2.2053
 6486TIP3    H240874   3.995   3.441  12.869 -1.3499  0.7414  1.1175
 6487TIP3   OH240875   2.725   5.412   1.977  0.0677 -0.4115  0.2209
 6487TIP3    H140876   2.672   5.393   1.900  0.5426 -2.4113  0.3346
 6487TIP3    H240877   2.664   5.454   2.038 -0.8086 -0.5966 -0.5003
 6488TIP3   OH240878   3.677   1.434   5.832  0.0572 -0.2552  0.2503
 6488TIP3    H140879   3.615   1.505   5.816 -1.1270 -0.8348  1.8916
 6488TIP3    H240880   3.720   1.419   5.748 -0.8687  1.2685 -0.5316
 6489TIP3   OH240881   5.607   1.185  14.843 -0.2950 -0.0306  0.6263
 6489TIP3    H140882   5.543   1.184  14.914 -0.8210 -1.9297  0.1820
 6489TIP3    H240883   5.624   1.278  14.827 -1.7662  0.4784  1.7949
 6490TIP3   OH240884   3.295   4.443   0.615 -0.3092  0.0087  0.0577
 6490TIP3    H140885   3.341   4.395   0.546  1.8282  0.0993  1.3452
 6490TIP3    H240886   3.242   4.377   0.659  1.0696 -0.8133  0.5520
 6491TIP3   OH240887   2.051   5.043  11.812  0.2693  0.0640  0.1526
 6491TIP3    H140888   2.085   4.992  11.885 -1.3731 -2.7931 -0.9169
 6491TIP3    H240889   2.124   5.049  11.750  0.5509 -0.8284  0.3944
 6492TIP3   OH240890   2.659   3.748  14.934 -0.1035  0.5591 -1.2655
 6492TIP3    H140891   2.654   3.673  14.874  0.5779  0.3084 -1.0248
 6492TIP3    H240892   2.580   3.742  14.987  1.0278 -1.3772  0.3509
 6493TIP3   OH240893   3.154   4.088   1.686  0.2421  0.2368  0.3635
 6493TIP3    H140894   3.109   4.058   1.765  2.1274 -0.9434  1.0685
 6493TIP3    H240895   3.106   4.048   1.614  0.0561 -0.8891  1.0812
 6494TIP3   OH240896   5.372   4.032  12.678  0.6054 -0.4859  0.0422
 6494TIP3    H140897   5.446   4.078  12.639  0.6231 -1.4061 -1.0599
 6494TIP3    H240898   5.411   3.953  12.716  0.3370 -0.4554  0.3830
 6495TIP3   OH240899   2.766   6.199   0.175 -0.5197  0.2076 -0.1129
 6495TIP3    H140900   2.718   6.141   0.234 -1.0929  0.1708 -0.6038
 6495TIP3    H240901   2.825   6.248   0.232 -0.4535 -0.4370  0.3799
 6496TIP3   OH240902   3.173   0.840   0.002  0.0723 -0.0479  0.7850
 6496TIP3    H140903   3.124   0.923  -0.003  0.8496  0.6060  3.0672
 6496TIP3    H240904   3.106   0.773  -0.011 -0.7752  0.8956  0.0569
 6497TIP3   OH240905   6.040   2.441  17.062  0.3466 -0.4727 -0.2316
 6497TIP3    H140906   6.097   2.506  17.103  1.5451 -0.3195 -1.9860
 6497TIP3    H240907   5.998   2.488  16.990  0.5648 -1.3780 -0.9827
 6498TIP3   OH240908   5.433   2.000   5.325 -0.5011  0.4306  0.1086
 6498TIP3    H140909   5.400   2.082   5.361 -1.2196  0.2899 -0.2084
 6498TIP3    H240910   5.526   2.017   5.307 -0.2982  0.7158  1.3555
 6499TIP3   OH240911   0.938   2.213  16.859 -0.1583  0.3482  0.6646
 6499TIP3    H140912   0.981   2.252  16.934 -1.8755  1.6031  1.0626
 6499TIP3    H240913   0.957   2.119  16.867  1.8847  0.7569  1.1397
 6500TIP3   OH240914   0.985   5.101  16.879 -0.0769  0.3242  0.7518
 6500TIP3    H140915   0.976   5.095  16.784  0.3210  2.5878  0.5178
 6500TIP3    H240916   1.078   5.085  16.895 -0.6654 -3.5926  1.2084
 6501TIP3   OH240917   1.714   5.137   2.709 -0.1914  0.0932 -0.3488
 6501TIP3    H140918   1.634   5.112   2.662 -1.2846  0.3579  1.2595
 6501TIP3    H240919   1.712   5.233   2.710  0.3815  0.1119 -0.6555
 6502TIP3   OH240920   2.527   1.321   0.649  0.2153  0.2933 -0.3114
 6502TIP3    H140921   2.433   1.309   0.636 -0.2019  2.2479  0.5073
 6502TIP3    H240922   2.543   1.291   0.739  0.5190 -0.6881 -0.6862
 6503TIP3   OH240923   1.335   5.239   3.558  0.0367  0.4455  0.2570
 6503TIP3    H140924   1.245   5.242   3.525  0.5745  1.9786 -1.2513
 6503TIP3    H240925   1.330   5.187   3.638 -1.8054 -1.3188 -0.9042
 6504TIP3   OH240926   2.747   2.839   5.205 -0.2266 -0.5272  0.3145
 6504TIP3    H140927   2.682   2.772   5.186 -0.6656  0.2946 -1.2847
 6504TIP3    H240928   2.831   2.797   5.187 -0.5657 -0.1958 -2.5218
 6505TIP3   OH240929   3.918   1.426   2.338 -0.1657 -0.3445  0.6342
 6505TIP3    H140930   3.841   1.391   2.384 -2.0887  0.5597 -1.7041
 6505TIP3    H240931   3.925   1.516   2.368 -0.9615  0.0148 -0.1959
 6506TIP3   OH240932   4.884   1.403  16.744  0.2657  0.1132  0.4927
 6506TIP3    H140933   4.801   1.417  16.698  0.0405 -1.4463  0.3417
 6506TIP3    H240934   4.887   1.472  16.810 -0.7552  0.6951 -0.0408
 6507TIP3   OH240935   1.623   4.983   5.053  0.5293  0.2872 -0.2475
 6507TIP3    H140936   1.545   4.972   4.998  1.2178 -1.7539 -0.9072
 6507TIP3    H240937   1.639   5.078   5.053 -1.5362  0.6797 -0.6478
 6508TIP3   OH240938   0.097   1.275  12.979  0.4976  0.3271  0.0685
 6508TIP3    H140939   0.130   1.216  13.047 -0.4596  0.3414  0.5590
 6508TIP3    H240940   0.091   1.360  13.022  1.0030  0.5995 -0.3806
 6509TIP3   OH240941   3.072   3.397   5.753 -0.2155  0.1080  0.1753
 6509TIP3    H140942   3.041   3.310   5.776 -2.1824  0.2396 -1.6817
 6509TIP3    H240943   3.150   3.381   5.699  0.9589 -0.3444  1.9015
 6510TIP3   OH240944   5.978   6.248  12.085  0.1372 -0.0781  0.0809
 6510TIP3    H140945   5.919   6.181  12.119 -0.2208 -0.0608 -0.4830
 6510TIP3    H240946   5.950   6.260  11.994 -0.2742  1.3296  0.3690
 6511TIP3   OH240947   6.195   4.490   0.128  0.0335  0.1905  0.6315
 6511TIP3    H140948   6.189   4.554   0.200  3.2509 -0.3313  1.5104
 6511TIP3    H240949   6.105   4.462   0.114 -1.0115  2.0780  2.8324
 6512TIP3   OH240950   2.251   6.394  13.341  0.8983  0.5351 -0.1905
 6512TIP3    H140951   2.201   6.448  13.403  1.6478  3.5145 -1.9917
 6512TIP3    H240952   2.184   6.348  13.291  0.0871  1.5040 -0.0472
 6513TIP3   OH240953   6.029   0.208   4.052 -0.2839  0.4820 -0.8792
 6513TIP3    H140954   6.023   0.204   4.147  0.2396  0.3336 -0.8461
 6513TIP3    H240955   6.037   0.302   4.032  0.1616  0.4794 -0.7316
 6514TIP3   OH240956   4.829   0.046  15.802 -0.3120 -0.6202 -0.0546
 6514TIP3    H140957   4.827   0.054  15.707 -0.7653 -0.4526 -0.0360
 6514TIP3    H240958   4.797   0.131  15.833 -0.6158 -0.8380  0.2357
 6515TIP3   OH240959   1.531   0.147  16.381  0.0366 -0.7945  0.0646
 6515TIP3    H140960   1.585   0.077  16.343  0.9715  0.1839 -0.4650
 6515TIP3    H240961   1.513   0.205  16.308 -5.0052 -2.9007 -0.7653
 6516TIP3   OH240962   5.658   1.912  14.753  0.1281 -0.0623  0.0449
 6516TIP3    H140963   5.641   1.995  14.797 -1.7335  0.4546 -1.5169
 6516TIP3    H240964   5.687   1.853  14.823  0.6617  1.6585  1.3181
 6517TIP3   OH240965   2.061   4.120   0.793 -0.0564 -0.3448  0.7634
 6517TIP3    H140966   1.997   4.191   0.788  0.0111 -0.3477 -0.8590
 6517TIP3    H240967   2.037   4.061   0.721  1.3252 -0.7196  0.5802
 6518TIP3   OH240968   5.562   1.411  16.278 -0.0410  0.0652  0.3316
 6518TIP3    H140969   5.617   1.439  16.351  0.9179  1.9942 -1.0363
 6518TIP3    H240970   5.533   1.492  16.237  1.2656 -0.8509 -2.7219
 6519TIP3   OH240971   0.370   2.349  13.151 -0.0175  0.1842 -0.1651
 6519TIP3    H140972   0.443   2.296  13.120  2.9907  2.9202  1.4975
 6519TIP3    H240973   0.356   2.319  13.241  0.7783  1.1827  0.3204
 6520TIP3   OH240974   4.514   3.542  13.429 -0.1682  0.0420 -0.2893
 6520TIP3    H140975   4.558   3.462  13.458 -0.3547 -0.1641 -0.5672
 6520TIP3    H240976   4.421   3.525  13.447 -0.1240  0.5396  0.4570
 6521TIP3   OH240977   0.031   3.087  13.795 -0.1101  0.1126  0.1569
 6521TIP3    H140978   0.035   3.007  13.848  1.0746 -0.4553 -0.7581
 6521TIP3    H240979   0.006   3.156  13.857 -0.8084 -0.9014  1.0226
 6522TIP3   OH240980   4.979   2.591   6.028  0.4796 -0.0915  0.1145
 6522TIP3    H140981   5.019   2.676   6.047 -2.2894  1.7185 -1.5335
 6522TIP3    H240982   4.912   2.580   6.095  0.7300 -0.9619  0.2347
 6523TIP3   OH240983   4.519   0.794   3.743  0.1286 -0.2091 -0.0820
 6523TIP3    H140984   4.504   0.843   3.663  0.1618 -0.3461 -0.1714
 6523TIP3    H240985   4.433   0.761   3.768 -0.3750  1.9331  1.3112
 6524TIP3   OH240986   5.789   1.532  15.372 -0.0096 -0.0069  0.3661
 6524TIP3    H140987   5.733   1.523  15.296 -1.0336  0.3119  1.0525
 6524TIP3    H240988   5.737   1.496  15.444 -0.5200  2.7406  1.5170
 6525TIP3   OH240989   2.489   3.001   4.156 -0.0785  0.3087 -0.1067
 6525TIP3    H140990   2.493   2.910   4.127 -0.2160  0.1314  0.4183
 6525TIP3    H240991   2.470   3.051   4.077  0.1782 -0.1025 -0.4284
 6526TIP3   OH240992   2.703   5.387   6.179 -0.8749  0.1973 -0.1492
 6526TIP3    H140993   2.794   5.357   6.180 -0.7621  0.5429 -0.1149
 6526TIP3    H240994   2.660   5.333   6.245 -1.4622 -2.3593 -2.4494
 6527TIP3   OH240995   6.184   1.637   6.010  0.5299 -0.1211  0.4564
 6527TIP3    H140996   6.243   1.607   6.079  1.0328 -0.9165 -0.2947
 6527TIP3    H240997   6.096   1.621   6.044  0.7636 -2.5275  0.1034
 6528TIP3   OH240998   1.202   3.126   3.239 -0.3682 -0.4920 -0.1406
 6528TIP3    H140999   1.290   3.155   3.265 -0.0178 -0.7985 -0.9587
 6528TIP3    H241000   1.151   3.207   3.235 -0.2999 -0.3824  0.9711
 6529TIP3   OH241001   0.833   5.251   1.128  0.0906 -0.8572  0.7099
 6529TIP3    H141002   0.914   5.279   1.086 -0.8983  0.4518 -0.4113
 6529TIP3    H241003   0.797   5.184   1.070 -0.1899 -0.6341  0.6269
 6530TIP3   OH241004   4.808   3.402   4.190 -0.5722 -0.1717  0.0953
 6530TIP3    H141005   4.747   3.332   4.170 -0.2658  0.1943 -2.4395
 6530TIP3    H241006   4.758   3.483   4.175  0.4200  0.1303 -1.8737
 6531TIP3   OH241007   2.636   5.465   5.843  0.0191  0.1877 -0.0401
 6531TIP3    H141008   2.699   5.537   5.850 -0.9225  0.9343  1.3452
 6531TIP3    H241009   2.690   5.388   5.827  1.0737  1.1542 -1.4268
 6532TIP3   OH241010   4.768   4.935  15.746 -0.4320 -0.1781  0.0035
 6532TIP3    H141011   4.674   4.930  15.764 -0.7288  0.1203 -1.3434
 6532TIP3    H241012   4.801   5.000  15.807 -1.6181  1.7479 -1.3182
 6533TIP3   OH241013   3.109   6.435   1.820  0.1677 -0.1522 -0.1024
 6533TIP3    H141014   3.172   6.368   1.794  0.2560 -0.4063  0.7142
 6533TIP3    H241015   3.122   6.506   1.757  1.8684  0.1486  0.5144
 6534TIP3   OH241016   0.034   3.500   5.133 -0.2839  0.4481 -0.2099
 6534TIP3    H141017  -0.005   3.505   5.221 -0.8335 -2.2208 -0.2110
 6534TIP3    H241018  -0.038   3.475   5.076  0.6320 -0.8367 -0.8667
 6535TIP3   OH241019   3.250   3.805  15.341 -0.1439  0.0654 -0.6150
 6535TIP3    H141020   3.209   3.892  15.338 -0.4379 -0.0322  0.3404
 6535TIP3    H241021   3.195   3.754  15.400  1.9063  0.2459  1.6010
 6536TIP3   OH241022   5.477   5.282  16.358  0.3537 -0.4669  0.0461
 6536TIP3    H141023   5.494   5.349  16.425  1.6875 -1.2736  0.5519
 6536TIP3    H241024   5.512   5.201  16.395 -1.6369 -1.5667 -0.3737
 6537TIP3   OH241025   2.581   2.532  14.987  0.6970 -0.0520 -0.0172
 6537TIP3    H141026   2.488   2.545  14.967  0.6099 -0.9019 -0.1786
 6537TIP3    H241027   2.583   2.457  15.046  1.1924  0.6806  0.9447
 6538TIP3   OH241028   6.423   5.671  11.731  1.0846 -0.2657  0.6504
 6538TIP3    H141029   6.338   5.632  11.711  0.7420  0.8034 -0.0451
 6538TIP3    H241030   6.409   5.715  11.815  0.5113  1.1314 -0.1473
 6539TIP3   OH241031   1.675   6.339  16.952 -0.0471  0.6859 -0.0396
 6539TIP3    H141032   1.669   6.244  16.944 -0.5681  0.5124  1.9657
 6539TIP3    H241033   1.768   6.358  16.936  0.0959 -0.1756 -0.2975
 6540TIP3   OH241034   0.934   2.692   1.704  0.6944  0.1389  0.0328
 6540TIP3    H141035   0.922   2.766   1.764  0.7778 -0.0401  0.2706
 6540TIP3    H241036   0.848   2.649   1.701  1.2812 -1.3434  2.0000
 6541TIP3   OH241037   1.921   0.796  14.106  0.0163  0.0287 -0.1910
 6541TIP3    H141038   1.879   0.747  14.036  0.3760 -0.2874 -0.1888
 6541TIP3    H241039   1.977   0.859  14.061 -3.8701  3.7953 -0.4170
 6542TIP3   OH241040   2.952   5.134  14.902 -0.9403  0.4653 -0.6806
 6542TIP3    H141041   2.862   5.133  14.935 -0.8129 -2.7210 -0.1254
 6542TIP3    H241042   3.002   5.178  14.971 -1.7723  0.4418 -0.0485
 6543TIP3   OH241043   6.350   2.199  14.751  0.5468  0.4235  0.3596
 6543TIP3    H141044   6.306   2.159  14.826  2.7923 -0.0434  1.5040
 6543TIP3    H241045   6.288   2.189  14.679 -0.3766 -2.1105  1.3885
 6544TIP3   OH241046   2.633   2.082  13.115 -0.1148  0.0510 -0.0319
 6544TIP3    H141047   2.654   2.073  13.208  1.1601 -1.0365 -0.3980
 6544TIP3    H241048   2.650   1.996  13.077  0.4941  0.7672 -1.4806
 6545TIP3   OH241049   6.186   2.995   3.308 -0.6771  0.4617  0.6977
 6545TIP3    H141050   6.142   2.917   3.274 -1.3405  1.8688 -1.9054
 6545TIP3    H241051   6.121   3.033   3.368 -1.2308  0.1881  0.2836
 6546TIP3   OH241052   5.977   3.607  15.003 -0.1683 -0.0429  0.4244
 6546TIP3    H141053   5.979   3.629  14.909 -1.1705 -0.5786  0.2618
 6546TIP3    H241054   5.973   3.511  15.005 -1.5376  0.0021  0.9586
 6547TIP3   OH241055   1.044   0.391   6.419  0.6539  0.3393 -0.0847
 6547TIP3    H141056   0.979   0.440   6.468  1.6544 -0.1370  1.8249
 6547TIP3    H241057   1.062   0.445   6.341 -1.7435  0.6050 -0.5229
 6548TIP3   OH241058   0.480   3.696   1.908 -0.7553  0.1217  0.2004
 6548TIP3    H141059   0.496   3.614   1.862 -0.2891  0.7116 -0.7115
 6548TIP3    H241060   0.528   3.687   1.991  0.8336  0.1975 -0.6789
 6549TIP3   OH241061   4.984   4.779   2.907 -0.0830  0.4746 -0.4139
 6549TIP3    H141062   5.017   4.709   2.850 -0.3328  0.3651 -0.4229
 6549TIP3    H241063   4.938   4.733   2.977  2.2063  0.4517  1.2102
 6550TIP3   OH241064   0.243   2.979  12.956  0.0328 -0.4711 -0.1230
 6550TIP3    H141065   0.237   2.944  13.045 -2.2540 -0.9951 -0.4053
 6550TIP3    H241066   0.191   2.918  12.903  0.8507  0.1554 -1.7166
 6551TIP3   OH241067   3.317   5.307  12.957  0.2292 -0.1915 -0.2797
 6551TIP3    H141068   3.292   5.227  12.910 -1.0237  0.1817 -0.2710
 6551TIP3    H241069   3.241   5.328  13.010  0.7238  0.7665  0.0637
 6552TIP3   OH241070   6.689   1.009   3.406  0.3535 -0.0877  0.3275
 6552TIP3    H141071   6.721   0.921   3.422 -0.0128 -0.3708 -0.4460
 6552TIP3    H241072   6.678   1.047   3.493  1.7785 -0.3370  0.6361
 6553TIP3   OH241073   5.604   4.363  16.511 -0.5715  0.3399 -0.5792
 6553TIP3    H141074   5.666   4.293  16.490  0.3372  0.8714  0.2290
 6553TIP3    H241075   5.613   4.376  16.605 -1.3372  0.9774 -0.5777
 6554TIP3   OH241076   3.869   6.343  13.409  0.1337  0.8252  0.1782
 6554TIP3    H141077   3.796   6.379  13.459 -0.2973  0.1199  0.0555
 6554TIP3    H241078   3.912   6.421  13.372 -0.3325  1.2660  0.5385
 6555TIP3   OH241079   1.932   4.292  14.951  0.6165 -0.5044  0.3635
 6555TIP3    H141080   1.918   4.200  14.927  0.3387 -0.2991 -0.2888
 6555TIP3    H241081   1.937   4.292  15.047  1.7534 -1.3512  0.3100
 6556TIP3   OH241082   4.597   3.449  11.307 -0.1954 -0.1237  0.5831
 6556TIP3    H141083   4.505   3.428  11.325 -0.9568  0.5099 -2.1532
 6556TIP3    H241084   4.646   3.399  11.372 -2.4241 -1.3958  1.3883
 6557TIP3   OH241085   1.903   1.537   0.578  0.5289  0.4090 -1.2264
 6557TIP3    H141086   1.834   1.568   0.520  1.4005  1.2949 -1.8095
 6557TIP3    H241087   1.931   1.454   0.539  0.5102  0.5608 -1.5607
 6558TIP3   OH241088   0.038   5.295  15.494 -0.1134  0.5638  0.2996
 6558TIP3    H141089  -0.031   5.332  15.439 -0.6676  0.6511  1.0560
 6558TIP3    H241090  -0.003   5.282  15.579  0.7294  0.3751  0.6820
 6559TIP3   OH241091   0.394   4.571  13.574 -0.1561 -0.1758 -0.3598
 6559TIP3    H141092   0.400   4.484  13.534  0.5162  0.9473 -2.8481
 6559TIP3    H241093   0.436   4.561  13.660  0.9622 -2.0210 -1.0743
 6560TIP3   OH241094   2.634   3.475  12.928  0.1642  0.3260  0.6439
 6560TIP3    H141095   2.627   3.501  12.836  1.6342  0.1550  0.4479
 6560TIP3    H241096   2.604   3.551  12.977  3.5698  2.2632  0.0804
 6561TIP3   OH241097   5.574   6.196  14.198 -0.2425 -0.3893  0.0415
 6561TIP3    H141098   5.648   6.223  14.144 -0.4631  0.7122  0.2750
 6561TIP3    H241099   5.512   6.157  14.137  0.2328 -0.7028 -0.2488
 6562TIP3   OH241100   3.919   5.859  16.461 -0.1280 -0.1317 -0.3815
 6562TIP3    H141101   3.987   5.812  16.414  0.3393 -1.0379  1.1319
 6562TIP3    H241102   3.967   5.923  16.514 -0.5178 -0.1125 -0.0444
 6563TIP3   OH241103   0.250   3.548   3.399  0.1128  0.2821  0.8491
 6563TIP3    H141104   0.281   3.459   3.415 -2.5261 -1.1888 -1.5746
 6563TIP3    H241105   0.313   3.584   3.337  0.0795 -0.6537  0.2565
 6564TIP3   OH241106   0.200   1.284   1.948  0.5218  0.0451  0.2030
 6564TIP3    H141107   0.199   1.200   1.903  1.1428  0.7522 -1.1901
 6564TIP3    H241108   0.268   1.274   2.015  0.0056 -0.8252  0.6162
 6565TIP3   OH241109   4.598   6.173   3.675 -0.1422  0.5569  0.4177
 6565TIP3    H141110   4.687   6.194   3.645  0.6876 -0.0731  2.3063
 6565TIP3    H241111   4.542   6.203   3.603  1.5436  1.3747 -0.6468
 6566TIP3   OH241112   5.553   6.223   5.082  0.0617  0.1702  0.1640
 6566TIP3    H141113   5.468   6.208   5.123  0.3407 -1.8879  0.0988
 6566TIP3    H241114   5.539   6.205   4.990  0.1443  1.7860 -0.1920
 6567TIP3   OH241115   5.434   1.259   3.257 -0.2063 -0.3980 -0.1966
 6567TIP3    H141116   5.492   1.325   3.219 -1.0312 -0.2530 -1.2458
 6567TIP3    H241117   5.421   1.195   3.186 -0.9044 -0.7049  0.2020
 6568TIP3   OH241118   6.181   4.133   3.012 -0.6562 -0.7126 -0.4505
 6568TIP3    H141119   6.140   4.217   2.990 -1.0985 -1.2264 -1.6512
 6568TIP3    H241120   6.114   4.086   3.061 -0.0613 -0.0128  1.1324
 6569TIP3   OH241121   1.831   2.013  15.529 -0.2176 -0.2724  0.0355
 6569TIP3    H141122   1.926   2.003  15.519 -0.2804 -0.3928 -0.4491
 6569TIP3    H241123   1.793   1.951  15.467 -0.6125  1.0670 -1.1293
 6570TIP3   OH241124   1.193   4.172   4.577 -0.1466 -0.8938  0.1908
 6570TIP3    H141125   1.160   4.089   4.542  0.3876 -0.8875 -0.3363
 6570TIP3    H241126   1.241   4.211   4.505 -0.0154 -0.3294  0.5774
 6571TIP3   OH241127   6.422   1.359   4.653  0.0932 -0.1203  0.0273
 6571TIP3    H141128   6.367   1.423   4.698  1.8041  0.9503  0.7117
 6571TIP3    H241129   6.448   1.402   4.571  0.4759 -0.3130  0.0426
 6572TIP3   OH241130   1.412   3.838   5.561 -0.1108  0.3325  0.0634
 6572TIP3    H141131   1.336   3.865   5.510  2.2056  1.4656 -3.0603
 6572TIP3    H241132   1.456   3.920   5.585  0.3425 -0.3022  1.5532
 6573TIP3   OH241133   5.353   4.767   4.835 -0.2601  0.4534 -0.3396
 6573TIP3    H141134   5.364   4.790   4.928  2.3332  0.2434 -0.5179
 6573TIP3    H241135   5.286   4.698   4.835  1.6312 -1.5399  1.7525
 6574TIP3   OH241136   4.324   0.165   0.863 -0.2159  0.5099 -0.0936
 6574TIP3    H141137   4.369   0.206   0.936 -0.9160  2.6499 -0.7800
 6574TIP3    H241138   4.252   0.225   0.842 -1.0627 -0.8855 -1.4500
 6575TIP3   OH241139   5.731   2.800   3.381 -0.2021  0.3919 -0.2109
 6575TIP3    H141140   5.717   2.744   3.305 -1.4239  1.8087 -1.0848
 6575TIP3    H241141   5.736   2.889   3.345 -0.0888  1.0246  1.2875
 6576TIP3   OH241142   6.055   6.276   1.758  0.3852 -0.3674  0.1809
 6576TIP3    H141143   6.049   6.313   1.846  0.3077 -1.4480  0.6451
 6576TIP3    H241144   5.965   6.264   1.730  0.4092 -0.2625  0.0572
 6577TIP3   OH241145   0.010   2.345  17.110 -0.2263  0.6582 -0.1873
 6577TIP3    H141146   0.050   2.262  17.086  0.4685  0.8913  0.1476
 6577TIP3    H241147  -0.063   2.355  17.049 -0.5136 -0.3477 -0.0272
 6578TIP3   OH241148   6.712   4.011   5.678 -0.1535 -0.1440  0.2222
 6578TIP3    H141149   6.778   4.063   5.725  0.0791 -0.0201 -0.2423
 6578TIP3    H241150   6.686   4.065   5.604 -1.3318  0.1239  0.8055
 6579TIP3   OH241151   5.674   2.561  13.162  0.2264  0.2987  0.2161
 6579TIP3    H141152   5.745   2.518  13.209 -0.5497  0.4866  1.6335
 6579TIP3    H241153   5.595   2.538  13.212 -0.2389  3.2399  1.0635
 6580TIP3   OH241154   4.259   5.301   3.769 -0.5019 -0.3275  0.7991
 6580TIP3    H141155   4.322   5.372   3.777 -0.6857 -0.0244 -0.2979
 6580TIP3    H241156   4.199   5.315   3.842 -0.4282  0.5328  0.7109
 6581TIP3   OH241157   4.507   6.572  15.539 -0.2338 -0.2856 -0.0679
 6581TIP3    H141158   4.422   6.530  15.553 -0.1828 -0.9597 -1.5898
 6581TIP3    H241159   4.570   6.509  15.575 -0.2980 -0.4305 -0.2077
 6582TIP3   OH241160   5.257   4.782   5.702 -0.0546 -0.3960  0.1715
 6582TIP3    H141161   5.328   4.846   5.704 -0.6186  0.3111  3.5261
 6582TIP3    H241162   5.248   4.755   5.793 -5.2469  0.8950  0.3123
 6583TIP3   OH241163   4.202   2.043  14.455  0.1903 -0.2383 -0.2461
 6583TIP3    H141164   4.162   2.126  14.428 -0.3238 -0.2414  0.4964
 6583TIP3    H241165   4.289   2.068  14.488 -0.0116  0.0191  0.0895
 6584TIP3   OH241166   2.340   2.433  14.026  0.0203  0.0248 -0.1983
 6584TIP3    H141167   2.352   2.360  14.086  0.3283  0.1819 -0.0679
 6584TIP3    H241168   2.384   2.406  13.946  0.4177  0.2027 -0.0409
 6585TIP3   OH241169   2.799   5.825  16.163  0.3192  0.4559  0.1455
 6585TIP3    H141170   2.755   5.752  16.207  0.8943  0.3868  0.6271
 6585TIP3    H241171   2.891   5.816  16.189  0.4811  1.0523 -0.2091
 6586TIP3   OH241172   3.493   0.660  12.322 -0.0429  0.1715 -0.1986
 6586TIP3    H141173   3.504   0.594  12.390 -0.3559  0.9663  0.6290
 6586TIP3    H241174   3.458   0.611  12.247 -1.8798 -0.3269  0.9336
 6587TIP3   OH241175   5.445   4.913  10.848  0.5117 -0.4175  0.1547
 6587TIP3    H141176   5.401   4.867  10.776  3.2914 -3.6543  0.2596
 6587TIP3    H241177   5.492   4.985  10.806 -0.9187  0.0978 -0.6304
 6588TIP3   OH241178   2.968   6.197  13.230  0.4171 -0.4800  0.1080
 6588TIP3    H141179   3.007   6.156  13.153 -3.2098 -2.7296 -0.7948
 6588TIP3    H241180   2.971   6.291  13.212  3.2324 -0.6636 -0.8200
 6589TIP3   OH241181   0.085   6.057   6.060  0.2539 -0.5294 -0.1485
 6589TIP3    H141182   0.131   6.111   6.124  1.3173 -1.9685  0.3572
 6589TIP3    H241183  -0.008   6.068   6.081  0.5263  0.0119  0.8247
 6590TIP3   OH241184   6.605   6.184   0.533 -0.1168 -0.3682  0.3444
 6590TIP3    H141185   6.654   6.201   0.453  2.6410  2.2069  2.3657
 6590TIP3    H241186   6.560   6.266   0.552 -0.3990 -0.7920  1.6240
 6591TIP3   OH241187   2.139   0.607  14.080 -0.0259  0.0378 -0.9606
 6591TIP3    H141188   2.176   0.656  14.006  0.8874  1.7586  0.5547
 6591TIP3    H241189   2.053   0.646  14.094  0.3851  0.7160 -0.2437
 6592TIP3   OH241190   0.870   1.971  16.717 -0.1051 -0.0911 -0.2914
 6592TIP3    H141191   0.837   2.060  16.707  1.7648  0.5962 -0.7086
 6592TIP3    H241192   0.879   1.939  16.627 -2.3448 -1.3645 -0.1268
 6593TIP3   OH241193   1.600   2.358   3.925 -0.2795  0.0469 -0.2914
 6593TIP3    H141194   1.509   2.339   3.949 -0.7195 -0.3860 -2.1656
 6593TIP3    H241195   1.596   2.444   3.883  0.0560 -0.2925 -1.0294
 6594TIP3   OH241196   2.909   5.344   5.483 -0.5012 -0.1078 -0.0448
 6594TIP3    H141197   2.927   5.308   5.396 -0.0544 -0.5642  0.2333
 6594TIP3    H241198   2.900   5.268   5.539 -1.3879  0.1701  0.2012
 6595TIP3   OH241199   4.110   5.097  14.494 -0.2682 -0.5765 -0.3249
 6595TIP3    H141200   4.206   5.098  14.491 -0.1937 -0.8807  1.3239
 6595TIP3    H241201   4.085   5.043  14.419  0.8558 -0.6086 -0.6995
 6596TIP3   OH241202   1.294   1.769  14.318  0.1408 -0.4131  0.5917
 6596TIP3    H141203   1.370   1.811  14.358  0.5858  0.2565 -0.9185
 6596TIP3    H241204   1.230   1.840  14.307  0.0801 -0.5559 -0.0148
 6597TIP3   OH241205   4.557   0.500  16.249  0.2819 -0.3121  0.4564
 6597TIP3    H141206   4.462   0.495  16.235  0.1147  0.5793  1.2073
 6597TIP3    H241207   4.591   0.537  16.167  0.2326 -2.3366 -0.5570
 6598TIP3   OH241208   5.028   2.537   3.007  0.3428  0.7685  0.2446
 6598TIP3    H141209   5.098   2.574   2.953  0.8988 -0.4898  0.0826
 6598TIP3    H241210   5.072   2.509   3.087 -0.3281  1.7916  0.9852
 6599TIP3   OH241211   0.913   3.991   0.951 -0.1062  0.0586 -0.1190
 6599TIP3    H141212   0.905   3.983   1.046 -0.1482 -0.4265 -0.1627
 6599TIP3    H241213   0.859   4.067   0.929  0.8246  0.8893  0.3743
 6600TIP3   OH241214   3.838   3.527   5.094 -0.3174 -0.3613  0.0361
 6600TIP3    H141215   3.752   3.523   5.052  0.6472 -0.4895 -2.0255
 6600TIP3    H241216   3.869   3.616   5.078  0.1678 -0.4766  0.3101
 6601TIP3   OH241217   6.332   3.591   4.988  0.1493  0.0389  0.3055
 6601TIP3    H141218   6.391   3.531   4.944  1.3776  0.7320  0.9612
 6601TIP3    H241219   6.331   3.670   4.933 -2.1579 -0.8150 -1.0392
 6602TIP3   OH241220   1.704   1.105   1.143 -0.0731  0.0092 -0.3931
 6602TIP3    H141221   1.753   1.083   1.222  0.5835 -1.2466 -1.1143
 6602TIP3    H241222   1.745   1.184   1.110 -0.2887  0.4852  0.4575
 6603TIP3   OH241223   5.215   2.736   3.470 -0.2327  0.3347 -0.3751
 6603TIP3    H141224   5.196   2.767   3.559 -1.9940  1.0106 -0.9466
 6603TIP3    H241225   5.131   2.740   3.425  0.7140  0.3891 -2.2062
 6604TIP3   OH241226   1.856   0.602   3.118 -0.4698 -0.3976 -0.2303
 6604TIP3    H141227   1.821   0.583   3.031 -0.6718  0.7040 -0.3985
 6604TIP3    H241228   1.936   0.651   3.101 -1.3435  1.2363  0.1999
 6605TIP3   OH241229   4.023   5.898   1.516  0.2576 -0.2495  0.1108
 6605TIP3    H141230   4.065   5.975   1.479  0.0744  0.4387  1.2868
 6605TIP3    H241231   4.016   5.837   1.443  2.1084  0.1085 -0.4258
 6606TIP3   OH241232   0.354   5.785  11.791  0.4831 -0.1770  0.2223
 6606TIP3    H141233   0.416   5.808  11.722 -0.5467  1.4396 -0.2031
 6606TIP3    H241234   0.321   5.699  11.765  0.7476  0.0227 -0.8466
 6607TIP3   OH241235   5.914   2.198  12.317  0.2493  0.0442 -0.4864
 6607TIP3    H141236   6.008   2.190  12.334  0.0179 -0.1040  0.8472
 6607TIP3    H241237   5.895   2.291  12.328  0.3405  0.1831 -1.4086
 6608TIP3   OH241238   4.196   6.167   0.639  0.5751 -0.1454  0.0646
 6608TIP3    H141239   4.131   6.120   0.587  0.6011 -0.8041  0.6143
 6608TIP3    H241240   4.214   6.247   0.589 -0.8187  0.1530  0.0185
 6609TIP3   OH241241   0.232   5.272  11.207  0.0799 -0.1551  0.4248
 6609TIP3    H141242   0.306   5.313  11.252  1.4774 -3.0415  0.9898
 6609TIP3    H241243   0.257   5.274  11.115  1.1747 -1.5421  0.6529
 6610TIP3   OH241244   1.265   2.904  13.695  0.0587 -0.1476  0.5023
 6610TIP3    H141245   1.320   2.909  13.617 -0.0048 -0.2917  0.4480
 6610TIP3    H241246   1.310   2.958  13.760 -0.1720  0.4197  0.1969
 6611TIP3   OH241247   1.569   0.666   1.048 -0.1457 -0.3114 -0.1246
 6611TIP3    H141248   1.634   0.735   1.032 -0.4971  0.0793  0.1263
 6611TIP3    H241249   1.560   0.621   0.964 -0.6961  0.6168 -0.5703
 6612TIP3   OH241250   3.232   1.119  11.459  0.7338 -0.4015  0.0027
 6612TIP3    H141251   3.325   1.104  11.475  1.0936  1.7782  0.2394
 6612TIP3    H241252   3.227   1.137  11.365  0.3438 -1.6797 -0.2424
 6613TIP3   OH241253   5.203   6.340   4.554 -0.0104  0.5261  0.3722
 6613TIP3    H141254   5.278   6.309   4.504  0.2065  1.2058  0.2649
 6613TIP3    H241255   5.240   6.406   4.613 -0.2164 -0.4054  1.5895
 6614TIP3   OH241256   3.840   5.110   4.813 -0.3499  0.1250  0.0168
 6614TIP3    H141257   3.884   5.189   4.781 -1.9045  0.8225 -0.5558
 6614TIP3    H241258   3.879   5.093   4.898  1.4970  0.2623 -0.7642
 6615TIP3   OH241259   5.501   4.710   5.905  0.0882  0.0343 -0.1299
 6615TIP3    H141260   5.445   4.694   5.982 -0.1581  0.3407 -0.2449
 6615TIP3    H241261   5.575   4.650   5.917 -0.4156 -0.5994 -0.1312
 6616TIP3   OH241262   4.581   3.950  16.699 -0.4504  0.2723 -0.0481
 6616TIP3    H141263   4.644   4.023  16.705  0.5547 -0.4089 -1.4886
 6616TIP3    H241264   4.633   3.873  16.719 -1.0645 -0.2144 -0.3162
 6617TIP3   OH241265   4.913   3.011   5.164 -0.0228  0.8254  0.0913
 6617TIP3    H141266   4.823   3.022   5.195  0.1103 -1.2061  1.3584
 6617TIP3    H241267   4.905   3.016   5.068 -1.8411 -1.2013  0.0446
 6618TIP3   OH241268   1.599   3.832   5.366  0.1525 -0.4006  0.3426
 6618TIP3    H141269   1.686   3.843   5.406  0.2727 -1.3332  0.3785
 6618TIP3    H241270   1.540   3.825   5.441  0.1876 -0.7569  0.3395
 6619TIP3   OH241271   2.104   3.598   5.554  0.6864 -0.4301 -0.5509
 6619TIP3    H141272   2.140   3.681   5.522 -0.1525 -0.0468 -0.5219
 6619TIP3    H241273   2.180   3.551   5.589  1.6450 -0.8044 -2.9238
 6620TIP3   OH241274   4.240   0.885  14.327 -0.4445 -0.6361  0.2710
 6620TIP3    H141275   4.229   0.911  14.418 -1.5821 -1.3014  0.3370
 6620TIP3    H241276   4.222   0.964  14.276 -1.6048 -0.6965  0.5640
 6621TIP3   OH241277   6.536   3.136   1.061  0.3310 -0.3564 -0.4414
 6621TIP3    H141278   6.574   3.208   1.111  2.2474 -0.7700 -1.2153
 6621TIP3    H241279   6.604   3.068   1.060  0.0967 -0.6588 -2.9080
 6622TIP3   OH241280   4.169   4.414   2.192  0.3241  0.6491 -0.7692
 6622TIP3    H141281   4.131   4.475   2.128  1.5951  1.9313 -0.3806
 6622TIP3    H241282   4.116   4.425   2.270  1.3344  2.3298 -0.2685
 6623TIP3   OH241283   1.291   1.867  15.152  0.0174  0.6283  0.4633
 6623TIP3    H141284   1.220   1.826  15.102  0.2933  1.5167 -0.6953
 6623TIP3    H241285   1.365   1.869  15.091  0.5494  1.1866  1.1133
 6624TIP3   OH241286   1.476   3.068  15.622 -0.0206  0.1796 -0.3653
 6624TIP3    H141287   1.505   3.129  15.555 -1.0962  0.0432 -0.9862
 6624TIP3    H241288   1.556   3.032  15.659  0.5873  0.0333 -1.7809
 6625TIP3   OH241289   0.623   5.948  12.469  0.3362  0.2519  0.5555
 6625TIP3    H141290   0.560   5.894  12.518  1.3419 -0.8589  0.6620
 6625TIP3    H241291   0.693   5.966  12.531  1.2264 -0.4675 -0.2233
 6626TIP3   OH241292   6.655   3.490   0.788  0.4784  0.3994  0.0823
 6626TIP3    H141293   6.677   3.501   0.880 -0.8490  1.9578  0.2648
 6626TIP3    H241294   6.617   3.574   0.762 -0.4854 -0.4623 -1.4917
 6627TIP3   OH241295   2.264   1.423   2.695  0.6074  0.4453 -0.0297
 6627TIP3    H141296   2.332   1.462   2.751  1.8234 -0.4380 -0.8447
 6627TIP3    H241297   2.266   1.330   2.716 -0.4932  0.4306  0.0504
 6628TIP3   OH241298   0.527   5.964  11.109  1.1791  0.2842  0.7999
 6628TIP3    H141299   0.512   6.053  11.076  0.4107 -0.4739 -1.0283
 6628TIP3    H241300   0.600   5.931  11.057  0.4128 -0.6910  0.3083
 6629TIP3   OH241301   3.145   2.306   0.552 -0.0698  0.0126  0.9224
 6629TIP3    H141302   3.079   2.286   0.486  0.2397 -1.5592  1.0457
 6629TIP3    H241303   3.143   2.402   0.560 -1.0930  0.1246 -0.3267
 6630TIP3   OH241304   5.693   4.392   2.463  0.2739  0.5618  0.1493
 6630TIP3    H141305   5.652   4.328   2.522 -1.8260  1.0313 -0.6975
 6630TIP3    H241306   5.718   4.464   2.520 -1.5727  0.9364  0.5590
 6631TIP3   OH241307   1.686   3.854  17.165 -1.0467 -0.1609  0.0888
 6631TIP3    H141308   1.765   3.848  17.219 -0.9901  1.5154  0.2456
 6631TIP3    H241309   1.715   3.896  17.085 -1.4317 -1.2832 -0.6585
 6632TIP3   OH241310   5.109   1.114  13.858 -0.2450 -0.6127 -0.5167
 6632TIP3    H141311   5.134   1.048  13.923  0.9463  1.5910  1.3884
 6632TIP3    H241312   5.069   1.184  13.909  1.2057  1.4473 -2.0581
 6633TIP3   OH241313   4.208   1.138  11.826 -0.4402  0.3881  0.9539
 6633TIP3    H141314   4.118   1.129  11.857 -0.6037 -1.6294  0.0599
 6633TIP3    H241315   4.244   1.049  11.831  1.3710  1.0734  0.8653
 6634TIP3   OH241316   0.696   1.149   3.558  0.2396 -0.2163  0.0605
 6634TIP3    H141317   0.668   1.146   3.650 -0.2765 -2.2416 -0.1136
 6634TIP3    H241318   0.616   1.133   3.508  0.9361 -1.8773 -0.5990
 6635TIP3   OH241319   3.676   1.039  11.992 -0.0439 -0.5535  0.5000
 6635TIP3    H141320   3.747   0.984  12.022  0.1369 -2.1387 -2.4517
 6635TIP3    H241321   3.597   0.998  12.027  0.2274 -1.5164  0.0125
 6636TIP3   OH241322   0.851   6.653   0.120 -0.4137 -0.3003 -0.3693
 6636TIP3    H141323   0.801   6.608   0.189  0.4594 -2.3470 -1.0064
 6636TIP3    H241324   0.869   6.739   0.157 -1.1193 -0.8671  1.4308
 6637TIP3   OH241325   3.255   1.309  13.132 -0.1522 -0.5849  0.7797
 6637TIP3    H141326   3.234   1.279  13.220  1.0259 -1.6191  0.7410
 6637TIP3    H241327   3.335   1.361  13.142 -1.2860  1.2697  0.6170
 6638TIP3   OH241328   5.188   2.961  11.404 -0.2493  0.4936  0.3829
 6638TIP3    H141329   5.269   2.956  11.456  0.5606  2.3939 -0.6124
 6638TIP3    H241330   5.219   2.974  11.314 -1.6519  1.9463  0.0744
 6639TIP3   OH241331   0.521   3.764   5.758  0.3292  0.0351 -0.2982
 6639TIP3    H141332   0.559   3.833   5.812 -1.2634  1.2987 -0.7093
 6639TIP3    H241333   0.594   3.729   5.708  1.8098 -0.9704  2.3805
 6640TIP3   OH241334   5.407   5.522  15.044  0.2119 -0.0277  0.6605
 6640TIP3    H141335   5.355   5.444  15.062 -1.2364  0.9594  0.9101
 6640TIP3    H241336   5.457   5.537  15.124 -0.5765  0.1033  1.1318
 6641TIP3   OH241337   3.434   4.776   5.974 -0.1968  0.1377  0.5645
 6641TIP3    H141338   3.391   4.861   5.983  0.3393  0.5242 -0.3558
 6641TIP3    H241339   3.372   4.713   6.011 -1.8451  0.6054 -1.2623
 6642TIP3   OH241340   3.534   6.169   2.250  0.6762 -0.5247  0.1626
 6642TIP3    H141341   3.622   6.189   2.218 -0.2051  0.4371 -1.9059
 6642TIP3    H241342   3.518   6.233   2.319  0.9010  0.6099 -0.8095
 6643TIP3   OH241343   3.713   3.091   1.483  0.1639 -0.1251 -0.5416
 6643TIP3    H141344   3.703   3.020   1.420  0.2037 -0.0234 -0.6650
 6643TIP3    H241345   3.640   3.081   1.543  1.3444 -1.5686  0.7492
 6644TIP3   OH241346   1.328   0.104  15.131  0.0197 -0.1995 -0.5585
 6644TIP3    H141347   1.254   0.046  15.116  0.9591 -1.4661 -0.4193
 6644TIP3    H241348   1.398   0.069  15.076  0.1484  1.8046 -1.7995
 6645TIP3   OH241349   0.564   2.023  10.237 -0.9676  0.1075  0.5420
 6645TIP3    H141350   0.515   1.947  10.203  0.7839 -0.9647  0.3267
 6645TIP3    H241351   0.574   2.080  10.161  1.0834 -1.3005 -0.3290
 6646TIP3   OH241352   5.269   0.246  14.580 -0.2219  0.4833 -0.2113
 6646TIP3    H141353   5.307   0.173  14.531 -0.0111  0.7753 -0.4952
 6646TIP3    H241354   5.336   0.315  14.575  0.0654  0.3033  1.0311
 6647TIP3   OH241355   5.180   4.725  12.256  0.1201  0.2921  0.3344
 6647TIP3    H141356   5.128   4.645  12.248 -0.1640  0.5321 -0.3548
 6647TIP3    H241357   5.219   4.736  12.169  1.7767 -0.1776  0.9926
 6648TIP3   OH241358   2.726   3.797  12.714 -0.5082  0.0567 -0.2104
 6648TIP3    H141359   2.811   3.830  12.742 -0.6586  0.5818 -0.3643
 6648TIP3    H241360   2.675   3.876  12.692 -0.8426 -0.2786 -0.6625
 6649TIP3   OH241361   6.148   4.830  14.958 -0.2914 -0.1463 -0.1611
 6649TIP3    H141362   6.189   4.819  15.044 -1.4150  0.8503  0.5487
 6649TIP3    H241363   6.083   4.760  14.953  2.4101 -2.7571 -1.9704
 6650TIP3   OH241364   1.294   1.916  13.876 -0.2715 -0.0160 -0.4078
 6650TIP3    H141365   1.305   1.839  13.932  0.4934  0.3427 -0.0452
 6650TIP3    H241366   1.202   1.939  13.885 -0.1116  0.1953  0.9452
 6651TIP3   OH241367   6.042   5.741   3.285  0.1763 -0.3565 -0.3697
 6651TIP3    H141368   6.048   5.832   3.254 -0.3034 -0.6706 -1.4687
 6651TIP3    H241369   6.003   5.748   3.372 -0.6425  0.4561 -0.7752
 6652TIP3   OH241370   6.196   1.958  16.502  0.1020  0.8423 -0.0617
 6652TIP3    H141371   6.251   2.032  16.530  1.6878 -0.0679 -0.6176
 6652TIP3    H241372   6.259   1.888  16.482 -1.2837 -0.2591 -0.7350
 6653TIP3   OH241373   0.268   5.917   5.433 -0.0879 -0.2001  0.1694
 6653TIP3    H141374   0.238   5.829   5.456 -3.0075  0.7007  0.1556
 6653TIP3    H241375   0.348   5.902   5.382  0.1059 -2.7619  1.0751
 6654TIP3   OH241376   5.320   5.688   1.028  0.3482  0.1753 -0.0741
 6654TIP3    H141377   5.350   5.767   0.984 -0.9240 -0.3865 -2.1316
 6654TIP3    H241378   5.272   5.719   1.104  1.2719  1.2891  0.0770
 6655TIP3   OH241379   3.050   2.491  14.424  0.2027 -0.2752  0.0289
 6655TIP3    H141380   3.080   2.420  14.367 -0.2127 -0.5308  0.1276
 6655TIP3    H241381   3.057   2.569  14.370 -1.4333 -0.6808 -0.8329
 6656TIP3   OH241382   0.856   1.087   1.148 -0.0754  0.3872  0.2013
 6656TIP3    H141383   0.809   1.068   1.067 -0.7999 -0.8931  0.8919
 6656TIP3    H241384   0.801   1.049   1.217  0.7440  1.0658  1.2542
 6657TIP3   OH241385   6.242   6.630   2.849 -0.3851 -0.0318 -0.1513
 6657TIP3    H141386   6.195   6.617   2.931  0.2811 -1.5289  0.0356
 6657TIP3    H241387   6.180   6.605   2.781  0.2216 -2.5602  0.1174
 6658TIP3   OH241388   3.186   2.814  15.705  0.1629 -0.1632 -0.6156
 6658TIP3    H141389   3.179   2.893  15.650 -1.0758  0.9785  1.0894
 6658TIP3    H241390   3.273   2.819  15.743  0.2221  0.1821 -0.7910
 6659TIP3   OH241391   1.001   0.077  17.115 -0.1327  0.1990  0.2585
 6659TIP3    H141392   0.998   0.167  17.147  0.2115 -0.1580  1.3445
 6659TIP3    H241393   0.909   0.052  17.104 -0.2147  1.1047 -1.3446
 6660TIP3   OH241394   5.426   2.795  16.194 -0.5107 -0.4897 -0.0406
 6660TIP3    H141395   5.446   2.721  16.251 -2.7344 -1.5051 -0.4483
 6660TIP3    H241396   5.380   2.857  16.250  2.1796  1.1318  0.5411
 6661TIP3   OH241397   0.566   2.122  14.065 -0.8003  0.8894 -0.6087
 6661TIP3    H141398   0.572   2.108  14.159 -0.4304 -0.5875 -0.8384
 6661TIP3    H241399   0.472   2.115  14.045 -0.7035 -0.6805 -0.6070
 6662TIP3   OH241400   5.727   1.296  13.400  0.4761  0.5509  0.1033
 6662TIP3    H141401   5.787   1.307  13.325 -0.4543  1.8850 -0.4965
 6662TIP3    H241402   5.642   1.322  13.366 -0.0776  0.6196  1.4863
 6663TIP3   OH241403   1.069   2.403  14.865  0.3798  0.1899  0.0004
 6663TIP3    H141404   1.099   2.466  14.931  3.2754 -0.6427 -0.3754
 6663TIP3    H241405   1.107   2.434  14.783 -0.5717 -0.5047 -0.7346
 6664TIP3   OH241406   3.328   1.297   5.552  0.3787 -0.1553 -0.2999
 6664TIP3    H141407   3.273   1.370   5.579 -0.4679 -1.0605  0.5027
 6664TIP3    H241408   3.396   1.292   5.619  0.4897 -0.0592 -0.4037
 6665TIP3   OH241409   2.707   5.901   1.746 -0.4668 -0.4921 -0.0651
 6665TIP3    H141410   2.732   5.811   1.766 -0.7889 -0.5240  0.1916
 6665TIP3    H241411   2.704   5.945   1.831  1.9860  0.3765 -0.3414
 6666TIP3   OH241412   1.121   0.824   1.074 -0.4440 -0.4816  0.1945
 6666TIP3    H141413   1.075   0.900   1.037 -2.9398 -1.5047  1.0051
 6666TIP3    H241414   1.063   0.792   1.142  1.8071 -1.5705  1.7008
 6667TIP3   OH241415   6.281   4.666   3.268  0.0646 -0.4019 -0.8608
 6667TIP3    H141416   6.207   4.727   3.265  0.4140  0.1201  0.4476
 6667TIP3    H241417   6.358   4.722   3.279  0.4049 -1.0492  0.2406
 6668TIP3   OH241418   5.657   4.737  11.029 -0.2977 -0.1791 -0.1599
 6668TIP3    H141419   5.656   4.661  10.970 -0.7634 -0.9771  0.8617
 6668TIP3    H241420   5.723   4.715  11.095 -1.7311 -0.5578  1.2089
 6669TIP3   OH241421   1.323   3.717  11.871  0.1411  0.4463  0.4285
 6669TIP3    H141422   1.276   3.648  11.825  0.0803  0.2325  0.8013
 6669TIP3    H241423   1.269   3.735  11.949  0.4531  0.5010  0.6346
 6670TIP3   OH241424   5.215   5.307  15.024  0.3075  1.1154  0.1822
 6670TIP3    H141425   5.257   5.226  14.995 -0.0799  0.6549  0.8942
 6670TIP3    H241426   5.203   5.358  14.944 -0.3964  0.0249 -0.4235
 6671TIP3   OH241427   5.472   2.887   2.106  0.2688  0.0766 -0.0551
 6671TIP3    H141428   5.528   2.811   2.094  0.9618  0.6458 -0.5121
 6671TIP3    H241429   5.383   2.855   2.088  0.5598 -0.5970 -0.3223
 6672TIP3   OH241430   3.187   6.168  16.445 -0.2265  0.3096 -0.0565
 6672TIP3    H141431   3.276   6.170  16.411  0.1385 -1.7135  0.6210
 6672TIP3    H241432   3.142   6.240  16.401  1.0654 -0.1663 -2.2999
 6673TIP3   OH241433   6.475   3.574   4.746 -0.0951 -0.0444  0.1213
 6673TIP3    H141434   6.528   3.654   4.750 -0.3105  0.0417  2.2462
 6673TIP3    H241435   6.495   3.537   4.660 -0.4222  2.5721 -1.2006
 6674TIP3   OH241436   4.000   1.966   5.081  0.7660  0.7418 -0.6547
 6674TIP3    H141437   3.968   2.039   5.028 -0.9574  1.3115  1.0615
 6674TIP3    H241438   3.969   1.888   5.036  0.8432  1.1429 -1.4129
 6675TIP3   OH241439   4.423   2.035  12.040  0.5068  0.0038  0.4990
 6675TIP3    H141440   4.438   2.091  11.964  1.1769 -1.7627 -0.7465
 6675TIP3    H241441   4.480   2.070  12.108  0.9320  0.7987 -0.2464
 6676TIP3   OH241442   5.752   4.721   2.877 -0.1873 -0.1779  0.0363
 6676TIP3    H141443   5.712   4.805   2.855  1.6963  1.0741  1.1301
 6676TIP3    H241444   5.834   4.744   2.921  1.4288 -2.5845 -1.4757
 6677TIP3   OH241445   5.215   0.592   1.052 -0.0134  0.1946 -0.0767
 6677TIP3    H141446   5.175   0.613   1.136 -1.1654  0.1768 -0.5995
 6677TIP3    H241447   5.187   0.662   0.993 -3.3185 -2.1991 -1.6601
 6678TIP3   OH241448   2.740   4.896  14.789  0.6310  0.4001 -0.0907
 6678TIP3    H141449   2.715   4.984  14.820 -0.6990  0.2980 -0.7659
 6678TIP3    H241450   2.785   4.912  14.706  2.7759  0.5743  1.0442
 6679TIP3   OH241451   0.993   3.739  13.687  0.0993 -0.2189  0.1376
 6679TIP3    H141452   1.069   3.683  13.692 -0.6007 -1.1714  0.3844
 6679TIP3    H241453   1.025   3.826  13.713  0.8817 -0.8059  1.2235
 6680TIP3   OH241454   4.907   6.635   3.479 -0.6055 -0.0604 -0.2394
 6680TIP3    H141455   4.939   6.638   3.570 -0.8578  1.4214 -0.1711
 6680TIP3    H241456   4.982   6.664   3.427 -1.0022  0.8561 -0.3201
 6681TIP3   OH241457   3.319   5.030  11.288  0.2331 -0.6682 -0.2002
 6681TIP3    H141458   3.237   5.076  11.304  0.3494 -0.0697 -1.2456
 6681TIP3    H241459   3.348   5.061  11.202  1.4933 -0.9465  0.1004
 6682TIP3   OH241460   5.604   6.367  11.244  0.4998 -0.2546 -0.7411
 6682TIP3    H141461   5.593   6.279  11.281 -0.3195 -0.5714 -1.6879
 6682TIP3    H241462   5.695   6.368  11.213  0.8588 -0.3643  0.2697
 6683TIP3   OH241463   3.983   4.464   3.531 -0.5119 -0.3627 -0.0231
 6683TIP3    H141464   4.019   4.377   3.552  0.7131  0.1830  0.2436
 6683TIP3    H241465   3.962   4.501   3.617 -2.7261 -1.0407 -0.2031
 6684TIP3   OH241466   4.561   5.718   0.174 -0.0650 -0.1501 -0.3931
 6684TIP3    H141467   4.541   5.646   0.234 -1.3859  0.4227 -0.1112
 6684TIP3    H241468   4.655   5.732   0.183  0.4993 -2.6878 -1.4265
 6685TIP3   OH241469   1.207   5.357  17.202 -0.0658 -0.0155 -0.4015
 6685TIP3    H141470   1.147   5.413  17.152  0.2884  0.6607 -0.0866
 6685TIP3    H241471   1.248   5.417  17.264 -0.4088 -0.8190  0.6152
 6686TIP3   OH241472   4.154   3.148  12.632 -0.2771  0.0185 -0.0833
 6686TIP3    H141473   4.138   3.120  12.543  1.7495  0.2219 -0.5684
 6686TIP3    H241474   4.161   3.067  12.683  1.6847 -0.2880 -0.7452
 6687TIP3   OH241475   4.161   4.619   2.881  0.9690 -0.2341 -0.1325
 6687TIP3    H141476   4.215   4.558   2.830  2.5076  0.2869  0.8049
 6687TIP3    H241477   4.141   4.689   2.820  1.5470 -0.3302 -0.4493
 6688TIP3   OH241478   0.194   5.639   1.977 -0.0197  0.3918  0.8453
 6688TIP3    H141479   0.151   5.559   1.947 -0.3024  1.3934 -1.6082
 6688TIP3    H241480   0.139   5.670   2.049 -1.6792 -0.0043 -0.1953
 6689TIP3   OH241481   2.916   5.235   6.307 -0.4890  0.3261  0.2112
 6689TIP3    H141482   3.005   5.229   6.271 -0.7671 -3.7946 -0.2558
 6689TIP3    H241483   2.928   5.239   6.402  0.3230 -2.2388  0.2944
 6690TIP3   OH241484   6.743   2.911   2.323 -0.0567  0.1703  0.1789
 6690TIP3    H141485   6.793   2.909   2.242  0.1121 -1.1482  0.2993
 6690TIP3    H241486   6.738   3.004   2.346  0.6220  0.4820 -0.8831
 6691TIP3   OH241487   2.289   2.021   1.571  0.1817  0.1313 -0.1989
 6691TIP3    H141488   2.345   2.098   1.575 -1.0721  1.2224 -2.1354
 6691TIP3    H241489   2.323   1.970   1.497  0.6222 -0.9275  0.6862
 6692TIP3   OH241490   5.932   3.450   4.744 -0.5780 -0.2182 -0.0990
 6692TIP3    H141491   5.997   3.433   4.676 -2.6700  0.3931 -2.3657
 6692TIP3    H241492   5.942   3.543   4.764 -0.9366 -0.0438 -0.6960
 6693TIP3   OH241493   4.994   2.944  13.435 -0.3001 -0.4680  0.2459
 6693TIP3    H141494   5.012   2.884  13.362  0.7890 -0.8576  0.8085
 6693TIP3    H241495   5.060   3.012  13.428 -1.3569  0.5272 -0.2141
 6694TIP3   OH241496   2.524   4.405  17.055  0.2953 -0.0306  0.1007
 6694TIP3    H141497   2.591   4.472  17.045  0.9201 -0.5587  0.6840
 6694TIP3    H241498   2.443   4.455  17.069  0.6281  0.6048 -0.1968
 6695TIP3   OH241499   4.332   5.888  12.852 -0.4164  0.5581  0.8252
 6695TIP3    H141500   4.415   5.900  12.898 -0.1488 -1.8110  1.0667
 6695TIP3    H241501   4.267   5.933  12.907  0.6150  2.2273  0.7612
 6696TIP3   OH241502   0.319   6.702  14.159  0.3447  0.3083 -0.1825
 6696TIP3    H141503   0.302   6.613  14.192  1.3890  0.3505  0.5194
 6696TIP3    H241504   0.333   6.690  14.065 -0.8880 -0.0727 -0.3341
 6697TIP3   OH241505   4.202   5.344  16.450 -0.2554  0.6048 -0.1937
 6697TIP3    H141506   4.218   5.397  16.373  0.9146  1.8828  0.8814
 6697TIP3    H241507   4.108   5.327  16.449 -0.4139  1.4604 -1.3277
 6698TIP3   OH241508   6.366   4.095   2.776 -0.1412 -0.3102  0.3019
 6698TIP3    H141509   6.276   4.127   2.778  1.3594  5.0948 -0.4996
 6698TIP3    H241510   6.387   4.075   2.867 -2.1211 -1.9549  0.4588
 6699TIP3   OH241511   3.797   3.350   4.481  0.4518  0.1706  0.1133
 6699TIP3    H141512   3.787   3.430   4.429 -1.0846  0.7647  1.2507
 6699TIP3    H241513   3.709   3.313   4.485  0.7760 -0.5287  1.2264
 6700TIP3   OH241514   4.434   5.618   1.923 -0.1396  0.4925  0.6912
 6700TIP3    H141515   4.355   5.582   1.881  0.9450 -1.7160  0.4319
 6700TIP3    H241516   4.459   5.691   1.867  0.4958 -1.5460 -1.9072
 6701TIP3   OH241517   6.502   4.499  14.176 -0.0561  0.2699  0.4165
 6701TIP3    H141518   6.519   4.575  14.231  1.1646  0.0405  0.3842
 6701TIP3    H241519   6.585   4.483  14.131 -0.2321 -1.1771  0.5583
 6702TIP3   OH241520   3.802   0.135  13.352  0.3744  0.2668 -0.0468
 6702TIP3    H141521   3.722   0.129  13.300  0.8978 -0.4343 -0.7971
 6702TIP3    H241522   3.778   0.102  13.438 -0.6448  1.9537  0.3456
 6703TIP3   OH241523   2.957   0.081  16.502 -0.0055 -0.3614  0.3265
 6703TIP3    H141524   2.919   0.074  16.590 -0.5147 -0.5171  0.1004
 6703TIP3    H241525   2.987  -0.008  16.482  0.0299 -0.3456  0.3114
 6704TIP3   OH241526   6.010   2.502  15.553  0.2722  0.1538  0.3029
 6704TIP3    H141527   6.081   2.557  15.518 -0.0473 -0.6293 -1.7078
 6704TIP3    H241528   5.938   2.564  15.568  0.5098  0.5597 -0.1897
 6705TIP3   OH241529   2.801   6.661  14.990  0.5922 -0.3280 -0.4912
 6705TIP3    H141530   2.862   6.717  14.943  2.3026 -1.1681  0.6225
 6705TIP3    H241531   2.846   6.577  14.997 -0.2427 -0.6800  1.2733
 6706TIP3   OH241532   0.987   2.086   2.128 -0.0384 -0.1712  0.2730
 6706TIP3    H141533   0.946   2.172   2.139  1.2065  0.6162 -0.9055
 6706TIP3    H241534   1.077   2.099   2.158  1.0153 -0.2085 -2.6231
 6707TIP3   OH241535   3.939   6.441   3.351 -0.5606  0.1636  0.2122
 6707TIP3    H141536   3.848   6.423   3.324 -0.3348  1.4637 -1.6524
 6707TIP3    H241537   3.992   6.389   3.290 -0.0289 -0.4138  1.1465
 6708TIP3   OH241538   0.781   3.450   5.054  0.4897  0.0148 -0.0474
 6708TIP3    H141539   0.721   3.382   5.024 -0.4156  0.7460  0.0937
 6708TIP3    H241540   0.780   3.442   5.150 -2.5262  2.5649  0.2967
 6709TIP3   OH241541   2.892   6.688  14.496  0.0621  0.0345  0.2555
 6709TIP3    H141542   2.826   6.659  14.559 -2.4533  0.7656 -1.8439
 6709TIP3    H241543   2.938   6.759  14.540 -0.9981 -0.0651  1.5836
 6710TIP3   OH241544   3.244   0.920   2.063 -0.3141 -0.2853 -0.2760
 6710TIP3    H141545   3.172   0.886   2.011 -0.0182 -0.2886 -0.6860
 6710TIP3    H241546   3.321   0.910   2.007  0.1964 -1.3452  0.5787
 6711TIP3   OH241547   4.792   1.603   2.496  0.0985 -0.1706 -0.0910
 6711TIP3    H141548   4.781   1.663   2.569  0.7069  0.7176 -0.7074
 6711TIP3    H241549   4.705   1.562   2.485 -0.2974  0.5264  0.3855
 6712TIP3   OH241550   3.420   2.202  15.015  0.0233  0.0096  0.0288
 6712TIP3    H141551   3.400   2.291  14.985  0.0972  0.0098 -0.0228
 6712TIP3    H241552   3.378   2.145  14.950  2.3257  0.0085 -1.6043
 6713TIP3   OH241553   6.574   1.810  14.717  0.2188  0.5410  0.4162
 6713TIP3    H141554   6.482   1.787  14.709  0.8275 -1.9187 -0.5528
 6713TIP3    H241555   6.586   1.832  14.809 -1.2699  0.6613  0.5973
 6714TIP3   OH241556   6.299   6.319  16.952 -0.0709  0.3465 -0.0293
 6714TIP3    H141557   6.344   6.319  17.036  1.7990  1.2660 -0.9528
 6714TIP3    H241558   6.224   6.262  16.964 -1.0392  2.0312  2.8514
 6715TIP3   OH241559   3.163   6.061  13.975  0.3997  0.0878  0.1727
 6715TIP3    H141560   3.219   6.119  14.026  1.0916  1.6367 -2.1950
 6715TIP3    H241561   3.195   5.973  13.996  1.7978  0.7699  1.0735
 6716TIP3   OH241562   3.574   4.861  14.935  0.1183 -0.4130 -0.6341
 6716TIP3    H141563   3.641   4.881  15.000  0.9040 -2.5614 -0.7029
 6716TIP3    H241564   3.613   4.793  14.881 -0.7744  0.8038 -2.9702
 6717TIP3   OH241565   3.151   6.693   5.156  0.9738 -0.0011  0.0686
 6717TIP3    H141566   3.219   6.651   5.103  1.5946  1.2267 -0.1537
 6717TIP3    H241567   3.193   6.706   5.241  1.3897  1.6352 -0.3528
 6718TIP3   OH241568   0.888   0.857  12.014  0.8727  0.7488  0.2316
 6718TIP3    H141569   0.936   0.846  11.932  0.2849  0.0197 -0.0331
 6718TIP3    H241570   0.815   0.914  11.992 -0.2439 -0.7709 -0.1935
 6719TIP3   OH241571   2.970   2.776   1.736  0.2260 -0.4709 -0.2006
 6719TIP3    H141572   2.928   2.691   1.749 -0.2792 -0.1314  0.5084
 6719TIP3    H241573   3.063   2.756   1.723  0.1370 -1.1215  0.1403
 6720TIP3   OH241574   2.932   6.515   0.614  0.3241 -0.1717 -0.3561
 6720TIP3    H141575   2.937   6.590   0.673  0.0017  0.0093 -0.5567
 6720TIP3    H241576   3.008   6.525   0.556 -0.6610  0.9514 -1.4984
 6721TIP3   OH241577   2.609   0.226  15.981  0.0588 -0.0503 -0.0697
 6721TIP3    H141578   2.678   0.287  15.956 -0.8350  0.3000 -1.8481
 6721TIP3    H241579   2.546   0.280  16.028  0.0613  0.0515 -0.1817
 6722TIP3   OH241580   6.613   3.204   5.706 -0.3703  0.3717 -0.3727
 6722TIP3    H141581   6.669   3.233   5.778  0.0211 -2.0428  0.3946
 6722TIP3    H241582   6.536   3.260   5.711  0.6911  1.8062  0.4210
 6723TIP3   OH241583   0.426   3.463   5.360  0.0989  0.3894 -0.0741
 6723TIP3    H141584   0.449   3.446   5.268  0.8536  1.1441 -0.0338
 6723TIP3    H241585   0.360   3.532   5.356 -1.4507 -1.0211 -0.1313
 6724TIP3   OH241586   2.968   5.586   1.738  0.3152  0.4127 -0.3334
 6724TIP3    H141587   2.964   5.682   1.741  0.3985  0.3987  1.0600
 6724TIP3    H241588   2.975   5.560   1.830  1.1894 -0.8982 -0.7451
 6725TIP3   OH241589   2.789   2.861   0.903 -0.0147  0.0157 -0.1051
 6725TIP3    H141590   2.803   2.949   0.870  0.5996  1.3222  3.2720
 6725TIP3    H241591   2.876   2.820   0.901 -0.0642 -0.0755 -0.4763
 6726TIP3   OH241592   2.582   6.515  11.331 -0.2123  0.0166  1.0022
 6726TIP3    H141593   2.666   6.473  11.314  0.0416  1.3024 -1.3583
 6726TIP3    H241594   2.543   6.526  11.244 -2.9516 -0.7264  2.0379
 6727TIP3   OH241595   1.686   1.045   4.173 -0.5056  0.6930  0.1227
 6727TIP3    H141596   1.662   1.138   4.173 -0.2956  0.7508  0.3973
 6727TIP3    H241597   1.625   1.004   4.113  0.7575  1.3651 -1.7266
 6728TIP3   OH241598   1.393   6.486   0.794 -0.1665 -0.7595 -0.0507
 6728TIP3    H141599   1.309   6.440   0.805  0.0005 -0.9404  0.4896
 6728TIP3    H241600   1.373   6.557   0.734 -0.3310 -1.8183 -1.2943
 6729TIP3   OH241601   3.109   4.785  12.284 -0.2761 -0.5157 -0.0140
 6729TIP3    H141602   3.143   4.707  12.240 -0.1052 -0.7232  0.4720
 6729TIP3    H241603   3.171   4.800  12.357  0.2053  0.5978 -0.6269
 6730TIP3   OH241604   6.311   1.224   2.023  0.3167 -0.3930  0.0127
 6730TIP3    H141605   6.346   1.310   2.043  2.1305 -1.4464  1.7408
 6730TIP3    H241606   6.319   1.216   1.928  2.5475  0.4004  0.0890
 6731TIP3   OH241607   5.276   0.942  13.525 -0.1026  0.4041 -0.3960
 6731TIP3    H141608   5.287   0.933  13.431 -2.0840 -2.0124 -0.4999
 6731TIP3    H241609   5.206   1.006  13.535 -1.8454 -1.3599 -0.7655
 6732TIP3   OH241610   4.982   1.446  11.412  0.0735  0.0674  0.7190
 6732TIP3    H141611   5.004   1.535  11.383 -2.3203  0.9370  1.3046
 6732TIP3    H241612   4.972   1.396  11.332  1.6585  0.2321  0.3867
 6733TIP3   OH241613   2.491   5.959   1.567  0.3085 -0.2632  0.0752
 6733TIP3    H141614   2.406   5.940   1.608  0.7875  0.2043  1.3617
 6733TIP3    H241615   2.555   5.926   1.629  1.0774 -0.6151 -0.8889
 6734TIP3   OH241616   6.199   0.369   2.309 -0.2161 -0.6855  0.3511
 6734TIP3    H141617   6.277   0.354   2.256 -0.8300  0.6156 -0.9899
 6734TIP3    H241618   6.162   0.450   2.275 -1.4011 -0.5339  1.8946
 6735TIP3   OH241619   6.570   5.911  14.786 -0.2969 -0.0352 -0.0867
 6735TIP3    H141620   6.585   6.003  14.806 -1.2954 -0.1188  1.2139
 6735TIP3    H241621   6.657   5.870  14.794  0.0429  0.6876 -0.0406
 6736TIP3   OH241622   6.641   5.415   5.883 -0.0142 -0.2244  0.0663
 6736TIP3    H141623   6.575   5.431   5.950  0.4655  0.9585  0.2785
 6736TIP3    H241624   6.633   5.322   5.863 -0.0697 -0.6473  1.8727
 6737TIP3   OH241625   5.956   1.760   3.462  0.0165 -0.6356 -0.2173
 6737TIP3    H141626   6.046   1.727   3.458  0.4870  0.4317  1.0252
 6737TIP3    H241627   5.956   1.836   3.404 -0.0315 -0.5169 -0.0622
 6738TIP3   OH241628   3.036   2.995   2.639 -0.0445 -1.0250  0.4822
 6738TIP3    H141629   2.994   3.053   2.576  2.7299 -1.0643 -1.5875
 6738TIP3    H241630   3.084   3.053   2.697 -2.3573 -1.0101  2.5497
 6739TIP3   OH241631   2.918   3.018   4.570  0.0366  0.1309 -0.7451
 6739TIP3    H141632   2.828   3.044   4.587 -0.1842 -0.9854 -0.1276
 6739TIP3    H241633   2.960   3.018   4.656 -0.1425 -2.0719 -0.5975
 6740TIP3   OH241634   1.934   5.411   4.831 -0.1486  0.1439 -1.1216
 6740TIP3    H141635   1.885   5.492   4.849 -0.3144  0.2045 -1.8071
 6740TIP3    H241636   1.930   5.402   4.736 -0.8948 -1.1586 -0.9844
 6741TIP3   OH241637   1.853   0.352   1.001 -0.1860 -0.4195 -0.5616
 6741TIP3    H141638   1.790   0.315   1.062 -0.4138  0.8979  0.0456
 6741TIP3    H241639   1.810   0.431   0.967  0.5087 -0.3548 -1.3304
 6742TIP3   OH241640   2.739   0.050   2.680  0.6002 -0.0488  0.6014
 6742TIP3    H141641   2.677   0.121   2.667 -0.4614 -1.3896 -2.5161
 6742TIP3    H241642   2.686  -0.025   2.706  1.2831 -0.5134  0.7078
 6743TIP3   OH241643   0.929   0.740  16.389 -0.1002  0.0751 -0.1889
 6743TIP3    H141644   0.857   0.754  16.451 -0.1458 -2.1093  0.3489
 6743TIP3    H241645   0.918   0.809  16.324 -0.7678  1.7472  1.5681
 6744TIP3   OH241646   2.333   4.663  14.755 -0.2505  0.3392  0.2039
 6744TIP3    H141647   2.265   4.727  14.733 -0.2822  0.4017  0.4881
 6744TIP3    H241648   2.403   4.681  14.692  1.3150  3.0903  2.4766
 6745TIP3   OH241649   2.234   3.797   0.599 -0.5258 -0.0544 -0.1883
 6745TIP3    H141650   2.222   3.889   0.575  0.1706 -0.4995 -2.4431
 6745TIP3    H241651   2.252   3.753   0.516 -1.8101 -2.4153  0.7067
 6746TIP3   OH241652   6.136   5.439  13.714 -0.3870 -0.4860  0.1785
 6746TIP3    H141653   6.060   5.435  13.656  0.1624  0.1195 -0.6137
 6746TIP3    H241654   6.122   5.518  13.767 -0.3473 -0.4186  0.0878
 6747TIP3   OH241655   0.873   4.465  15.760  0.2132 -0.2061  0.5573
 6747TIP3    H141656   0.806   4.512  15.809  0.2135  0.9382 -0.4803
 6747TIP3    H241657   0.855   4.486  15.668  2.0986  0.3362  0.2630
 6748TIP3   OH241658   5.855   3.998  11.580  0.0106 -0.4806  0.3912
 6748TIP3    H141659   5.877   4.033  11.666  1.5285 -1.5194  0.4708
 6748TIP3    H241660   5.909   4.049  11.519 -0.3672 -0.3643  0.1549
 6749TIP3   OH241661   0.684   4.326  13.928  0.1281 -0.1435  0.5937
 6749TIP3    H141662   0.678   4.257  13.994  0.1147 -0.5316  0.1862
 6749TIP3    H241663   0.679   4.407  13.979 -1.2200 -0.4357  0.9667
 6750TIP3   OH241664   3.820   4.382  11.379 -0.2137  0.4475 -0.4500
 6750TIP3    H141665   3.858   4.319  11.318  0.0787  0.8905 -0.7279
 6750TIP3    H241666   3.824   4.466  11.333  0.3648  0.8565  0.3107
 6751TIP3   OH241667   4.132   4.880  15.666 -0.5567  0.2278 -0.1089
 6751TIP3    H141668   4.054   4.849  15.619 -0.6604  0.1752  0.0949
 6751TIP3    H241669   4.167   4.801  15.708 -1.7315  0.6067  1.7496
 6752TIP3   OH241670   3.330   6.472   6.104 -0.1681  0.0349 -0.0908
 6752TIP3    H141671   3.374   6.553   6.130  0.6858 -0.1028 -1.0295
 6752TIP3    H241672   3.237   6.495   6.101 -0.2192  0.2990  2.0632
 6753TIP3   OH241673   1.515   5.642  14.909  0.6712  0.4445 -0.2541
 6753TIP3    H141674   1.552   5.570  14.857  0.5567  0.0969  0.1438
 6753TIP3    H241675   1.500   5.604  14.995 -1.2840  0.3605 -0.5853
 6754TIP3   OH241676   6.008   2.351   0.025  0.0812 -0.0350  0.0202
 6754TIP3    H141677   6.015   2.374  -0.068  2.3273 -0.4982  0.0194
 6754TIP3    H241678   5.919   2.315   0.034  0.0858 -0.7317 -2.1106
 6755TIP3   OH241679   5.374   2.412   2.203 -0.2459  0.0318  0.2787
 6755TIP3    H141680   5.311   2.463   2.254 -0.1452  1.1222 -0.6436
 6755TIP3    H241681   5.432   2.374   2.269 -0.7679  0.5156  1.0377
 6756TIP3   OH241682   5.549   3.683   5.432 -0.2723 -0.5421 -0.7954
 6756TIP3    H141683   5.552   3.613   5.497 -0.2703  0.1452 -0.0419
 6756TIP3    H241684   5.499   3.753   5.474 -0.9159 -0.3735 -1.8209
 6757TIP3   OH241685   1.205   2.352   3.646  0.2562  0.2504  0.5168
 6757TIP3    H141686   1.247   2.342   3.731  1.5576  0.6299 -0.0491
 6757TIP3    H241687   1.151   2.431   3.655 -1.1003 -0.7423  1.5270
 6758TIP3   OH241688   6.420   5.898   4.860  0.4624  0.4204 -0.0638
 6758TIP3    H141689   6.348   5.880   4.921  0.5928 -0.0205 -0.0413
 6758TIP3    H241690   6.499   5.890   4.912  0.6785 -1.5594 -0.6259
 6759TIP3   OH241691   6.198   6.386  12.610 -1.2889  0.0107  0.1941
 6759TIP3    H141692   6.227   6.295  12.621  0.9879  0.6892  0.3260
 6759TIP3    H241693   6.219   6.428  12.694 -0.0631  1.1736 -0.6493
 6760TIP3   OH241694   5.689   2.849  14.109 -0.2035 -0.1354 -0.2544
 6760TIP3    H141695   5.636   2.853  14.029  0.2034 -0.9306 -0.5767
 6760TIP3    H241696   5.722   2.760  14.111 -0.2760 -0.1438  0.8597
 6761TIP3   OH241697   5.430   4.512   4.950  0.3906  0.1449  0.0447
 6761TIP3    H141698   5.421   4.468   5.035 -1.0581 -0.8178 -0.5633
 6761TIP3    H241699   5.470   4.596   4.970  0.3382 -0.1894  1.6522
 6762TIP3   OH241700   3.197   1.218  11.217 -0.3669 -0.7207 -0.0416
 6762TIP3    H141701   3.229   1.302  11.184  2.0441 -0.2714  2.9900
 6762TIP3    H241702   3.245   1.152  11.167 -0.1431 -0.1962 -0.5243
 6763TIP3   OH241703   6.300   2.164   2.032  0.2459  0.1947  0.4139
 6763TIP3    H141704   6.230   2.196   2.089  0.9264 -0.0506  1.3997
 6763TIP3    H241705   6.254   2.124   1.958 -0.6406  1.8545  0.0082
 6764TIP3   OH241706   2.906   3.486  16.288 -0.0372 -0.7829 -0.1753
 6764TIP3    H141707   2.996   3.465  16.311 -0.1317  1.1313  2.4292
 6764TIP3    H241708   2.913   3.547  16.215  0.7780 -0.5289  0.1076
 6765TIP3   OH241709   2.799   6.589  11.056  0.1035  0.1382  0.0382
 6765TIP3    H141710   2.818   6.515  11.114 -1.7297  0.0835  0.6320
 6765TIP3    H241711   2.704   6.588  11.045  0.1763  1.5307 -1.1476
 6766TIP3   OH241712   4.578   1.428   1.677 -0.3360 -0.0879  0.1026
 6766TIP3    H141713   4.673   1.429   1.666 -0.4113  0.9659 -0.6991
 6766TIP3    H241714   4.547   1.358   1.620 -0.2888  1.9623 -2.6665
 6767TIP3   OH241715   4.681   1.733  13.852  0.4547 -0.1081 -0.3495
 6767TIP3    H141716   4.599   1.768  13.886  0.0075 -0.3084 -1.1912
 6767TIP3    H241717   4.691   1.776  13.767  1.3112  0.0366 -0.1881
 6768TIP3   OH241718   5.056   3.438   0.245  0.1424 -0.0950 -0.0424
 6768TIP3    H141719   5.099   3.417   0.328  0.4833 -1.3578 -0.5182
 6768TIP3    H241720   5.119   3.493   0.199  0.3119 -0.1081  0.1710
 6769TIP3   OH241721   4.054   0.546   3.295 -0.1400  0.5905  0.2073
 6769TIP3    H141722   3.982   0.516   3.239  0.0267  1.8723 -0.7337
 6769TIP3    H241723   4.029   0.518   3.383 -1.1289 -0.1764 -0.2987
 6770TIP3   OH241724   3.757   0.692  16.254  0.2564  0.0720 -0.1695
 6770TIP3    H141725   3.728   0.720  16.341 -2.2058 -0.6157 -0.6805
 6770TIP3    H241726   3.675   0.675  16.207  1.5637 -1.1751 -2.0885
 6771TIP3   OH241727   2.432   4.317   2.911  0.4298 -0.1467 -0.0843
 6771TIP3    H141728   2.438   4.400   2.865  0.3012 -0.5968 -0.9245
 6771TIP3    H241729   2.352   4.276   2.879 -0.3121  0.0498  1.4314
 6772TIP3   OH241730   0.204   0.727  15.609 -0.0230 -0.4189  0.8167
 6772TIP3    H141731   0.278   0.712  15.669  0.8843  0.9519  0.0783
 6772TIP3    H241732   0.131   0.749  15.666  0.3202 -1.0464  1.5177
 6773TIP3   OH241733   3.038   1.736   2.305 -0.3025  0.0950 -0.2217
 6773TIP3    H141734   3.045   1.640   2.302 -0.9603 -0.0261  1.0825
 6773TIP3    H241735   3.115   1.764   2.355 -0.6961  0.1388  0.3688
 6774TIP3   OH241736   1.378   3.918  10.976 -0.6287  0.9581 -0.0497
 6774TIP3    H141737   1.465   3.882  10.995 -0.9625  0.2609  0.2171
 6774TIP3    H241738   1.395   3.995  10.922  0.1132  0.3613 -0.6867
 6775TIP3   OH241739   6.402   5.085  12.391 -0.3754  0.0732 -0.0499
 6775TIP3    H141740   6.457   5.162  12.374 -1.4354  0.7197 -0.7159
 6775TIP3    H241741   6.408   5.033  12.311 -0.9593  0.3042 -0.2502
 6776TIP3   OH241742   6.421   4.196   1.869  0.2902  0.3584  0.1213
 6776TIP3    H141743   6.395   4.288   1.862  0.4001  0.3985  0.2337
 6776TIP3    H241744   6.514   4.196   1.849  0.2274  0.2295 -0.1747
 6777TIP3   OH241745   5.677   1.793   0.327 -0.2850 -0.3085 -0.2160
 6777TIP3    H141746   5.674   1.709   0.374 -1.0062 -0.2561 -0.1569
 6777TIP3    H241747   5.713   1.771   0.241  1.6289 -0.3157  0.5171
 6778TIP3   OH241748   4.702   5.464   1.535  0.2039  0.0661 -0.0290
 6778TIP3    H141749   4.734   5.477   1.445  1.4215 -2.6954 -0.1047
 6778TIP3    H241750   4.768   5.508   1.589  0.9110 -0.4865 -0.4168
 6779TIP3   OH241751   4.836   2.649   2.820 -0.4715 -0.1822 -0.2110
 6779TIP3    H141752   4.821   2.580   2.755 -0.0595  0.3407 -0.8774
 6779TIP3    H241753   4.908   2.616   2.873  1.3505  0.6825 -1.9899
 6780TIP3   OH241754   2.142   2.459   2.462  0.2462  0.3058  0.5392
 6780TIP3    H141755   2.080   2.500   2.521  1.4827  1.5416  1.0268
 6780TIP3    H241756   2.096   2.381   2.429 -2.5889  2.4876 -1.1653
 6781TIP3   OH241757   5.235   3.293  16.713 -0.4213 -0.1779  0.8558
 6781TIP3    H141758   5.157   3.329  16.669  0.1148  0.9670  0.7967
 6781TIP3    H241759   5.270   3.367  16.762  1.4203 -0.2904 -0.2254
 6782TIP3   OH241760   3.283   3.366  10.655 -0.5046 -0.4181  0.0323
 6782TIP3    H141761   3.213   3.391  10.595 -1.2160 -1.0414  0.5837
 6782TIP3    H241762   3.362   3.370  10.603 -0.9957 -0.0499 -0.6989
 6783TIP3   OH241763   0.569   4.650   0.179  0.0591  0.6100  0.4066
 6783TIP3    H141764   0.543   4.710   0.249 -1.0336 -0.1308  0.6540
 6783TIP3    H241765   0.612   4.707   0.114  0.1162  1.4692  1.1676
 6784TIP3   OH241766   0.799   3.683  16.650 -0.4084 -0.0727  0.0604
 6784TIP3    H141767   0.795   3.596  16.612 -3.7540  0.7301 -1.8626
 6784TIP3    H241768   0.759   3.673  16.737 -0.0975 -0.5569  0.1516
 6785TIP3   OH241769   4.634   3.937   4.074  0.3358  0.1353  0.1400
 6785TIP3    H141770   4.657   3.945   4.166 -0.4936 -3.5124  0.8027
 6785TIP3    H241771   4.703   3.883   4.036 -0.9528 -1.1220 -0.5436
 6786TIP3   OH241772   6.600   4.599  12.267 -0.3055 -0.0122 -0.5422
 6786TIP3    H141773   6.622   4.630  12.355  2.9044  1.0217 -1.5781
 6786TIP3    H241774   6.577   4.678  12.218 -1.8295 -0.5554 -0.7755
 6787TIP3   OH241775   6.472   3.143  12.787  0.8235 -0.3386 -0.3152
 6787TIP3    H141776   6.510   3.207  12.727  0.7955 -1.5223 -1.6636
 6787TIP3    H241777   6.434   3.076  12.729  1.2924 -1.8312  1.0288
 6788TIP3   OH241778   3.499   4.340   0.379 -0.2023  0.7059 -0.3981
 6788TIP3    H141779   3.529   4.251   0.397 -0.4561  0.5130 -0.9001
 6788TIP3    H241780   3.507   4.349   0.284  0.4943  1.4668 -0.2784
 6789TIP3   OH241781   1.699   5.431  12.376 -0.2204 -0.5678 -0.2425
 6789TIP3    H141782   1.776   5.476  12.342  0.0196 -0.0286  0.9898
 6789TIP3    H241783   1.641   5.501  12.407 -0.4015 -1.0388  0.5104
 6790TIP3   OH241784   6.586   6.126   1.312  0.1674 -0.0291 -0.6727
 6790TIP3    H141785   6.642   6.191   1.354 -0.2777  0.5201 -0.9307
 6790TIP3    H241786   6.498   6.145   1.344  0.2542 -1.6240  0.6749
 6791TIP3   OH241787   6.597   6.533  12.489  0.0005 -1.4900  0.2642
 6791TIP3    H141788   6.597   6.587  12.410  0.2472 -1.4070  0.3220
 6791TIP3    H241789   6.684   6.544  12.527 -0.1343 -1.4849  0.5803
 6792TIP3   OH241790   3.209   5.945   6.094  0.4240  0.0446 -0.1495
 6792TIP3    H141791   3.294   5.972   6.126  0.3254  1.0584 -0.7217
 6792TIP3    H241792   3.158   6.025   6.088  0.3047 -0.1447 -2.4161
 6793TIP3   OH241793   3.472   5.215  14.552  0.1116 -0.2931  0.1062
 6793TIP3    H141794   3.530   5.204  14.476 -0.3511 -1.1251 -0.1448
 6793TIP3    H241795   3.449   5.125  14.577 -0.6414  0.0120  0.5230
 6794TIP3   OH241796   6.221   1.076   3.644  0.8412  0.3484 -0.7283
 6794TIP3    H141797   6.201   0.995   3.596 -0.4913  0.5110 -0.4914
 6794TIP3    H241798   6.305   1.059   3.685  0.1786 -1.2896  0.0644
 6795TIP3   OH241799   2.073   2.999   4.737 -0.9710 -0.1193 -0.1041
 6795TIP3    H141800   2.068   3.040   4.823  0.7381 -2.8001  1.4285
 6795TIP3    H241801   1.983   2.972   4.717 -1.3582  0.3413  0.9652
 6796TIP3   OH241802   3.303   6.621  11.641 -0.2111  0.0011  0.1101
 6796TIP3    H141803   3.320   6.534  11.677 -1.7335 -0.9965 -1.4148
 6796TIP3    H241804   3.227   6.652  11.690 -0.5405 -0.1505 -0.2974
 6797TIP3   OH241805   3.124   5.668   4.257 -0.0733 -0.0398  0.4534
 6797TIP3    H141806   3.082   5.753   4.273 -1.5657 -0.6246 -0.1509
 6797TIP3    H241807   3.170   5.679   4.174  0.2618  0.3545  0.6878
 6798TIP3   OH241808   3.376   4.339   2.900 -0.3379  0.2548 -0.1850
 6798TIP3    H141809   3.344   4.390   2.826 -3.0925  0.4605  0.9851
 6798TIP3    H241810   3.341   4.386   2.977  2.8389  0.3630  1.3349
 6799TIP3   OH241811   3.006   2.454  16.583 -0.1695  0.2084  0.6569
 6799TIP3    H141812   2.986   2.425  16.672  0.0838  2.6307  1.5507
 6799TIP3    H241813   2.920   2.477  16.546 -0.2214 -0.3777  0.3845
 6800TIP3   OH241814   6.353   2.146  13.259 -0.6348 -0.3525 -0.3651
 6800TIP3    H141815   6.442   2.173  13.280 -1.0630  1.5930 -0.8740
 6800TIP3    H241816   6.342   2.167  13.167 -2.4760  2.1724  0.3076
 6801TIP3   OH241817   4.642   1.861  13.199 -0.4068 -0.1653  0.4024
 6801TIP3    H141818   4.569   1.857  13.261  0.1161  0.9026  1.1317
 6801TIP3    H241819   4.619   1.933  13.140 -0.7057 -0.9074 -0.3989
 6802TIP3   OH241820   2.623   2.022  14.807 -0.4092 -0.7522 -0.2562
 6802TIP3    H141821   2.540   2.045  14.848  1.4519  0.8346  3.1028
 6802TIP3    H241822   2.655   2.105  14.771  0.4038 -0.9684 -0.0595
 6803TIP3   OH241823   5.366   6.131   0.605  0.0691 -0.1473  0.6396
 6803TIP3    H141824   5.393   6.046   0.570  0.2577  0.1871 -0.0497
 6803TIP3    H241825   5.345   6.113   0.696 -2.3159 -1.4467 -0.0746
 6804TIP3   OH241826   2.294   4.705   5.769  0.0981  0.1349  0.9789
 6804TIP3    H141827   2.330   4.789   5.799 -1.2199  1.5514 -1.1754
 6804TIP3    H241828   2.307   4.646   5.844  0.4538  2.4115  2.8413
 6805TIP3   OH241829   3.877   6.619   0.371  0.4116 -0.2625  0.4633
 6805TIP3    H141830   3.916   6.690   0.423  0.5241 -0.6845  0.9529
 6805TIP3    H241831   3.887   6.541   0.425 -2.2616 -0.1944  1.1869
 6806TIP3   OH241832   0.357   0.575  13.213  0.0294  0.3217  0.2639
 6806TIP3    H141833   0.363   0.604  13.123  2.1886 -0.6605  0.0226
 6806TIP3    H241834   0.395   0.487  13.213 -0.8299 -0.1102  1.9615
 6807TIP3   OH241835   5.093   0.037   2.047  0.3346 -1.3879 -0.7128
 6807TIP3    H141836   5.011   0.085   2.057  1.6008  0.7682 -0.1429
 6807TIP3    H241837   5.124   0.022   2.137  0.9878 -1.4223 -0.9341
 6808TIP3   OH241838   1.364   5.032   0.176  0.5117  0.4667 -0.4176
 6808TIP3    H141839   1.413   4.953   0.153  1.4364  0.8432  0.2059
 6808TIP3    H241840   1.430   5.101   0.179  0.0286  0.8945  0.9706
 6809TIP3   OH241841   4.784   1.402   6.537 -0.1988  0.4048  0.4816
 6809TIP3    H141842   4.741   1.332   6.488 -1.2394 -0.9859  3.1718
 6809TIP3    H241843   4.725   1.420   6.610  0.5315  3.4327  0.4680
 6810TIP3   OH241844   5.665   4.336  15.005  0.3525 -0.0133 -0.2793
 6810TIP3    H141845   5.755   4.349  15.035  0.5105 -0.4437 -0.5675
 6810TIP3    H241846   5.623   4.422  15.017  0.5825 -0.0142  0.5855
 6811TIP3   OH241847   2.986   0.620  11.476 -0.1024 -0.1198 -0.6555
 6811TIP3    H141848   2.942   0.578  11.550  0.4450 -1.1414 -0.8849
 6811TIP3    H241849   3.035   0.692  11.514  0.4535 -0.8500  0.0372
 6812TIP3   OH241850   4.450   2.529  11.384  0.1828  0.2621  0.3048
 6812TIP3    H141851   4.436   2.455  11.325  0.1773 -0.2143  0.8911
 6812TIP3    H241852   4.533   2.510  11.426  1.3249  1.7216 -1.1665
 6813TIP3   OH241853   0.949   1.278   1.443 -0.0314 -0.7843 -0.1608
 6813TIP3    H141854   0.926   1.313   1.529 -0.6661 -0.4890 -0.4438
 6813TIP3    H241855   0.884   1.316   1.384  1.5537  0.5898 -1.1056
 6814TIP3   OH241856   3.350   4.713   1.630 -0.0662  0.3305  0.1949
 6814TIP3    H141857   3.374   4.663   1.708  2.9597  0.4795 -0.5185
 6814TIP3    H241858   3.371   4.804   1.653 -0.5040  0.5720 -0.3289
 6815TIP3   OH241859   2.064   0.393   6.080 -0.5975  0.3279 -0.9942
 6815TIP3    H141860   2.116   0.319   6.113  2.0804  1.4306 -2.3785
 6815TIP3    H241861   2.051   0.449   6.157 -1.9781 -1.1509 -0.0975
 6816TIP3   OH241862   4.624   6.466  11.441  0.4749  0.1525 -0.0654
 6816TIP3    H141863   4.539   6.422  11.445 -0.1532  1.2166 -1.1533
 6816TIP3    H241864   4.615   6.543  11.496  0.7049  0.3123 -0.2461
 6817TIP3   OH241865   3.796   3.572   5.665 -0.6924 -0.3529 -0.4974
 6817TIP3    H141866   3.796   3.665   5.687 -1.0779 -0.2300 -0.9990
 6817TIP3    H241867   3.806   3.570   5.570  3.5024 -0.9329 -0.2105
 6818TIP3   OH241868   2.026   0.305   4.598 -0.1916  0.5478  0.4436
 6818TIP3    H141869   1.997   0.266   4.681  0.0213  1.2688  0.8705
 6818TIP3    H241870   1.954   0.362   4.572 -0.7470 -0.5507 -0.4778
 6819TIP3   OH241871   2.136   2.068   2.745  0.2296 -0.1758 -0.0635
 6819TIP3    H141872   2.138   2.156   2.784 -4.2453  1.1301 -2.1102
 6819TIP3    H241873   2.102   2.012   2.814  2.2588 -0.1804  0.9827
 6820TIP3   OH241874   6.378   4.111  14.376  0.1420  0.1620  0.3032
 6820TIP3    H141875   6.450   4.049  14.367  0.0925  0.1597 -0.1154
 6820TIP3    H241876   6.367   4.147  14.288 -0.6839 -0.1920  0.2506
 6821TIP3   OH241877   6.526   6.067  13.134  0.0930  0.5160 -0.2033
 6821TIP3    H141878   6.548   6.053  13.226 -0.1987 -1.5056 -0.3822
 6821TIP3    H241879   6.441   6.111  13.136 -0.2751 -0.1842  0.5308
 6822TIP3   OH241880   6.674   5.284  13.298 -0.2348 -0.5696  0.1769
 6822TIP3    H141881   6.722   5.201  13.311 -0.7490 -0.5718  2.6534
 6822TIP3    H241882   6.594   5.273  13.350 -0.4027  1.4023  0.3921
 6823TIP3   OH241883   5.854   5.065   3.037  1.0702 -0.2787 -0.4267
 6823TIP3    H141884   5.944   5.059   3.069  0.7838 -0.3870  0.3681
 6823TIP3    H241885   5.812   4.984   3.066  0.2185  0.5642  0.8074
 6824TIP3   OH241886   0.398   1.637   1.728 -0.5818 -0.0530  0.2781
 6824TIP3    H141887   0.364   1.659   1.641  2.2910  1.5786 -0.5426
 6824TIP3    H241888   0.359   1.702   1.786  0.7897  1.6356 -0.6035
 6825TIP3   OH241889   5.996   4.241  13.055 -0.0814 -0.1386  0.4778
 6825TIP3    H141890   5.989   4.238  12.960 -0.2416 -0.6364  0.4992
 6825TIP3    H241891   5.917   4.287  13.084  1.2553  2.4476  0.2428
 6826TIP3   OH241892   4.541   6.572  15.827 -0.2658 -0.6085 -0.5846
 6826TIP3    H141893   4.508   6.566  15.917 -3.1181 -0.5759 -1.5374
 6826TIP3    H241894   4.576   6.662  15.821  1.4277 -1.0964  0.8518
 6827TIP3   OH241895   2.602   1.394  12.629  0.4567  0.2171  0.1131
 6827TIP3    H141896   2.510   1.373  12.615  0.2016  1.2717  0.1309
 6827TIP3    H241897   2.601   1.471  12.686  1.3293  0.8122 -0.6449
 6828TIP3   OH241898   3.399   5.164  16.716 -0.5037 -0.0498 -0.9025
 6828TIP3    H141899   3.375   5.153  16.808 -1.0079  1.9075 -0.7735
 6828TIP3    H241900   3.487   5.202  16.718 -0.1654 -0.7905 -1.2617
 6829TIP3   OH241901   2.763   6.061  12.664  0.0731 -0.0800 -0.5437
 6829TIP3    H141902   2.671   6.069  12.642 -0.3514 -0.3996  1.0008
 6829TIP3    H241903   2.778   5.967  12.673  0.4485 -0.0117 -0.4042
 6830TIP3   OH241904   0.844   5.761  12.828  0.0268 -0.2386  0.2470
 6830TIP3    H141905   0.792   5.680  12.830 -0.3022 -0.0402 -0.1024
 6830TIP3    H241906   0.897   5.758  12.908 -0.2097 -0.6520  0.3894
 6831TIP3   OH241907   2.397   1.270  16.254  0.2070  0.0509 -0.0951
 6831TIP3    H141908   2.402   1.301  16.345 -1.2036 -1.6981  0.6387
 6831TIP3    H241909   2.489   1.261  16.227  0.6429  1.6366  0.7575
 6832TIP3   OH241910   0.041   1.932  15.741 -0.0948 -0.2474 -0.0871
 6832TIP3    H141911   0.126   1.973  15.758 -0.6522  1.2535 -0.8260
 6832TIP3    H241912   0.056   1.876  15.665  0.5045 -0.9610  0.5289
 6833TIP3   OH241913   1.296   2.484  12.736 -0.0544  0.2643  0.5698
 6833TIP3    H141914   1.208   2.490  12.700  0.1751  1.2694  0.1691
 6833TIP3    H241915   1.310   2.390  12.749 -0.5282 -0.0399 -0.9959
 6834TIP3   OH241916   1.638   1.298   0.797  0.1854  0.2523  0.5864
 6834TIP3    H141917   1.589   1.379   0.781 -1.3754  0.0089  3.4348
 6834TIP3    H241918   1.711   1.326   0.853  0.8391 -0.0284 -0.1171
 6835TIP3   OH241919   4.540   1.752  15.294  0.1735 -0.1349 -0.5114
 6835TIP3    H141920   4.573   1.753  15.204  1.5034  1.2288 -0.0517
 6835TIP3    H241921   4.448   1.725  15.285  0.9229 -2.5081 -1.9977
 6836TIP3   OH241922   0.413   3.838   4.633  0.7710 -0.1525 -0.1669
 6836TIP3    H141923   0.425   3.792   4.550  0.0380 -2.0054  0.6995
 6836TIP3    H241924   0.318   3.832   4.649  0.7184  1.3278  0.1876
 6837TIP3   OH241925   5.139   4.635  11.481 -0.7955 -0.5457 -0.2076
 6837TIP3    H141926   5.194   4.561  11.456 -0.6418 -0.1483 -1.0737
 6837TIP3    H241927   5.055   4.617  11.438 -0.4705  0.2365 -1.2100
 6838TIP3   OH241928   4.910   0.716  14.928 -0.0609 -0.2905 -0.6700
 6838TIP3    H141929   4.929   0.623  14.942 -0.4261 -0.2520  0.0946
 6838TIP3    H241930   4.964   0.762  14.993 -2.0532 -0.1333  0.9754
 6839TIP3   OH241931   4.656   2.993   0.788 -0.3814 -0.2645 -0.0090
 6839TIP3    H141932   4.659   3.081   0.751  0.2977 -0.5469 -0.6542
 6839TIP3    H241933   4.579   2.953   0.748  1.3018 -1.1685 -2.6196
 6840TIP3   OH241934   2.748   6.515  16.246  0.2625 -0.1587 -0.3406
 6840TIP3    H141935   2.813   6.514  16.316  2.5359  1.3293 -2.2829
 6840TIP3    H241936   2.764   6.597  16.199 -1.8991 -0.5654 -1.9512
 6841TIP3   OH241937   0.256   6.624   0.726 -0.2902  0.3344  0.0719
 6841TIP3    H141938   0.191   6.565   0.690  1.3981 -1.0261 -0.8946
 6841TIP3    H241939   0.212   6.709   0.729 -1.4741 -0.0757 -2.5376
 6842TIP3   OH241940   0.296   1.580  12.582 -0.1042 -0.1340 -0.5952
 6842TIP3    H141941   0.253   1.605  12.664 -0.4461 -0.2544 -0.7367
 6842TIP3    H241942   0.376   1.536  12.609 -0.4691 -0.6341 -0.3128
 6843TIP3   OH241943   4.514   2.508  12.990 -0.2388  0.0364  0.2655
 6843TIP3    H141944   4.421   2.529  13.002  0.4503  3.1576  1.2273
 6843TIP3    H241945   4.530   2.524  12.897 -0.0392  3.0675  0.7143
 6844TIP3   OH241946   3.302   1.322  16.019 -0.0782  0.5785 -0.1280
 6844TIP3    H141947   3.242   1.282  15.956  0.8037  1.4726 -1.5788
 6844TIP3    H241948   3.247   1.384  16.067 -0.8225 -0.3151  0.1964
 6845TIP3   OH241949   2.589   1.276  11.525 -0.3612  0.5117 -0.0457
 6845TIP3    H141950   2.682   1.254  11.533 -0.2010  1.4579  0.8009
 6845TIP3    H241951   2.585   1.335  11.450 -0.4811 -0.5549 -0.9080
 6846TIP3   OH241952   3.476   0.504   4.970 -0.5367  0.0263  0.1310
 6846TIP3    H141953   3.551   0.545   4.926  0.0477 -0.4023  0.7221
 6846TIP3    H241954   3.409   0.573   4.970 -0.1176  0.4464 -0.3236
 6847TIP3   OH241955   1.675   3.474  13.024  0.0426  0.1355 -0.1331
 6847TIP3    H141956   1.603   3.454  12.965 -1.4568 -2.5218  2.3479
 6847TIP3    H241957   1.636   3.533  13.089  0.4468 -0.3171  0.5269
 6848TIP3   OH241958   4.086   1.149  14.191  0.0665 -0.0211  0.5068
 6848TIP3    H141959   4.048   1.189  14.112  0.2587 -0.3092  0.2636
 6848TIP3    H241960   4.034   1.184  14.263 -1.2522 -1.1006  0.1090
 6849TIP3   OH241961   1.156   0.142   5.401  0.5981  0.8685 -0.5045
 6849TIP3    H141962   1.071   0.168   5.365 -0.1248 -0.4462  0.1642
 6849TIP3    H241963   1.216   0.146   5.327 -0.6773 -1.0234 -1.7250
 6850TIP3   OH241964   5.338   3.127   5.083  0.4990 -0.0686  0.0893
 6850TIP3    H141965   5.273   3.144   5.152  0.8558  0.7471  0.2330
 6850TIP3    H241966   5.331   3.202   5.024 -0.5897 -1.2854 -1.4193
 6851TIP3   OH241967   1.376   1.976  15.615  0.1515  0.7678  0.1710
 6851TIP3    H141968   1.433   1.947  15.543 -0.1453  2.7485 -0.9143
 6851TIP3    H241969   1.381   2.071  15.614 -2.4632  0.9886  0.6449
 6852TIP3   OH241970   3.249   1.151  15.496 -0.4911  0.0052  0.3081
 6852TIP3    H141971   3.254   1.127  15.403 -0.6021 -0.0614  0.3199
 6852TIP3    H241972   3.156   1.170  15.511 -0.3737  0.6893  0.2372
 6853TIP3   OH241973   3.976   5.223   0.623 -0.6150 -0.1384  0.3552
 6853TIP3    H141974   3.882   5.234   0.636 -0.6270  0.5073 -0.1825
 6853TIP3    H241975   3.984   5.159   0.552 -0.5957 -1.7407  1.7552
 6854TIP3   OH241976   2.010   6.521   2.475 -0.0011 -0.2201  0.1035
 6854TIP3    H141977   2.096   6.482   2.461 -0.0073  0.1866 -1.1827
 6854TIP3    H241978   1.948   6.452   2.449 -0.0382  0.0524 -0.5310
 6855TIP3   OH241979   1.451   3.461   2.703 -0.2907  0.3143  0.2303
 6855TIP3    H141980   1.446   3.382   2.757  0.2096 -0.4344 -0.7828
 6855TIP3    H241981   1.545   3.476   2.692 -0.3823  0.2632 -0.6830
 6856TIP3   OH241982   3.704   4.190   1.890  0.0645 -0.1789 -0.0644
 6856TIP3    H141983   3.759   4.241   1.950 -1.7841  1.8738  0.0368
 6856TIP3    H241984   3.658   4.128   1.946  1.8601 -1.6147 -0.0939
 6857TIP3   OH241985   6.652   2.562   3.864  0.5426  0.0620 -0.3476
 6857TIP3    H141986   6.678   2.580   3.955 -1.3770 -0.1222  0.2805
 6857TIP3    H241987   6.619   2.472   3.866 -1.1439  0.6319 -0.8117
 6858TIP3   OH241988   2.021   5.151   1.528 -0.3262 -0.0395 -0.1935
 6858TIP3    H141989   2.020   5.231   1.581  0.4662  0.2534 -0.6046
 6858TIP3    H241990   2.106   5.111   1.547 -0.4158 -0.4034 -0.5467
 6859TIP3   OH241991   3.052   1.107   5.957 -0.0949  0.1083  0.1713
 6859TIP3    H141992   3.087   1.111   6.046 -1.2907  0.8726  0.6319
 6859TIP3    H241993   3.092   1.028   5.920 -1.1309 -1.4175  2.0779
 6860TIP3   OH241994   6.039   6.492  11.842  0.2795  0.6115 -0.1041
 6860TIP3    H141995   6.036   6.472  11.935 -0.6761 -2.7546 -0.7286
 6860TIP3    H241996   5.949   6.511  11.818 -0.1450 -1.9794 -0.8735
 6861TIP3   OH241997   3.342   1.954   3.228  0.4176  0.0264  0.2747
 6861TIP3    H141998   3.256   1.917   3.244 -0.0620  1.1414  0.3721
 6861TIP3    H241999   3.325   2.036   3.182  1.3979  0.4711  0.6699
 6862TIP3   OH242000   2.535   1.133   3.361 -0.1981  0.6173 -0.0888
 6862TIP3    H142001   2.457   1.087   3.330 -0.9939  1.4253  0.6404
 6862TIP3    H242002   2.608   1.084   3.324 -1.0268 -0.6242 -0.1423
 6863TIP3   OH242003   3.860   4.947  12.323  0.1462  0.2670  0.1161
 6863TIP3    H142004   3.865   4.913  12.412 -0.1908 -0.1020 -0.0029
 6863TIP3    H242005   3.767   4.959  12.307  0.2219  0.6003 -0.0888
 6864TIP3   OH242006   5.186   2.369   0.051  0.0156 -0.8985 -0.0780
 6864TIP3    H142007   5.240   2.447   0.042  0.5550 -0.9262  2.1801
 6864TIP3    H242008   5.097   2.400   0.037  0.3577 -0.2352 -0.8631
 6865TIP3   OH242009   5.424   0.187   2.743  0.2078 -0.1303  0.4593
 6865TIP3    H142010   5.380   0.140   2.672  1.1022  0.8301 -0.7856
 6865TIP3    H242011   5.361   0.253   2.771 -0.0691 -0.3703  0.4065
 6866TIP3   OH242012   6.454   0.555  16.999  0.0564 -0.2326  0.4834
 6866TIP3    H142013   6.393   0.609  17.049  0.1156  0.8289 -0.5551
 6866TIP3    H242014   6.512   0.617  16.956 -1.2274 -0.9182 -2.5136
 6867TIP3   OH242015   4.949   5.679  14.302 -0.3581  0.1874  0.0157
 6867TIP3    H142016   4.980   5.760  14.261 -2.2174  0.0706 -1.7942
 6867TIP3    H242017   4.948   5.615  14.231  2.5444 -1.9982  1.7051
 6868TIP3   OH242018   1.954   5.890  16.218  0.0750  0.2451 -0.1689
 6868TIP3    H142019   1.917   5.978  16.210 -0.7470 -0.0607  0.1198
 6868TIP3    H242020   2.012   5.881  16.143 -0.2119  0.8592 -0.4695
 6869TIP3   OH242021   1.296   6.705   0.626  0.5754 -0.3164 -1.1350
 6869TIP3    H142022   1.295   6.746   0.539 -1.1990 -0.2631 -1.1244
 6869TIP3    H242023   1.348   6.764   0.680  1.0707  0.0364 -1.9762
 6870TIP3   OH242024   3.926   6.482   2.042  0.3289 -0.1263 -0.5533
 6870TIP3    H142025   3.959   6.472   2.131  1.6390 -0.1601 -1.0100
 6870TIP3    H242026   3.926   6.577   2.027 -1.3240 -0.0222 -0.0283
 6871TIP3   OH242027   0.537   6.140   2.887  0.0716  0.9768  0.2845
 6871TIP3    H142028   0.529   6.052   2.925  1.6974 -0.6228 -2.7601
 6871TIP3    H242029   0.458   6.149   2.834  0.5671  0.7191 -0.5150
 6872TIP3   OH242030   2.990   3.256  14.372 -0.4977  0.3756 -0.3259
 6872TIP3    H142031   3.011   3.289  14.460  2.4242 -1.6012 -0.1681
 6872TIP3    H242032   3.006   3.330  14.314 -0.6432  1.1659  0.6195
 6873TIP3   OH242033   4.721   3.083  15.715 -0.0198 -0.4050  0.5587
 6873TIP3    H142034   4.648   3.105  15.773 -0.6989  1.5564 -0.8797
 6873TIP3    H242035   4.789   3.146  15.737 -0.4171  0.6042 -0.9078
 6874TIP3   OH242036   5.278   6.067   0.218  0.2767  0.3398 -0.0461
 6874TIP3    H142037   5.197   6.086   0.266  0.3128  1.5980 -0.4411
 6874TIP3    H242038   5.348   6.104   0.272  0.3456  1.4775 -0.8740
 6875TIP3   OH242039   5.482   1.113  12.327  0.6373  0.3083 -0.0215
 6875TIP3    H142040   5.435   1.190  12.294 -0.1645 -0.9914 -2.1082
 6875TIP3    H242041   5.572   1.143  12.338  0.6826  1.1983 -2.2975
 6876TIP3   OH242042   6.097   1.350   0.345 -0.1407 -0.3626  0.0612
 6876TIP3    H142043   6.174   1.339   0.289  0.2056 -0.4302  0.5415
 6876TIP3    H242044   6.036   1.282   0.316  1.5363 -2.9934  2.2432
 6877TIP3   OH242045   3.325   5.586  12.194 -0.4499 -0.4603  0.1539
 6877TIP3    H142046   3.369   5.504  12.216  0.6688  0.1472  0.2830
 6877TIP3    H242047   3.263   5.563  12.125 -0.8754 -1.5891  0.8843
 6878TIP3   OH242048   6.126   5.032  11.296 -0.7616 -0.5169 -0.2281
 6878TIP3    H142049   6.206   4.994  11.335 -0.3703  0.5050 -0.0096
 6878TIP3    H242050   6.057   5.008  11.358 -0.8161 -2.2099 -0.8811
 6879TIP3   OH242051   0.163   1.030   2.238  0.3402 -0.2274 -0.3241
 6879TIP3    H142052   0.177   0.966   2.308  0.1681  0.1083  0.0199
 6879TIP3    H242053   0.155   0.977   2.159 -0.1486 -0.6543  0.0043
 6880TIP3   OH242054   0.193   5.606   6.396  0.7967 -0.5308  0.4824
 6880TIP3    H142055   0.275   5.635   6.436  0.9778  0.7202 -0.7243
 6880TIP3    H242056   0.172   5.525   6.441  3.0291 -1.2222  0.3921
 6881TIP3   OH242057   2.383   4.741  13.892 -0.2619 -0.5413 -0.1146
 6881TIP3    H142058   2.321   4.685  13.940  1.0616 -1.8664  0.1216
 6881TIP3    H242059   2.464   4.737  13.944  0.7515 -0.7964 -1.6683
 6882TIP3   OH242060   4.460   3.335  13.819 -0.5000  0.0638 -0.5052
 6882TIP3    H142061   4.468   3.420  13.774 -1.4760  1.3123  1.5127
 6882TIP3    H242062   4.380   3.297  13.783  0.3980 -0.4433 -2.0494
 6883TIP3   OH242063   5.284   3.991   5.082  0.0123 -0.2493 -0.0938
 6883TIP3    H142064   5.264   3.915   5.137  0.2144  0.1356  0.5205
 6883TIP3    H242065   5.371   4.018   5.110 -0.5018  0.8825  0.4838
 6884TIP3   OH242066   4.108   4.109  13.287  1.1625 -0.3184 -0.0472
 6884TIP3    H142067   4.049   4.169  13.334  0.5101 -1.6530  0.9036
 6884TIP3    H242068   4.097   4.133  13.195  0.3855  0.5599  0.2510
 6885TIP3   OH242069   1.849   1.189   5.479  0.4571  0.0654  0.0538
 6885TIP3    H142070   1.843   1.256   5.546 -0.7997 -1.1890  1.2478
 6885TIP3    H242071   1.832   1.235   5.397 -1.3000  1.0486  0.9351
 6886TIP3   OH242072   4.142   0.608   0.030  0.0852  0.3084 -0.2123
 6886TIP3    H142073   4.224   0.650   0.058 -0.2782 -0.6204  2.5338
 6886TIP3    H242074   4.170   0.538  -0.030  1.0778  1.3577 -1.0261
 6887TIP3   OH242075   2.770   6.063  13.384 -0.5363 -0.0913  0.0288
 6887TIP3    H142076   2.833   6.039  13.452  0.3435 -0.7537 -0.9869
 6887TIP3    H242077   2.821   6.111  13.319 -0.5807 -2.3618 -1.8033
 6888TIP3   OH242078   5.715   5.133   5.435 -0.0742 -0.1502  0.2661
 6888TIP3    H142079   5.739   5.061   5.493 -2.4904 -2.7192 -1.6575
 6888TIP3    H242080   5.796   5.155   5.389  1.5013  0.8270  3.1993
 6889TIP3   OH242081   1.480   3.989   0.288 -0.2641  0.0948 -0.1132
 6889TIP3    H142082   1.491   4.045   0.365  0.4573 -0.7736  0.4374
 6889TIP3    H242083   1.412   3.927   0.312 -1.3008  0.9185 -0.8468
 6890TIP3   OH242084   3.017   1.659  14.315  0.3755  0.0961  0.4917
 6890TIP3    H142085   3.112   1.647  14.304  0.0072 -1.0243 -2.2962
 6890TIP3    H242086   2.991   1.710  14.239 -1.3743 -0.2694  0.8120
 6891TIP3   OH242087   6.554   4.658  15.260  0.3165 -0.6535  0.1040
 6891TIP3    H142088   6.593   4.624  15.341 -0.9706 -0.9101  0.6394
 6891TIP3    H242089   6.560   4.585  15.198 -0.9468 -1.3429  0.7521
 6892TIP3   OH242090   6.428   6.061   5.393  0.6897  0.0957  0.1840
 6892TIP3    H142091   6.398   5.976   5.361  1.5562 -0.1935  0.1181
 6892TIP3    H242092   6.360   6.089   5.454 -0.7752  0.4542 -1.5397
 6893TIP3   OH242093   5.632   2.232  11.052  0.3742 -0.4387 -0.4447
 6893TIP3    H142094   5.696   2.161  11.052  0.2450 -0.5563 -0.9473
 6893TIP3    H242095   5.682   2.309  11.024  0.1232 -0.7026 -1.7046
 6894TIP3   OH242096   6.558   4.372   3.418  0.4204 -0.1334  0.0978
 6894TIP3    H142097   6.554   4.279   3.439  2.9007 -0.5807 -1.0037
 6894TIP3    H242098   6.585   4.375   3.326  1.6339  1.6316  0.4407
 6895TIP3   OH242099   1.241   2.187   4.388 -0.5558 -0.0486  0.2519
 6895TIP3    H142100   1.306   2.241   4.343 -0.6484  3.0973  3.5009
 6895TIP3    H242101   1.285   2.158   4.468 -1.7156 -1.8375  0.3011
 6896TIP3   OH242102   6.475   0.190   5.237 -0.5337 -0.0164 -0.0555
 6896TIP3    H142103   6.505   0.100   5.249  0.2391  0.1923 -0.3786
 6896TIP3    H242104   6.391   0.193   5.282 -1.0910 -1.1872 -0.9622
 6897TIP3   OH242105   1.620   1.969   5.276 -0.3085 -0.5887 -0.5996
 6897TIP3    H142106   1.542   2.021   5.298 -0.1982 -1.0949  1.1103
 6897TIP3    H242107   1.618   1.895   5.337  0.9079 -1.2381 -1.2979
 6898TIP3   OH242108   4.015   1.981  16.396  0.2943 -0.2400  0.7064
 6898TIP3    H142109   3.943   1.920  16.385  1.3945 -1.4431 -0.0440
 6898TIP3    H242110   4.094   1.927  16.392  1.4594  1.4294 -2.3109
 6899TIP3   OH242111   2.665   5.658  16.352 -0.1680 -0.1802 -0.2137
 6899TIP3    H142112   2.645   5.691  16.440  0.7015  0.5629 -0.2807
 6899TIP3    H242113   2.580   5.642  16.312 -0.6057  1.0068  0.1993
 6900TIP3   OH242114   5.270   5.276  12.244 -0.0869  0.1782  0.0963
 6900TIP3    H142115   5.202   5.286  12.310 -1.0421 -0.3376 -0.7685
 6900TIP3    H242116   5.296   5.184  12.250  1.2029  0.5636  1.0129
 6901TIP3   OH242117   3.566   6.151  10.740 -0.3743  0.6585 -0.1614
 6901TIP3    H142118   3.575   6.056  10.734 -0.5343  0.6193  0.2116
 6901TIP3    H242119   3.545   6.178  10.650 -3.4950 -0.0024  0.2486
 6902TIP3   OH242120   6.423   0.295   2.142  0.0022  0.7119 -0.2920
 6902TIP3    H142121   6.513   0.276   2.170  0.2574  2.6159  0.3481
 6902TIP3    H242122   6.434   0.351   2.065 -0.7020 -2.5197 -2.9562
 6903TIP3   OH242123   6.558   4.088   5.469 -0.3105  0.2896 -0.0889
 6903TIP3    H142124   6.491   4.021   5.478  0.8485 -0.8951 -0.1196
 6903TIP3    H242125   6.543   4.126   5.382 -0.5711 -0.3630 -0.3303
 6904TIP3   OH242126   6.064   1.953  13.879 -0.5914  0.4453  0.1063
 6904TIP3    H142127   6.139   1.899  13.851 -0.2238  1.3833 -0.7511
 6904TIP3    H242128   5.991   1.891  13.884 -0.2064 -0.1206 -0.9933
 6905TIP3   OH242129   3.246   3.611  11.701  0.5859  0.3120  0.1753
 6905TIP3    H142130   3.277   3.696  11.669  2.0088  0.5723  2.1002
 6905TIP3    H242131   3.155   3.625  11.724  0.3048  0.8208 -1.1855
 6906TIP3   OH242132   4.819   0.777  12.963  0.2011  0.9107 -0.4583
 6906TIP3    H142133   4.869   0.778  12.882  0.5114  0.2892 -0.2760
 6906TIP3    H242134   4.735   0.818  12.940  0.3464  0.8789 -1.0520
 6907TIP3   OH242135   1.095   1.215   1.134 -0.0003  0.3106 -0.2058
 6907TIP3    H142136   1.025   1.154   1.111 -1.3209  1.8604 -0.4552
 6907TIP3    H242137   1.125   1.187   1.220 -0.1328 -1.0454 -0.5723
 6908TIP3   OH242138   2.894   0.213   5.412  0.5555 -0.3281 -0.3014
 6908TIP3    H142139   2.858   0.125   5.400 -1.1792  0.1297  1.0722
 6908TIP3    H242140   2.817   0.270   5.409  1.2562  0.8375  1.7989
 6909TIP3   OH242141   1.701   2.761  11.996  0.4398 -0.3124  0.0407
 6909TIP3    H142142   1.709   2.706  11.918  1.6053  0.2322 -0.2489
 6909TIP3    H242143   1.755   2.838  11.977  1.8532 -0.7791  1.8970
 6910TIP3   OH242144   2.772   0.996  16.869  0.0245  0.2354 -0.3596
 6910TIP3    H142145   2.723   0.925  16.828  1.3118 -0.4236 -0.7960
 6910TIP3    H242146   2.842   0.953  16.917 -0.7037  1.0693  1.5450
 6911TIP3   OH242147   0.291   1.963  12.623  0.3191 -0.6376 -0.4692
 6911TIP3    H142148   0.264   1.975  12.714  0.9401 -1.5921 -0.1368
 6911TIP3    H242149   0.209   1.957  12.574 -0.0610  2.8865 -0.4613
 6912TIP3   OH242150   6.365   5.056  12.834  0.8283 -0.4231 -0.1711
 6912TIP3    H142151   6.288   5.016  12.874  0.4806 -0.0896 -0.5038
 6912TIP3    H242152   6.427   5.068  12.907  0.7789 -1.1851 -0.0015
 6913TIP3   OH242153   6.381   3.754  17.104 -0.4906 -0.3314 -0.5485
 6913TIP3    H142154   6.393   3.785  17.194 -1.9603 -0.1166 -0.4056
 6913TIP3    H242155   6.469   3.729  17.076  0.1830  0.6647  0.5490
 6914TIP3   OH242156   0.036   4.123  10.346 -0.2091 -0.1753  0.0012
 6914TIP3    H142157  -0.037   4.131  10.408  0.4515 -0.8330  0.8799
 6914TIP3    H242158   0.101   4.185  10.377  0.9020 -1.8116  1.1199
 6915TIP3   OH242159   0.103   1.889   3.921 -0.3324 -0.4190  0.5096
 6915TIP3    H142160   0.116   1.892   4.015  2.7698  1.1641  0.1749
 6915TIP3    H242161   0.143   1.807   3.893 -0.7809 -0.6417  0.5211
 6916TIP3   OH242162   4.486   3.968  15.927  0.2562 -0.0524  0.3260
 6916TIP3    H142163   4.570   3.922  15.920 -0.1418 -0.6725 -0.6129
 6916TIP3    H242164   4.489   4.011  16.012  1.4353 -0.2487  0.3997
 6917TIP3   OH242165   0.049   0.753   3.468  0.7413 -0.6679  0.5171
 6917TIP3    H142166   0.109   0.724   3.399 -0.2489 -1.9859  0.1698
 6917TIP3    H242167   0.105   0.800   3.530  1.9546 -0.9781 -0.3040
 6918TIP3   OH242168   0.272   6.320   2.802 -0.7967 -0.1631  0.4031
 6918TIP3    H142169   0.282   6.338   2.895 -0.3422 -1.6146  0.6637
 6918TIP3    H242170   0.338   6.375   2.760 -1.7580  1.3479  0.8171
 6919TIP3   OH242171   1.118   0.557  16.091  0.0842 -0.0514 -0.0954
 6919TIP3    H142172   1.111   0.466  16.118 -0.0549  0.1436  0.5332
 6919TIP3    H242173   1.041   0.571  16.035 -0.6470  0.0507  0.9055
 6920TIP3   OH242174   6.287   6.685   0.186  0.1546  0.1028 -0.4004
 6920TIP3    H142175   6.271   6.728   0.271 -0.3693 -1.2476  0.2073
 6920TIP3    H242176   6.377   6.653   0.193  0.3951  0.7020 -0.6854
 6921TIP3   OH242177   0.790   3.339  16.040 -0.0924  0.4750  0.1253
 6921TIP3    H142178   0.843   3.403  16.088  0.5207 -1.2548  1.9081
 6921TIP3    H242179   0.719   3.317  16.100  0.1125 -0.9989 -0.1267
 6922TIP3   OH242180   0.545   3.772   2.925  0.3053  0.1346  0.2152
 6922TIP3    H142181   0.574   3.681   2.928  1.5758  0.4751 -0.7709
 6922TIP3    H242182   0.598   3.816   2.991 -1.1023 -0.0181  1.4917
 6923TIP3   OH242183   0.269   1.993  14.279 -0.4346 -0.4229 -0.0228
 6923TIP3    H142184   0.239   1.909  14.314  0.6248 -0.4000  0.9925
 6923TIP3    H242185   0.219   2.058  14.328 -1.1271 -0.4346 -0.6871
 6924TIP3   OH242186   3.562   5.578   2.619  0.3532  0.2044 -0.2258
 6924TIP3    H142187   3.519   5.564   2.535 -0.9115 -0.0857  0.4425
 6924TIP3    H242188   3.643   5.528   2.614  1.3531  1.8567 -2.0300
 6925TIP3   OH242189   0.971   6.722   5.474 -0.0824 -0.0530  0.5174
 6925TIP3    H142190   0.906   6.740   5.406 -0.4013 -2.2393  0.1844
 6925TIP3    H242191   1.049   6.770   5.445 -0.6510  0.2223 -0.6303
 6926TIP3   OH242192   4.730   2.067  14.522  0.0492 -0.0373  0.8018
 6926TIP3    H142193   4.777   2.150  14.530 -0.8238  0.6100 -0.5194
 6926TIP3    H242194   4.726   2.050  14.428 -0.0243 -1.4553  1.0309
 6927TIP3   OH242195   5.983   6.125   4.749  0.0322  0.1861 -0.5402
 6927TIP3    H142196   6.016   6.195   4.806  0.0485 -1.3126  1.3979
 6927TIP3    H242197   6.061   6.079   4.719  0.0090  0.8159 -1.6176
 6928TIP3   OH242198   1.695   5.549  13.616 -0.0048  0.1937 -0.1259
 6928TIP3    H142199   1.743   5.468  13.636  0.2122  0.2048 -0.5776
 6928TIP3    H242200   1.609   5.536  13.656  0.8136  0.7549  1.9248
 6929TIP3   OH242201   6.297   4.771  14.495  0.0083  0.4874 -0.7939
 6929TIP3    H142202   6.352   4.842  14.525  1.4375 -0.7106 -0.4665
 6929TIP3    H242203   6.214   4.813  14.472  0.2047  2.0057  1.0253
 6930TIP3   OH242204   1.770   0.704  13.867 -0.4125  0.2012 -0.2410
 6930TIP3    H142205   1.685   0.685  13.908 -0.5516  1.0223 -0.1304
 6930TIP3    H242206   1.749   0.762  13.794 -0.0995 -0.8060 -1.1501
 6931TIP3   OH242207   1.259   5.463   2.611  0.1114  0.2814 -0.0765
 6931TIP3    H142208   1.344   5.443   2.652 -0.7142 -0.6436  1.2708
 6931TIP3    H242209   1.196   5.457   2.683 -0.8972  2.8257 -0.6413
 6932TIP3   OH242210   5.808   3.758   1.736  0.0224 -0.1437 -0.7933
 6932TIP3    H142211   5.750   3.717   1.672 -0.8421 -2.8205  1.4706
 6932TIP3    H242212   5.886   3.703   1.737  0.0587 -0.1087  0.3351
 6933TIP3   OH242213   3.888   2.351   5.638  0.4523  0.0693  0.0951
 6933TIP3    H142214   3.816   2.306   5.593 -0.0060  0.4612  0.4383
 6933TIP3    H242215   3.962   2.290   5.631  0.9951  0.8841 -2.9193
 6934TIP3   OH242216   6.564   4.755   3.251  0.0951  0.1857 -0.0048
 6934TIP3    H142217   6.563   4.686   3.318 -0.9417  1.8090  1.7380
 6934TIP3    H242218   6.641   4.735   3.197  1.7692 -0.4369  2.4807
 6935TIP3   OH242219   0.418   3.995   5.364  0.4626 -0.0439  0.5803
 6935TIP3    H142220   0.328   4.026   5.355  0.9558  2.3935  2.9256
 6935TIP3    H242221   0.469   4.054   5.307  0.8060 -0.0780  0.8513
 6936TIP3   OH242222   0.018   6.672  12.854 -0.0503  0.2100  0.0376
 6936TIP3    H142223   0.027   6.612  12.927  1.8311 -1.1090 -1.2042
 6936TIP3    H242224  -0.050   6.633  12.799 -0.4026  0.4213  0.3133
 6937TIP3   OH242225   3.921   3.954   0.270  0.0144 -0.1219 -0.5798
 6937TIP3    H142226   3.925   4.027   0.332  0.8529  0.7813 -1.6695
 6937TIP3    H242227   3.882   3.990   0.191 -1.9491 -1.5073 -0.3140
 6938TIP3   OH242228   5.258   1.286   6.140  0.0208 -0.1677 -0.2575
 6938TIP3    H142229   5.199   1.328   6.077 -1.4997 -2.4247 -0.4290
 6938TIP3    H242230   5.265   1.350   6.211  1.7901  2.4887 -2.5678
 6939TIP3   OH242231   0.570   5.797  13.604 -0.1504  0.1326 -0.0330
 6939TIP3    H142232   0.612   5.784  13.689  1.6336  0.0686 -0.8817
 6939TIP3    H242233   0.558   5.892  13.597 -4.6611 -0.0046  2.2019
 6940TIP3   OH242234   3.302   0.038  13.822  0.3789 -0.0593  0.6632
 6940TIP3    H142235   3.339   0.105  13.880 -0.9094  1.5398 -0.2569
 6940TIP3    H242236   3.359   0.039  13.745  0.8072 -0.6059  0.9630
 6941TIP3   OH242237   0.930   1.363   4.270  0.9618 -0.5362 -0.1682
 6941TIP3    H142238   0.949   1.324   4.185  0.5099 -0.4587 -0.3076
 6941TIP3    H242239   0.918   1.456   4.252  1.3232 -0.4408  0.0538
 6942TIP3   OH242240   0.944   3.373  12.034  0.2191 -0.2163  0.5498
 6942TIP3    H142241   0.856   3.392  12.003  0.7900 -0.0319 -1.0784
 6942TIP3    H242242   0.955   3.279  12.018  0.8252  0.0430 -0.7443
 6943TIP3   OH242243   1.852   1.795  16.187  0.3316  0.0179 -0.4620
 6943TIP3    H142244   1.799   1.841  16.252 -0.1743 -2.2823  0.8812
 6943TIP3    H242245   1.888   1.864  16.132 -1.8199  1.8653  0.2808
 6944TIP3   OH242246   4.136   0.579  13.565  0.3073  0.4282 -0.2413
 6944TIP3    H142247   4.068   0.584  13.631 -0.8410 -0.2545 -1.3384
 6944TIP3    H242248   4.133   0.664  13.521  0.5094  0.5818  0.0411
 6945TIP3   OH242249   5.790   2.500   5.843  0.4576 -0.3786 -0.1923
 6945TIP3    H142250   5.799   2.406   5.861 -1.3810 -0.3093  1.3806
 6945TIP3    H242251   5.710   2.526   5.889  1.1484  2.0587 -0.2302
 6946TIP3   OH242252   1.180   4.440  10.713 -0.1925  0.5725 -0.1204
 6946TIP3    H142253   1.263   4.398  10.734 -0.8086 -0.6392 -0.0140
 6946TIP3    H242254   1.173   4.513  10.775  0.1922 -0.0977  0.7181
 6947TIP3   OH242255   6.622   3.236  16.960 -0.0088  0.2021  0.7027
 6947TIP3    H142256   6.540   3.190  16.975 -0.0388 -0.4767 -1.3192
 6947TIP3    H242257   6.615   3.271  16.871  1.8967  0.0748  0.4555
 6948TIP3   OH242258   2.569   3.066   3.330  0.7562 -0.4468 -0.0769
 6948TIP3    H142259   2.597   3.092   3.243  0.0092  1.6726  0.2747
 6948TIP3    H242260   2.629   3.110   3.390  0.9160 -1.4320  0.5273
 6949TIP3   OH242261   1.109   0.958   2.562  0.4712 -0.8720 -1.0043
 6949TIP3    H142262   1.184   0.961   2.503 -0.0909  1.5000 -1.6959
 6949TIP3    H242263   1.068   0.873   2.545  0.3379 -0.2907 -4.0616
 6950TIP3   OH242264   0.997   5.494  12.562  0.1745 -0.0042 -0.1189
 6950TIP3    H142265   1.000   5.459  12.651  0.4848  0.4053  0.0362
 6950TIP3    H242266   0.919   5.454  12.523  1.3740 -2.1571 -0.4956
 6951TIP3   OH242267   4.949   5.398   0.996 -0.4424 -0.2736 -0.0445
 6951TIP3    H142268   5.006   5.465   0.958 -1.6955  0.3627 -0.8368
 6951TIP3    H242269   4.975   5.317   0.951 -0.2271  0.0274 -0.4684
 6952TIP3   OH242270   3.005   0.487   2.966  0.3422  0.0090  0.1231
 6952TIP3    H142271   2.993   0.564   3.022  0.6541 -0.3758  0.7267
 6952TIP3    H242272   2.980   0.414   3.022  2.1397 -0.5198  0.2674
 6953TIP3   OH242273   1.386   6.240   1.955 -0.5615  0.2935 -0.4075
 6953TIP3    H142274   1.339   6.201   1.881 -1.4741  1.7630 -0.6314
 6953TIP3    H242275   1.319   6.288   2.003 -0.0208 -0.7303  1.4889
 6954TIP3   OH242276   0.151   5.326  12.092 -0.3127  0.1802  0.5536
 6954TIP3    H142277   0.169   5.360  12.180 -0.4599  0.8758  0.3179
 6954TIP3    H242278   0.062   5.354  12.073  1.2505  4.5661 -1.8290
 6955TIP3   OH242279   2.357   2.481   1.312 -0.5519  0.4221 -0.4135
 6955TIP3    H142280   2.397   2.403   1.275  2.2168  0.7123  1.6208
 6955TIP3    H242281   2.420   2.551   1.294 -0.6875  1.1885  1.7603
 6956TIP3   OH242282   3.977   0.948   6.508 -0.3316 -0.1670 -0.0604
 6956TIP3    H142283   3.989   0.899   6.590  0.0601  0.0518  0.0149
 6956TIP3    H242284   4.037   0.906   6.446  1.9523  1.7840  0.6835
 6957TIP3   OH242285   5.051   3.108  14.689 -0.0044  0.2428  0.3521
 6957TIP3    H142286   5.006   3.186  14.720  0.3955 -0.1239  1.9269
 6957TIP3    H242287   5.144   3.132  14.691  0.0309  0.2235 -0.6319
 6958TIP3   OH242288   5.261   5.038   5.860  0.4287 -0.0220 -0.1765
 6958TIP3    H142289   5.261   5.078   5.947 -0.2772 -2.1173  0.8417
 6958TIP3    H242290   5.353   5.022   5.841  0.5961  0.5666  0.1112
 6959TIP3   OH242291   5.163   6.471   1.527 -0.3729  0.1003 -0.1577
 6959TIP3    H142292   5.070   6.482   1.508 -0.2063 -1.4953 -2.3860
 6959TIP3    H242293   5.202   6.447   1.442  1.6116 -1.7646  1.1777
 6960TIP3   OH242294   4.154   6.328   1.251  0.2193  0.3268  0.3993
 6960TIP3    H142295   4.092   6.301   1.319  0.6206 -0.6760  0.3833
 6960TIP3    H242296   4.210   6.393   1.295  0.2198 -0.0132  0.9144
 6961TIP3   OH242297   0.340   0.682   3.406 -0.1370 -0.1860  0.4983
 6961TIP3    H142298   0.285   0.670   3.329  1.1114 -0.2167 -0.4194
 6961TIP3    H242299   0.413   0.735   3.375  0.9521 -1.1232  1.3746
 6962TIP3   OH242300   6.671   4.818  16.490 -0.5150 -0.1091 -0.0073
 6962TIP3    H142301   6.590   4.866  16.506 -0.7537  0.1856 -1.8406
 6962TIP3    H242302   6.735   4.859  16.547 -1.2803  0.7572  0.2600
 6963TIP3   OH242303   4.108   1.835  13.158  0.0165  0.3243 -0.8324
 6963TIP3    H142304   4.173   1.902  13.177  1.6370 -0.5436 -2.9015
 6963TIP3    H242305   4.097   1.838  13.063 -0.9737 -1.3541 -0.8211
 6964TIP3   OH242306   4.955   4.545  12.373  0.0667 -0.8929  0.1732
 6964TIP3    H142307   4.981   4.504  12.455  1.9713 -2.4959 -1.1218
 6964TIP3    H242308   4.940   4.471  12.313 -2.2818  0.1763 -0.7076
 6965TIP3   OH242309   0.679   6.342   1.481  0.3983 -0.1278 -0.3763
 6965TIP3    H142310   0.747   6.407   1.461  1.2797 -1.1453 -0.7888
 6965TIP3    H242311   0.710   6.298   1.560  1.2505 -1.9249 -1.6469
 6966TIP3   OH242312   4.049   1.834   1.457  0.5989 -0.7412 -0.0812
 6966TIP3    H142313   4.141   1.853   1.473  0.0638  1.3682  0.8367
 6966TIP3    H242314   4.036   1.856   1.365  0.6093  1.0235  0.2923
 6967TIP3   OH242315   6.011   3.118   3.772 -0.1941  0.0266 -0.1469
 6967TIP3    H142316   5.967   3.123   3.857  0.2925  1.9950  0.0400
 6967TIP3    H242317   6.066   3.040   3.779 -0.4731 -0.0890  1.1959
 6968TIP3   OH242318   1.223   1.186   1.390 -0.0940 -0.1814 -0.1024
 6968TIP3    H142319   1.140   1.219   1.425  1.0055  0.9547  1.5939
 6968TIP3    H242320   1.290   1.239   1.433  1.5889 -1.8667 -0.4885
 6969TIP3   OH242321   2.974   4.551  16.543 -0.4492  0.0088 -0.1233
 6969TIP3    H142322   2.992   4.529  16.634  0.7060 -1.4632 -0.6509
 6969TIP3    H242323   2.991   4.645  16.536  1.4093 -0.2202  0.7727
 6970TIP3   OH242324   2.628   5.197  13.585 -0.1620 -0.1900  0.1016
 6970TIP3    H142325   2.673   5.167  13.664 -0.4250 -2.1617 -0.4416
 6970TIP3    H242326   2.557   5.134  13.572 -0.9927  0.9174 -0.9264
 6971TIP3   OH242327   4.915   6.639  12.286 -0.8276  0.7539  0.3033
 6971TIP3    H142328   4.997   6.623  12.239  0.6571  3.2318  1.8037
 6971TIP3    H242329   4.925   6.592  12.369 -1.9910 -0.8384 -0.4097
 6972TIP3   OH242330   5.868   5.529  16.885  0.3021 -0.1800 -0.8460
 6972TIP3    H142331   5.872   5.440  16.919 -0.7208 -0.2127 -0.7665
 6972TIP3    H242332   5.958   5.561  16.889  0.4741 -0.7689  0.3133
 6973TIP3   OH242333   5.123   0.882   2.555  0.2562  0.5032  0.1624
 6973TIP3    H142334   5.111   0.796   2.595 -1.5087  1.5402  2.0977
 6973TIP3    H242335   5.129   0.865   2.461 -1.4442 -1.6325  0.3758
 6974TIP3   OH242336   5.239   5.973  14.220 -0.3201  0.3922 -0.8671
 6974TIP3    H142337   5.285   6.048  14.183 -1.5078  1.3097 -0.5293
 6974TIP3    H242338   5.284   5.955  14.302 -0.8058  1.5453 -0.3362
 6975TIP3   OH242339   4.818   1.850   3.332  0.2637  0.2524 -0.3232
 6975TIP3    H142340   4.895   1.881   3.380  0.6486  0.3422 -0.9819
 6975TIP3    H242341   4.845   1.851   3.240 -0.7896  1.0799 -0.6481
 6976TIP3   OH242342   2.273   0.138  11.608 -0.0232 -0.3705  0.2287
 6976TIP3    H142343   2.184   0.175  11.609 -0.4222 -1.2509 -0.5538
 6976TIP3    H242344   2.259   0.045  11.591  0.9440 -0.9851  2.5035
 6977TIP3   OH242345   4.807   1.667   1.097  0.0785  0.3432 -0.1191
 6977TIP3    H142346   4.848   1.668   1.010  0.3939  0.0032  0.0252
 6977TIP3    H242347   4.732   1.608   1.088  1.5979 -1.7910  0.5031
 6978TIP3   OH242348   3.865   4.011  12.501 -0.6147  0.4954  0.5101
 6978TIP3    H142349   3.771   3.997  12.491 -0.6103  1.1315 -0.6180
 6978TIP3    H242350   3.900   3.925  12.523 -1.1262 -0.3947 -1.8392
 6979TIP3   OH242351   2.362   1.737  12.716  0.1679 -0.0754 -1.4085
 6979TIP3    H142352   2.279   1.745  12.667  0.9565  1.0891 -2.6329
 6979TIP3    H242353   2.409   1.667  12.672  0.4375  0.2615 -1.6644
 6980TIP3   OH242354   4.010   6.278  13.746  0.1845 -0.2974  0.4034
 6980TIP3    H142355   3.939   6.340  13.756 -1.4041 -1.4933 -2.1986
 6980TIP3    H242356   4.065   6.315  13.677 -0.0428 -1.1187 -0.2372
 6981TIP3   OH242357   6.250   0.834   2.920  0.0503  0.2202 -0.1318
 6981TIP3    H142358   6.308   0.874   2.855  2.3327  0.2030  1.7258
 6981TIP3    H242359   6.243   0.742   2.892  2.7287 -0.3165  0.6172
 6982TIP3   OH242360   6.487   5.509   0.399  0.1514 -0.4370 -0.1005
 6982TIP3    H142361   6.490   5.603   0.383 -0.0165 -0.2996  0.6753
 6982TIP3    H242362   6.569   5.490   0.445  1.4131 -1.1054 -2.4640
 6983TIP3   OH242363   4.244   4.633  12.809  0.1477  0.1135  0.1875
 6983TIP3    H142364   4.226   4.581  12.887  1.1628  0.8964  0.9695
 6983TIP3    H242365   4.309   4.581  12.761  0.5906  0.2951  0.5835
 6984TIP3   OH242366   2.277   3.749  15.019 -0.2096  0.0362 -0.3060
 6984TIP3    H142367   2.296   3.772  15.110  2.0225 -0.7777 -0.4995
 6984TIP3    H242368   2.200   3.692  15.024  0.5919 -0.9997  1.2415
 6985TIP3   OH242369   5.714   3.641   3.132  0.3407 -0.2147 -0.3038
 6985TIP3    H142370   5.763   3.592   3.198  0.6629 -0.1097 -0.4647
 6985TIP3    H242371   5.767   3.635   3.053 -0.3213 -0.8209 -0.7091
 6986TIP3   OH242372   5.216   1.158   5.709 -0.3687 -0.0175 -0.5397
 6986TIP3    H142373   5.189   1.114   5.628 -0.8566 -0.1081 -0.3319
 6986TIP3    H242374   5.281   1.100   5.747  1.4177  0.9873 -1.8797
 6987TIP3   OH242375   0.794   5.795  13.173  0.2844 -0.0641 -0.0757
 6987TIP3    H142376   0.735   5.721  13.159  0.3630  0.2120 -2.2021
 6987TIP3    H242377   0.881   5.759  13.160  0.3154  0.3844 -1.3045
 6988TIP3   OH242378   5.278   1.115  14.884  0.4599  0.1338 -0.2807
 6988TIP3    H142379   5.202   1.150  14.930  1.0178 -0.0180  0.7845
 6988TIP3    H242380   5.352   1.136  14.940  0.8697 -2.3919  0.2333
 6989TIP3   OH242381   5.418   6.665  17.042  0.0326 -0.3891 -0.3331
 6989TIP3    H142382   5.467   6.648  16.962 -0.3548  0.0175 -0.6665
 6989TIP3    H242383   5.390   6.579  17.073 -0.4446 -0.4973 -1.0419
 6990TIP3   OH242384   5.069   5.206  11.713 -0.1343 -0.2928 -0.2963
 6990TIP3    H142385   5.021   5.130  11.679 -3.3540  0.6081  1.7737
 6990TIP3    H242386   5.028   5.224  11.798  2.5054  1.9968  0.6375
 6991TIP3   OH242387   3.445   5.322  12.152  0.3605  0.1010  0.0653
 6991TIP3    H142388   3.523   5.268  12.136  0.9082  0.3406  1.7443
 6991TIP3    H242389   3.382   5.292  12.087  1.3992 -1.0353 -0.4640
 6992TIP3   OH242390   2.862   3.898   5.318 -0.4110 -0.3071  0.7190
 6992TIP3    H142391   2.825   3.810   5.317 -1.6293  0.1556  1.9743
 6992TIP3    H242392   2.956   3.885   5.310 -0.5085 -1.7714  1.6493
 6993TIP3   OH242393   1.264   1.866  15.833 -0.0985 -0.4747  0.4418
 6993TIP3    H142394   1.299   1.901  15.751  0.1198 -1.1896  0.2232
 6993TIP3    H242395   1.290   1.930  15.900 -0.4381  0.2072 -0.0672
 6994TIP3   OH242396   1.240   4.053  11.776  0.3798 -0.1408 -0.0536
 6994TIP3    H142397   1.235   3.964  11.809  1.1615 -0.2729 -0.2683
 6994TIP3    H242398   1.295   4.047  11.698 -0.0651  0.4319 -0.4237
 6995TIP3   OH242399   3.082   4.015   2.244  0.7956  0.9089  0.4621
 6995TIP3    H142400   3.096   3.921   2.230 -1.6581  0.5583 -0.0464
 6995TIP3    H242401   3.145   4.057   2.187  1.3029 -0.4409 -0.0149
 6996TIP3   OH242402   2.841   3.322  16.809 -0.2972  0.0634 -0.6404
 6996TIP3    H142403   2.833   3.379  16.732 -0.0461 -1.7795 -2.0833
 6996TIP3    H242404   2.754   3.283  16.819 -0.6368  1.0694  0.7038
 6997TIP3   OH242405   0.581   5.156  12.960  0.0691  0.3281  0.0545
 6997TIP3    H142406   0.592   5.165  12.866 -1.9485 -0.3954 -0.3137
 6997TIP3    H242407   0.560   5.244  12.991  0.5666  0.5343 -0.1992
 6998TIP3   OH242408   6.590   0.779   4.012  0.1642  0.4047  0.0669
 6998TIP3    H142409   6.645   0.772   3.934  0.7806  1.1494  0.4084
 6998TIP3    H242410   6.647   0.750   4.083 -0.9527 -1.9844  0.0560
 6999TIP3   OH242411   0.302   2.798   0.933 -0.0549  0.2334  0.1770
 6999TIP3    H142412   0.263   2.718   0.968 -1.0518  0.2864 -0.7499
 6999TIP3    H242413   0.393   2.796   0.963  0.3131 -1.9153 -0.9035
 7000TIP3   OH242414   4.951   0.323  13.243  0.8475 -0.3652  0.0647
 7000TIP3    H142415   4.862   0.326  13.277  1.1253 -1.0156  0.8647
 7000TIP3    H242416   4.957   0.399  13.185 -0.1763 -0.2335  0.1207
 7001TIP3   OH242417   1.039   2.108  14.596  0.3757 -0.1129 -0.4502
 7001TIP3    H142418   1.113   2.129  14.540  0.3675 -0.2674 -0.5185
 7001TIP3    H242419   0.976   2.179  14.579  1.0919  0.8283  0.6913
 7002TIP3   OH242420   0.677   0.796  14.329 -0.8474 -0.4836 -0.0662
 7002TIP3    H142421   0.660   0.791  14.235  0.6588 -0.5605 -0.3629
 7002TIP3    H242422   0.726   0.877  14.340 -0.7016 -0.6595  0.6076
 7003TIP3   OH242423   1.720   5.725  14.349 -0.3854  0.6092 -0.2655
 7003TIP3    H142424   1.625   5.722  14.364 -0.4573  1.6473 -0.4187
 7003TIP3    H242425   1.750   5.799  14.402  0.7430 -1.1643  1.7294
 7004TIP3   OH242426   5.057   0.359  14.390  0.6380 -0.1654  0.5062
 7004TIP3    H142427   5.120   0.342  14.460 -0.5827  0.8893  1.9268
 7004TIP3    H242428   5.097   0.428  14.338  0.2174  1.3582  2.1009
 7005TIP3   OH242429   1.481   3.217  16.548 -0.3405 -0.6681 -0.1009
 7005TIP3    H142430   1.546   3.169  16.600  0.6235  0.5593 -0.1235
 7005TIP3    H242431   1.425   3.149  16.511  1.6514 -1.8865 -1.0605
 7006TIP3   OH242432   0.525   0.443  10.998 -0.5000 -0.7140  0.0968
 7006TIP3    H142433   0.568   0.367  11.039 -1.6358  0.3564  3.6657
 7006TIP3    H242434   0.593   0.510  10.994 -0.5624 -0.5817  1.0597
 7007TIP3   OH242435   2.091   1.733   5.016 -0.0722 -0.1109 -0.0203
 7007TIP3    H142436   2.052   1.765   5.097 -0.0156  1.3453 -0.5485
 7007TIP3    H242437   2.185   1.745   5.029  0.0026 -0.7220  0.0364
 7008TIP3   OH242438   2.789   1.273  15.745  0.4453 -0.1113 -0.3662
 7008TIP3    H142439   2.755   1.186  15.767 -0.5895  0.0276 -1.3707
 7008TIP3    H242440   2.720   1.334  15.771  1.2587  0.4603  0.5507
 7009TIP3   OH242441   3.145   3.584   3.752  1.1535 -0.1987  0.0403
 7009TIP3    H142442   3.231   3.600   3.791  1.2616 -1.0651  0.1820
 7009TIP3    H242443   3.122   3.496   3.781  0.5176 -0.2352 -0.5525
 7010TIP3   OH242444   4.654   1.706   0.190 -0.2381 -0.0977 -0.1444
 7010TIP3    H142445   4.600   1.774   0.228  0.0800 -0.8091  1.6733
 7010TIP3    H242446   4.710   1.676   0.262  1.7266 -0.2299 -1.6436
 7011TIP3   OH242447   1.382   3.849   0.045 -0.0024  0.7219 -0.0430
 7011TIP3    H142448   1.350   3.857   0.135 -0.8536 -0.6088 -0.2117
 7011TIP3    H242449   1.477   3.854   0.053 -0.0228 -0.3150  1.0501
 7012TIP3   OH242450   0.127   5.471   4.669  0.3020  0.0428  0.5531
 7012TIP3    H142451   0.105   5.558   4.701 -0.9962  0.4214 -1.2568
 7012TIP3    H242452   0.069   5.456   4.595  1.3777 -1.8555  0.0049
 7013TIP3   OH242453   3.455   3.376  16.105 -0.0843 -0.4395  0.0599
 7013TIP3    H142454   3.467   3.332  16.021  1.3584  1.1929 -0.6610
 7013TIP3    H242455   3.361   3.377  16.119 -0.4699  0.3332 -2.1951
 7014TIP3   OH242456   0.701   3.704  16.933  0.8677  0.1970  0.0281
 7014TIP3    H142457   0.624   3.738  16.978  0.9005 -1.2673  1.2754
 7014TIP3    H242458   0.773   3.720  16.995  0.7897 -2.5767  0.9795
 7015TIP3   OH242459   1.776   4.092   1.170 -0.1649  0.1595 -0.6069
 7015TIP3    H142460   1.763   4.148   1.094  0.5872  0.6345 -0.4022
 7015TIP3    H242461   1.694   4.097   1.219  0.1741  1.7807 -0.1530
 7016TIP3   OH242462   2.902   5.265   1.396  0.2706 -0.3964 -0.5188
 7016TIP3    H142463   2.954   5.240   1.320  0.7545 -1.8945  0.2750
 7016TIP3    H242464   2.821   5.215   1.386 -0.7931  1.3885 -1.3778
 7017TIP3   OH242465   0.812   4.555  12.577 -0.0460  0.0727 -0.1497
 7017TIP3    H142466   0.811   4.473  12.625  0.9461  0.5507  0.7244
 7017TIP3    H242467   0.809   4.530  12.485  1.7080 -1.0012  0.0625
 7018TIP3   OH242468   2.871   4.935  15.484  0.8379 -0.4544  0.1726
 7018TIP3    H142469   2.949   4.935  15.540  1.4253  0.2065 -0.6317
 7018TIP3    H242470   2.867   4.846  15.449  0.7511 -0.7278  0.8533
 7019TIP3   OH242471   2.342   2.642  11.705  0.3866  0.3618  0.3910
 7019TIP3    H142472   2.351   2.725  11.752 -1.7455  0.2333  1.1210
 7019TIP3    H242473   2.276   2.659  11.638 -2.0287 -1.3304  2.1813
 7020TIP3   OH242474   1.322   6.397   0.391  0.3765 -0.1820  0.4464
 7020TIP3    H142475   1.401   6.450   0.405  1.0227 -0.3497 -2.0507
 7020TIP3    H242476   1.303   6.358   0.477  2.0550  1.1314  1.4737
 7021TIP3   OH242477   6.007   0.335  12.401 -0.4659  0.0919  0.1469
 7021TIP3    H142478   6.079   0.284  12.364 -1.1356 -0.2484 -0.7219
 7021TIP3    H242479   6.044   0.423  12.415 -0.0411  0.0838 -0.8511
 7022TIP3   OH242480   0.525   2.440  16.147 -0.3986  0.0090 -0.5460
 7022TIP3    H142481   0.480   2.436  16.063  0.4868 -1.6838 -1.0004
 7022TIP3    H242482   0.456   2.432  16.212 -1.1388  1.7419 -1.0533
 7023TIP3   OH242483   3.221   4.402  16.556 -0.4493 -0.2830  0.5056
 7023TIP3    H142484   3.266   4.448  16.627 -0.0879  0.8732 -0.4377
 7023TIP3    H242485   3.149   4.356  16.599 -0.0403  0.1201  1.6634
 7024TIP3   OH242486   5.282   6.566   3.112 -0.3813 -0.5123  0.1544
 7024TIP3    H142487   5.328   6.648   3.128 -0.2638 -0.4648 -0.4022
 7024TIP3    H242488   5.191   6.585   3.135 -0.0449 -0.7686  1.7920
 7025TIP3   OH242489   3.487   2.799   0.851  0.1230  0.0193  0.2788
 7025TIP3    H142490   3.435   2.720   0.843  1.1598 -0.5261 -2.5090
 7025TIP3    H242491   3.427   2.870   0.829 -0.4507 -0.1210  1.3453
 7026TIP3   OH242492   6.092   1.897  12.936 -0.2141  0.0010  0.2303
 7026TIP3    H142493   6.052   1.810  12.930  0.5273 -0.4279  1.1886
 7026TIP3    H242494   6.071   1.939  12.852  0.5723 -1.6199 -0.8464
 7027TIP3   OH242495   4.930   6.455   4.655  0.4033  0.2823  0.6914
 7027TIP3    H142496   5.012   6.418   4.688  0.5117  0.4073  0.5647
 7027TIP3    H242497   4.863   6.416   4.710  0.3298 -1.4919 -0.5696
 7028TIP3   OH242498   3.100   6.499   1.279 -0.2832 -0.4326 -0.0104
 7028TIP3    H142499   3.177   6.442   1.284  0.4965  0.6016  0.1458
 7028TIP3    H242500   3.113   6.551   1.200 -1.4476 -1.0855 -0.6592
 7029TIP3   OH242501   6.202   5.634   6.367  0.3039 -0.2357 -0.5702
 7029TIP3    H142502   6.113   5.622   6.401  1.4160 -2.3650  2.0306
 7029TIP3    H242503   6.239   5.546   6.369  1.8335  0.2160 -3.7514
 7030TIP3   OH242504   2.170   0.103   2.095 -0.4148 -0.3670  0.0132
 7030TIP3    H142505   2.214   0.166   2.151  1.2251 -1.2490 -0.2225
 7030TIP3    H242506   2.140   0.034   2.154 -1.6040  0.2775  0.1852
 7031TIP3   OH242507   4.202   6.410   2.428  0.0271 -0.1854 -0.2466
 7031TIP3    H142508   4.287   6.373   2.404 -0.6170 -1.0265 -1.3795
 7031TIP3    H242509   4.162   6.344   2.484  1.1685  1.4000  2.6203
 7032TIP3   OH242510   5.538   2.017  10.820 -0.2248  0.2623  0.2218
 7032TIP3    H142511   5.580   2.036  10.736  0.7874 -1.3758  0.3078
 7032TIP3    H242512   5.608   2.026  10.885 -0.7579  0.5312  0.7708
 7033TIP3   OH242513   6.122   4.175  12.145  0.6705  0.5498  0.0282
 7033TIP3    H142514   6.172   4.241  12.096  3.8583 -2.3861 -1.0622
 7033TIP3    H242515   6.108   4.104  12.082 -0.6437 -0.7946  1.7351
 7034TIP3   OH242516   4.461   4.222   4.022  0.4536  0.0454  0.1806
 7034TIP3    H142517   4.523   4.149   4.017  0.5397 -0.0923  2.3429
 7034TIP3    H242518   4.375   4.181   4.028  0.5860  0.0055  2.6830
 7035TIP3   OH242519   3.238   5.886  13.260 -0.2122  0.1430  0.0857
 7035TIP3    H142520   3.173   5.850  13.200  0.8091  0.3028 -1.1345
 7035TIP3    H242521   3.317   5.834  13.245  0.7262  1.6438 -0.3462
 7036TIP3   OH242522   3.280   1.937   1.084 -0.2655 -0.2315  0.0580
 7036TIP3    H142523   3.364   1.947   1.040 -1.0997 -0.1457 -1.5800
 7036TIP3    H242524   3.236   1.866   1.038 -1.6472  0.6405 -0.0489
 7037TIP3   OH242525   4.417   2.158  13.901 -0.0744  0.0228  0.0446
 7037TIP3    H142526   4.360   2.086  13.876 -0.2881 -0.0856  0.8227
 7037TIP3    H242527   4.365   2.237  13.882 -0.6804 -0.0839  1.1782
 7038TIP3   OH242528   1.174   1.641  15.426  0.4017 -0.2482  0.0557
 7038TIP3    H142529   1.167   1.723  15.475  0.6495  0.3128 -0.8298
 7038TIP3    H242530   1.264   1.640  15.394 -0.2864  0.3781 -2.0554
 7039TIP3   OH242531   3.940   0.261  13.648 -0.2239 -0.1309 -0.1070
 7039TIP3    H142532   4.009   0.272  13.582 -0.4507  1.2077 -0.1349
 7039TIP3    H242533   3.889   0.342  13.644 -0.4494 -0.1668  1.4761
 7040TIP3   OH242534   3.234   0.180  12.848  0.0684  0.3596  0.1394
 7040TIP3    H142535   3.173   0.250  12.824  1.9968  2.6796  1.5869
 7040TIP3    H242536   3.239   0.125  12.769 -2.5701  0.9946 -0.5662
 7041TIP3   OH242537   6.726   1.182  12.063 -0.4376 -0.5090 -0.0750
 7041TIP3    H142538   6.716   1.277  12.060  0.8324 -0.3782 -1.2486
 7041TIP3    H242539   6.736   1.161  12.156  1.5362  0.7936  0.0578
 7042TIP3   OH242540   3.845   1.068  16.560  0.3933  0.2436 -0.0667
 7042TIP3    H142541   3.843   0.997  16.624 -2.2140 -0.3539 -0.6789
 7042TIP3    H242542   3.829   1.026  16.476  0.9840  1.3347 -0.7540
 7043TIP3   OH242543   5.273   4.920  13.905  0.3318 -0.2202  0.2886
 7043TIP3    H142544   5.271   4.969  13.987  0.7407  1.0900 -0.4527
 7043TIP3    H242545   5.314   4.837  13.928 -1.1317 -0.5853  1.7487
 7044TIP3   OH242546   4.440   1.238  17.065 -0.4889 -0.4887 -0.3917
 7044TIP3    H142547   4.421   1.330  17.082 -1.8277 -0.6391 -0.9247
 7044TIP3    H242548   4.524   1.239  17.018 -0.4616  0.4513 -0.3385
 7045TIP3   OH242549   2.957   4.668  15.072  0.2477  0.4146 -0.0505
 7045TIP3    H142550   3.042   4.649  15.113 -0.0634 -0.7878  0.0697
 7045TIP3    H242551   2.967   4.639  14.982 -0.0915  0.0985  0.0111
 7046TIP3   OH242552   2.708   4.464   3.968  0.0879 -0.2107 -0.5567
 7046TIP3    H142553   2.714   4.532   4.036 -1.7477 -0.7966  0.2387
 7046TIP3    H242554   2.685   4.512   3.888  1.1494  0.3546 -0.5394
 7047TIP3   OH242555   1.985   0.989   2.513 -0.7976  0.0924 -0.5693
 7047TIP3    H142556   1.933   1.035   2.578 -0.7876  0.7302 -1.0041
 7047TIP3    H242557   2.066   0.966   2.558 -1.9869 -2.2352  0.5814
 7048TIP3   OH242558   5.192   5.528  15.716 -0.2736  0.5105 -0.1267
 7048TIP3    H142559   5.182   5.572  15.800 -1.6369  0.1609 -0.0677
 7048TIP3    H242560   5.284   5.537  15.694 -0.2382  2.1062  0.5738
 7049TIP3   OH242561   0.130   6.700  15.034 -0.3194  0.4222 -0.5517
 7049TIP3    H142562   0.061   6.672  15.094 -1.3291 -0.5651 -2.0738
 7049TIP3    H242563   0.160   6.784  15.069 -0.3210 -0.4406  1.6946
 7050TIP3   OH242564   5.493   4.496  15.724 -0.2604  0.1649  0.0445
 7050TIP3    H142565   5.476   4.454  15.809  3.1997 -0.7025  0.4542
 7050TIP3    H242566   5.509   4.588  15.745 -0.7661  0.2414  0.1127
 7051TIP3   OH242567   5.759   6.745  16.648  0.2208 -0.0595  0.1828
 7051TIP3    H142568   5.827   6.678  16.636 -0.1783 -0.8839  2.1068
 7051TIP3    H242569   5.790   6.797  16.722 -0.3291  0.7887 -0.1761
 7052TIP3   OH242570   2.190   4.555  14.510  0.3770  0.2832 -0.4065
 7052TIP3    H142571   2.130   4.523  14.578 -0.4004  0.2309 -1.0887
 7052TIP3    H242572   2.220   4.640  14.541 -1.3863  1.1011 -0.7904
 7053TIP3   OH242573   3.780   4.322  14.667  0.5392 -0.2235 -0.0427
 7053TIP3    H142574   3.865   4.295  14.633  0.5903 -3.7867  2.4009
 7053TIP3    H242575   3.800   4.391  14.730  1.2796  0.6670 -1.2137
 7054TIP3   OH242576   2.201   2.502  15.424 -0.6743 -0.6593  0.7835
 7054TIP3    H142577   2.238   2.532  15.507 -1.1783 -0.0532  0.7921
 7054TIP3    H242578   2.270   2.446  15.387  0.9496  1.7087  0.0272
 7055TIP3   OH242579   5.675   4.321  13.508 -0.4637 -0.3025  0.0743
 7055TIP3    H142580   5.589   4.320  13.465 -0.5363 -1.0436  0.2241
 7055TIP3    H242581   5.680   4.236  13.552  0.6282 -0.5355 -0.4758
 7056TIP3   OH242582   5.291   1.743   1.932 -0.8668 -0.5120  0.1421
 7056TIP3    H142583   5.366   1.685   1.922 -0.6235 -0.1810  0.0040
 7056TIP3    H242584   5.237   1.702   1.999 -0.0639 -0.2602  0.9744
 7057TIP3   OH242585   2.855   0.693  14.913  0.2111  0.8234 -0.4680
 7057TIP3    H142586   2.882   0.620  14.969 -2.9351 -0.5104 -0.4916
 7057TIP3    H242587   2.824   0.759  14.975 -0.2301  0.6728 -0.5237
 7058TIP3   OH242588   0.158   5.462  15.665  0.2670  0.2471  0.1494
 7058TIP3    H142589   0.138   5.383  15.614  0.2903 -0.5423  1.3395
 7058TIP3    H242590   0.073   5.507  15.673  0.1119 -0.0424  0.1276
 7059TIP3   OH242591   1.964   0.091   6.019 -0.1179  0.5416 -0.7272
 7059TIP3    H142592   1.892   0.078   6.080  0.0599 -0.6472 -0.7450
 7059TIP3    H242593   2.036   0.125   6.072 -1.1848  3.5251 -1.0067
 7060TIP3   OH242594   3.493   0.933   4.241  0.0571  0.2749 -0.3745
 7060TIP3    H142595   3.476   0.842   4.220  0.8578 -0.0565  0.3556
 7060TIP3    H242596   3.409   0.967   4.271 -0.1743 -0.3102 -0.3489
 7061TIP3   OH242597   4.788   3.769   0.613  0.4125 -0.1461 -0.0832
 7061TIP3    H142598   4.813   3.818   0.534  0.7063 -1.8848 -1.1151
 7061TIP3    H242599   4.871   3.752   0.658  0.3723 -0.1861 -0.0233
 7062TIP3   OH242600   1.051   3.644   4.694  0.2094 -0.6581 -0.3450
 7062TIP3    H142601   0.992   3.637   4.769  0.8192 -1.1251  0.1121
 7062TIP3    H242602   1.061   3.554   4.662 -0.9821 -0.3188 -1.7545
 7063TIP3   OH242603   1.496   3.706  14.514  0.9000 -0.0816 -0.2583
 7063TIP3    H142604   1.446   3.645  14.460  0.6045  0.2073 -0.3127
 7063TIP3    H242605   1.445   3.715  14.595  0.2222  1.1496 -0.7953
 7064TIP3   OH242606   2.552   4.299  15.883  0.7444 -0.0662 -0.2619
 7064TIP3    H142607   2.629   4.275  15.832  1.3075 -3.5916  1.9300
 7064TIP3    H242608   2.478   4.258  15.837  0.3658  1.5410 -1.1935
 7065TIP3   OH242609   5.579   2.835   2.921  0.5361 -0.0186  0.6028
 7065TIP3    H142610   5.659   2.816   2.971  0.2521  1.2562  1.6061
 7065TIP3    H242611   5.535   2.904   2.972 -0.8343 -0.1763 -0.3213
 7066TIP3   OH242612   6.768   6.757  15.710  0.2279  0.0787 -0.1161
 7066TIP3    H142613   6.751   6.792  15.798  2.3226 -0.1184  0.4308
 7066TIP3    H242614   6.725   6.672  15.709 -2.3882  1.3013 -0.4076
 7067TIP3   OH242615   3.887   6.488   0.636 -0.3274 -0.2079 -0.6239
 7067TIP3    H142616   3.979   6.497   0.663 -0.3647 -1.3300 -0.0712
 7067TIP3    H242617   3.837   6.523   0.709 -0.3516  0.5226 -0.9789
 7068TIP3   OH242618   3.766   3.170  11.598  0.4748  0.4808 -0.4651
 7068TIP3    H142619   3.844   3.127  11.633  0.0765  0.4704  0.4437
 7068TIP3    H242620   3.726   3.105  11.540 -1.1375 -1.1684  2.3115
 7069TIP3   OH242621   4.398   0.423  11.271 -0.0304 -0.1341  0.4855
 7069TIP3    H142622   4.483   0.381  11.281 -0.2591 -0.7227  0.0037
 7069TIP3    H242623   4.390   0.478  11.348  1.2616  0.7777  0.0153
 7070TIP3   OH242624   1.050   4.298  15.996 -0.6751 -0.2251 -0.0057
 7070TIP3    H142625   1.098   4.311  15.914  2.1250 -1.7184  1.2942
 7070TIP3    H242626   1.057   4.382  16.041  0.7006 -0.3898  0.1213
 7071TIP3   OH242627   1.014   3.724  15.884  0.0205 -0.1558  0.1111
 7071TIP3    H142628   0.991   3.803  15.835  1.7758  0.1016 -0.3691
 7071TIP3    H242629   1.000   3.748  15.975  1.1852  0.9646  0.0226
 7072TIP3   OH242630   4.761   6.359   0.927 -0.1379 -0.3159 -0.1511
 7072TIP3    H142631   4.849   6.331   0.906  0.3286  1.0233 -0.1169
 7072TIP3    H242632   4.716   6.365   0.843 -0.6595 -2.3525 -0.0588
 7073TIP3   OH242633   2.680   5.453  14.757 -0.1313  0.5697  0.7768
 7073TIP3    H142634   2.754   5.402  14.724 -0.4146  0.2593  0.5973
 7073TIP3    H242635   2.604   5.412  14.715 -0.5759 -0.2561  2.3175
 7074TIP3   OH242636   1.677   0.687   1.321 -0.1805 -0.3309  0.0644
 7074TIP3    H142637   1.651   0.635   1.245 -0.4481  1.7812 -1.3443
 7074TIP3    H242638   1.608   0.670   1.386 -1.9685  0.6004 -1.4910
 7075TIP3   OH242639   4.378   4.321  15.653 -0.6782  0.0291 -0.1212
 7075TIP3    H142640   4.414   4.237  15.680 -1.3290 -0.5530 -0.9904
 7075TIP3    H242641   4.381   4.318  15.557 -2.3661  0.2446 -0.2014
 7076TIP3   OH242642   0.822   5.476  14.852  0.0169 -0.2179  0.0094
 7076TIP3    H142643   0.753   5.539  14.828 -0.1427 -0.0046  0.9893
 7076TIP3    H242644   0.859   5.449  14.768 -0.9628  0.0005 -0.5130
 7077TIP3   OH242645   4.691   4.005  14.573  0.0718 -0.2847 -0.2250
 7077TIP3    H142646   4.651   4.057  14.503 -1.8903 -0.2318  0.8512
 7077TIP3    H242647   4.785   4.013  14.559 -0.2563  0.4584 -2.3020
 7078TIP3   OH242648   4.429   4.462   0.574  0.1438 -0.5392  0.0852
 7078TIP3    H142649   4.463   4.530   0.516  1.3379 -0.5734  0.7144
 7078TIP3    H242650   4.502   4.401   0.585  1.3175  1.2315  4.3594
 7079TIP3   OH242651   1.059   3.594  12.305 -0.6138  0.5032 -0.2632
 7079TIP3    H142652   1.049   3.545  12.387 -0.3256  0.1073 -0.4617
 7079TIP3    H242653   1.053   3.686  12.331  1.2016  0.4659  0.4805
 7080TIP3   OH242654   3.038   1.335   6.327 -0.1450 -0.6513  0.5148
 7080TIP3    H142655   3.055   1.382   6.246 -0.5967 -1.1895  0.1039
 7080TIP3    H242656   3.047   1.401   6.396  0.6578 -0.2847  0.0670
 7081TIP3   OH242657   1.281   2.351   3.922  0.1479 -0.4404  0.1823
 7081TIP3    H142658   1.269   2.426   3.980  1.0129  0.7332 -1.0924
 7081TIP3    H242659   1.224   2.283   3.958 -0.8591  0.9066  1.2184
 7082TIP3   OH242660   2.888   0.282  14.327 -0.2299 -0.2092  0.4517
 7082TIP3    H142661   2.889   0.370  14.290 -0.6405 -0.7463 -0.9132
 7082TIP3    H242662   2.923   0.292  14.415  0.9806  1.1208 -0.1456
 7083TIP3   OH242663   6.192   5.614  12.983 -0.0068 -0.1413 -0.6447
 7083TIP3    H142664   6.246   5.601  13.061 -0.1980  2.1907 -0.0557
 7083TIP3    H242665   6.200   5.708  12.964 -2.2879 -0.1143 -1.7214
 7084TIP3   OH242666   3.662   1.009   5.953 -0.1989  0.0350 -0.4239
 7084TIP3    H142667   3.750   1.032   5.922  0.1909  0.6712  1.0955
 7084TIP3    H242668   3.621   1.093   5.975 -0.4669 -0.3833  0.7489
 7085TIP3   OH242669   0.706   5.865   2.279 -0.1833  0.1168 -0.4636
 7085TIP3    H142670   0.748   5.848   2.364  0.1347 -1.2377 -0.8637
 7085TIP3    H242671   0.655   5.786   2.262 -0.6133  0.5738 -1.3254
 7086TIP3   OH242672   2.712   4.678   1.499  0.4690 -0.9856 -0.1353
 7086TIP3    H142673   2.631   4.681   1.448 -0.3156 -1.9943  1.0156
 7086TIP3    H242674   2.779   4.650   1.436 -0.2601 -1.0895 -0.8749
 7087TIP3   OH242675   5.941   5.508  15.124  0.3570 -0.1030  0.1767
 7087TIP3    H142676   5.953   5.427  15.075  2.7622  0.6847 -0.6966
 7087TIP3    H242677   5.851   5.504  15.156 -0.2707 -2.1299 -1.6112
 7088TIP3   OH242678   0.611   4.981   1.644 -0.1444 -0.3313 -0.0258
 7088TIP3    H142679   0.533   4.983   1.700  0.4855  0.3913  0.8485
 7088TIP3    H242680   0.636   5.073   1.635  2.2329 -0.7002  2.0347
 7089TIP3   OH242681   2.902   6.346   3.040 -0.0725  0.3111  0.1355
 7089TIP3    H142682   2.891   6.438   3.063  2.1746  0.0818  2.4992
 7089TIP3    H242683   2.977   6.345   2.980 -0.4246  0.0393 -0.3102
 7090TIP3   OH242684   1.177   1.670   5.223 -0.1876 -0.2034  0.2963
 7090TIP3    H142685   1.185   1.638   5.133 -1.8393  0.6267 -0.1819
 7090TIP3    H242686   1.139   1.596   5.272 -1.3829  0.0625 -0.1975
 7091TIP3   OH242687   4.370   4.471  12.384 -0.3081  0.1469 -0.1485
 7091TIP3    H142688   4.324   4.477  12.468 -2.0781  2.5360 -1.1815
 7091TIP3    H242689   4.374   4.561  12.352  0.5411 -0.6485 -2.5053
 7092TIP3   OH242690   3.371   0.696  17.168 -0.1224 -0.4477 -0.0849
 7092TIP3    H142691   3.297   0.739  17.211 -0.3260 -0.0155 -0.8456
 7092TIP3    H242692   3.398   0.628  17.230 -1.4952 -0.9768 -0.0201
 7093TIP3   OH242693   3.515   3.726  14.097 -0.2298  0.3642 -0.9470
 7093TIP3    H142694   3.456   3.758  14.166  0.4320 -0.0207 -0.1868
 7093TIP3    H242695   3.464   3.659  14.052 -0.2924 -0.1472 -0.1290
 7094TIP3   OH242696   6.697   1.956  11.797  0.6409 -0.0574 -0.2329
 7094TIP3    H142697   6.703   2.051  11.813  0.4361 -0.3476  1.8641
 7094TIP3    H242698   6.724   1.916  11.880  0.2404 -1.8435 -0.9189
 7095TIP3   OH242699   2.502   2.321   4.986  0.1718 -0.5095 -0.0535
 7095TIP3    H142700   2.571   2.256   4.999 -0.1291 -0.8140  0.0526
 7095TIP3    H242701   2.421   2.272   5.000 -0.0249  0.1835  1.4310
 7096TIP3   OH242702   3.959   4.943  14.867 -0.6291  0.4269 -0.2219
 7096TIP3    H142703   3.865   4.927  14.859 -0.2217 -1.3510 -2.7688
 7096TIP3    H242704   3.972   5.027  14.823 -0.8096 -0.4344 -2.0222
 7097TIP3   OH242705   0.057   3.640   2.234  0.5074  0.2539  0.2811
 7097TIP3    H142706  -0.022   3.668   2.280  1.0632  1.0931  0.7437
 7097TIP3    H242707   0.123   3.705   2.257  1.2098 -0.1622 -0.4897
 7098TIP3   OH242708   3.493   4.559   3.209 -0.3883  0.8411  0.3328
 7098TIP3    H142709   3.450   4.593   3.130 -1.2833  0.6081  0.6994
 7098TIP3    H242710   3.501   4.635   3.266 -2.4405  0.4891  1.1748
 7099TIP3   OH242711   3.326   6.617  12.038  0.3418  0.9145 -0.0626
 7099TIP3    H142712   3.257   6.669  12.080 -1.2505 -0.6465 -0.6138
 7099TIP3    H242713   3.279   6.561  11.976  2.2067  0.2817 -0.9734
 7100TIP3   OH242714   6.282   3.922   0.771  0.0919 -0.0487  0.5976
 7100TIP3    H142715   6.216   3.858   0.798 -0.6118  0.3766 -0.0803
 7100TIP3    H242716   6.233   3.988   0.722  0.8589  0.8396  0.9917
 7101TIP3   OH242717   2.962   3.222  16.185  0.7480 -0.4884 -0.5016
 7101TIP3    H142718   3.041   3.275  16.177  1.3311 -0.9175  1.6955
 7101TIP3    H242719   2.990   3.133  16.163  0.2389 -0.2817 -2.1710
 7102TIP3   OH242720   6.195   2.017  12.044  0.5253 -0.0618  0.1189
 7102TIP3    H142721   6.204   2.028  11.949  0.7161 -0.3615  0.0981
 7102TIP3    H242722   6.283   1.992  12.073  1.2000  2.7594  0.7958
 7103TIP3   OH242723   1.104   0.042   2.809 -0.5133  0.0084 -0.2135
 7103TIP3    H142724   1.115  -0.012   2.731  1.6127 -0.8746  0.6318
 7103TIP3    H242725   1.152   0.122   2.790  2.1940 -1.2062  1.0308
 7104TIP3   OH242726   5.927   3.419   3.519 -0.4018  0.0783 -0.3131
 7104TIP3    H142727   5.956   3.402   3.608  0.9994  0.9629 -0.5474
 7104TIP3    H242728   5.833   3.431   3.525 -0.3041  0.2651  1.0721
 7105TIP3   OH242729   4.559   3.440   5.184  0.2867 -0.0090 -0.0385
 7105TIP3    H142730   4.634   3.486   5.147  0.8972 -1.0006 -0.0764
 7105TIP3    H242731   4.523   3.389   5.111  0.1746 -0.3011  0.2178
 7106TIP3   OH242732   3.038   6.526  12.260 -0.1781  0.5572  0.1174
 7106TIP3    H142733   3.088   6.584  12.202  2.4303 -1.4005  0.2474
 7106TIP3    H242734   2.961   6.501  12.209  0.6705  1.0033 -1.4481
 7107TIP3   OH242735   3.955   1.537   1.603  0.1240  0.7552 -0.0459
 7107TIP3    H142736   3.863   1.560   1.592  0.3150  1.6635  0.2317
 7107TIP3    H242737   3.957   1.442   1.587 -0.7362  0.8396 -0.7706
 7108TIP3   OH242738   5.505   3.514   1.837 -0.4703  0.1451 -0.0541
 7108TIP3    H142739   5.496   3.449   1.907 -0.0969  0.6670  0.4939
 7108TIP3    H242740   5.543   3.466   1.764  1.3332  0.0772  0.8754
 7109TIP3   OH242741   5.951   1.111   3.154  0.4072  0.1671  0.1960
 7109TIP3    H142742   6.041   1.080   3.143  0.1506 -0.3215 -0.5594
 7109TIP3    H242743   5.946   1.191   3.102  0.2076 -0.1865 -0.3283
 7110TIP3   OH242744   5.714   1.120  11.246  1.1590  0.2627  0.0339
 7110TIP3    H142745   5.807   1.135  11.258  0.8948  1.2137  1.1001
 7110TIP3    H242746   5.673   1.160  11.323 -0.0787 -0.7240 -0.0690
 7111TIP3   OH242747   4.903   6.506   4.386 -0.1187  0.7492 -0.4118
 7111TIP3    H142748   4.900   6.496   4.481 -2.0349 -0.3649 -0.5278
 7111TIP3    H242749   4.813   6.530   4.362  0.3328  1.0230 -1.9521
 7112TIP3   OH242750   3.385   5.081  12.368  0.0466  0.1784 -0.2457
 7112TIP3    H142751   3.427   5.000  12.397 -1.0517 -0.2198  0.2862
 7112TIP3    H242752   3.439   5.151  12.407 -0.3963 -0.3289  1.3851
 7113TIP3   OH242753   3.109   4.753   5.895  0.4336  0.3189  0.2437
 7113TIP3    H142754   3.119   4.839   5.936  2.0812  0.2176  0.1338
 7113TIP3    H242755   3.165   4.695   5.948  0.5042 -0.3626 -0.5646
 7114TIP3   OH242756   0.198   6.679   2.359  0.7799  0.4567 -0.0985
 7114TIP3    H142757   0.294   6.681   2.359  0.9456 -1.3536 -2.8266
 7114TIP3    H242758   0.176   6.593   2.395  0.3310  0.0486 -1.2864
 7115TIP3   OH242759   5.425   1.713  13.477 -0.2562  0.2419  0.3353
 7115TIP3    H142760   5.417   1.712  13.572 -2.4464 -0.1514  0.1912
 7115TIP3    H242761   5.335   1.705  13.445  0.6161 -3.6392 -1.7855
 7116TIP3   OH242762   3.826   1.748  13.148  0.3160  0.4538 -0.0046
 7116TIP3    H142763   3.920   1.760  13.156  0.2714  1.2422 -0.5314
 7116TIP3    H242764   3.788   1.821  13.197  0.0147  1.3059 -1.4367
 7117TIP3   OH242765   5.367   6.155  14.037 -0.1742  0.0153  0.1254
 7117TIP3    H142766   5.402   6.224  13.980 -1.6040  1.2601  0.6699
 7117TIP3    H242767   5.288   6.125  13.992  1.2110 -2.4354 -0.8683
 7118TIP3   OH242768   4.370   4.952  12.266  0.3879 -0.9718  0.1038
 7118TIP3    H142769   4.279   4.960  12.237  0.9580 -1.2204 -1.9326
 7118TIP3    H242770   4.376   4.862  12.299 -0.4187 -0.5153  1.5797
 7119TIP3   OH242771   4.369   1.129  12.159 -0.1873  0.0055  0.0890
 7119TIP3    H142772   4.384   1.045  12.203  2.3497 -0.3017 -1.1931
 7119TIP3    H242773   4.297   1.169  12.208 -0.4516 -2.2421  1.6823
 7120TIP3   OH242774   6.437   5.719  12.047 -0.1462 -0.1998 -0.0085
 7120TIP3    H142775   6.449   5.635  12.091 -0.1078 -0.2350 -0.0850
 7120TIP3    H242776   6.356   5.754  12.082  0.9414  0.7765  1.7124
 7121TIP3   OH242777   0.851   4.634   1.558  0.8789 -0.3182 -0.4670
 7121TIP3    H142778   0.922   4.642   1.495  0.2991  2.4073 -0.9203
 7121TIP3    H242779   0.893   4.647   1.643  1.0869  0.2589 -0.6526
 7122TIP3   OH242780   3.605   1.009   1.073  0.0071 -0.5343 -0.1677
 7122TIP3    H142781   3.546   1.053   1.012 -0.2168  0.0847  0.4767
 7122TIP3    H242782   3.658   0.951   1.018 -0.8885 -0.7623 -0.8086
 7123TIP3   OH242783   0.915   5.173  12.322 -0.0904  0.4483  0.4973
 7123TIP3    H142784   0.867   5.254  12.341 -0.9037  0.3472 -0.9422
 7123TIP3    H242785   0.873   5.107  12.377 -0.9095  0.5852  0.0565
 7124TIP3   OH242786   0.569   0.834  13.085  0.2210 -0.7898  0.1799
 7124TIP3    H142787   0.505   0.857  13.153  0.9235 -1.3828  1.0786
 7124TIP3    H242788   0.535   0.873  13.005 -2.0966 -2.3883  0.2827
 7125TIP3   OH242789   3.638   2.580   3.626  0.2090  0.5872 -0.6233
 7125TIP3    H142790   3.682   2.512   3.574 -0.7513 -0.9124  0.4389
 7125TIP3    H242791   3.615   2.647   3.563 -0.0251 -0.7116 -1.9723
 7126TIP3   OH242792   3.314   0.150   0.097 -0.2722  0.3402 -0.1349
 7126TIP3    H142793   3.280   0.076   0.147  0.5539  0.3744  0.5095
 7126TIP3    H242794   3.399   0.168   0.137  0.3763  0.4330 -1.4951
 7127TIP3   OH242795   0.687   3.826   0.948  0.1318  0.0006  0.0150
 7127TIP3    H142796   0.700   3.743   0.994 -1.6270  0.6940  1.9355
 7127TIP3    H242797   0.775   3.860   0.933  0.8555 -1.8954 -0.2326
 7128TIP3   OH242798   5.138   4.023   5.430  0.2002  0.6163 -0.6306
 7128TIP3    H142799   5.051   4.034   5.470  0.9251  2.5758  0.5543
 7128TIP3    H242800   5.154   4.105   5.384  2.5209  1.4697  1.4874
 7129TIP3   OH242801   0.547   1.828  12.649  0.1496  0.0806 -0.5797
 7129TIP3    H142802   0.517   1.755  12.594  0.5155 -0.5369  0.0153
 7129TIP3    H242803   0.479   1.894  12.640  0.6749  0.4374 -2.5758
 7130TIP3   OH242804   3.593   6.422   1.015 -0.0089 -0.0960  0.1524
 7130TIP3    H142805   3.507   6.462   0.999 -0.9267 -1.9626  0.2538
 7130TIP3    H242806   3.603   6.359   0.944  0.5982 -0.9527  0.9795
 7131TIP3   OH242807   4.539   1.666   1.892  0.4819  0.1094  0.3702
 7131TIP3    H142808   4.566   1.591   1.840 -0.7888 -1.5630  2.0265
 7131TIP3    H242809   4.457   1.695   1.852  0.7429  0.3720  0.0096
 7132TIP3   OH242810   3.604   3.241   5.417 -0.7051 -0.0653 -0.5506
 7132TIP3    H142811   3.576   3.310   5.477  2.0888  0.9621 -0.2708
 7132TIP3    H242812   3.682   3.277   5.375 -0.6675 -2.0817 -2.3399
 7133TIP3   OH242813   5.038   5.113   3.441 -0.0847 -0.1831 -0.2646
 7133TIP3    H142814   4.959   5.148   3.483 -0.6011 -2.4617  0.8448
 7133TIP3    H242815   5.098   5.095   3.513  0.2304 -1.2766 -0.7715
 7134TIP3   OH242816   5.558   1.752   6.057  0.1080  0.1800  0.0597
 7134TIP3    H142817   5.472   1.772   6.095  0.5444  0.1428  1.0935
 7134TIP3    H242818   5.574   1.661   6.079  0.1556  0.0066 -0.6611
 7135TIP3   OH242819   6.414   1.583   1.256 -0.5568  0.0637  0.1479
 7135TIP3    H142820   6.464   1.613   1.332  0.8493 -0.3193 -0.5890
 7135TIP3    H242821   6.338   1.642   1.252  0.9541  2.1097  0.0649
 7136TIP3   OH242822   4.843   2.337  12.194  0.0393  0.1890 -0.1565
 7136TIP3    H142823   4.910   2.402  12.215 -0.9325  1.9546 -2.1790
 7136TIP3    H242824   4.857   2.315  12.102  0.0179 -2.1535  0.3347
 7137TIP3   OH242825   1.569   2.120   3.816 -0.5266 -0.3081  0.2843
 7137TIP3    H142826   1.583   2.053   3.884  1.7268  0.2407  0.4416
 7137TIP3    H242827   1.606   2.200   3.853 -0.8296  0.4151 -0.9143
 7138TIP3   OH242828   0.110   2.400  14.087 -0.5042  0.4587  0.6843
 7138TIP3    H142829   0.031   2.452  14.102  0.0614  1.2499  0.9910
 7138TIP3    H242830   0.181   2.465  14.080  0.3028 -0.2912  1.6231
 7139TIP3   OH242831   5.313   0.600  14.372  0.2260  0.5468 -0.0321
 7139TIP3    H142832   5.398   0.597  14.416  0.7876  2.3361 -0.8915
 7139TIP3    H242833   5.249   0.581  14.441  1.2701 -0.1391  0.7709
 7140TIP3   OH242834   4.652   3.107   5.177  0.0957  0.3574 -0.2165
 7140TIP3    H142835   4.676   3.167   5.106 -3.5326  1.4744 -0.6802
 7140TIP3    H242836   4.645   3.163   5.254  2.7169 -0.6418  0.8665
 7141TIP3   OH242837   3.799   2.634   2.590 -0.0012 -0.3846  0.0950
 7141TIP3    H142838   3.752   2.592   2.518 -0.0802  2.9868 -2.0125
 7141TIP3    H242839   3.732   2.683   2.638  0.4496 -0.5722  0.9501
 7142TIP3   OH242840   5.329   0.331   1.142  0.1372 -0.1348  0.0850
 7142TIP3    H142841   5.283   0.401   1.190  1.4984  0.7529  0.1555
 7142TIP3    H242842   5.421   0.344   1.165  0.6873 -0.4583 -1.8148
 7143TIP3   OH242843   4.995   5.584  11.193  0.2669  0.0114  0.0578
 7143TIP3    H142844   4.960   5.519  11.132  0.8136  0.3327 -0.6182
 7143TIP3    H242845   4.973   5.668  11.153  0.5069  0.2291  0.3783
 7144TIP3   OH242846   5.530   0.908  15.185  0.1652  0.3233 -0.7537
 7144TIP3    H142847   5.584   0.933  15.259 -0.7866  0.8952 -0.2304
 7144TIP3    H242848   5.545   0.814  15.173  1.1505  0.4516 -0.5330
 7145TIP3   OH242849   6.377   1.047  14.001 -0.1152 -0.1693  0.3171
 7145TIP3    H142850   6.437   0.972  13.995 -0.0880 -0.1130 -0.1273
 7145TIP3    H242851   6.392   1.097  13.921 -1.4303 -0.6488 -0.2528
 7146TIP3   OH242852   6.222   4.101   5.299 -0.4627  0.1999  0.0672
 7146TIP3    H142853   6.151   4.098   5.234  0.5687 -1.0738 -1.0630
 7146TIP3    H242854   6.286   4.036   5.268  1.1651  1.2396  1.0935
 7147TIP3   OH242855   0.434   2.162  12.831 -0.3348  0.3248  0.6036
 7147TIP3    H142856   0.464   2.150  12.921 -0.4596 -0.5249  0.5415
 7147TIP3    H242857   0.347   2.121  12.829  0.1731 -0.7802 -0.2007
 7148TIP3   OH242858   5.727   1.977   4.940 -0.0719 -0.0117 -0.3701
 7148TIP3    H142859   5.658   1.925   4.901  0.0077 -1.4290  1.2174
 7148TIP3    H242860   5.683   2.055   4.973 -0.2715  0.7839 -2.4239
 7149TIP3   OH242861   0.930   0.406  14.213 -0.2786  0.2825 -0.0168
 7149TIP3    H142862   0.893   0.324  14.179 -2.3142  1.5684 -1.0501
 7149TIP3    H242863   0.889   0.416  14.299 -2.7009  1.8154 -1.2482
 7150TIP3   OH242864   4.210   6.476   0.236  0.1383  0.3531  0.1254
 7150TIP3    H142865   4.246   6.545   0.291  2.4088  1.1909 -2.1808
 7150TIP3    H242866   4.152   6.521   0.175  0.0965 -0.0714 -0.1516
 7151TIP3   OH242867   3.654   4.173   1.256  0.2095 -0.0030 -0.3391
 7151TIP3    H142868   3.574   4.131   1.223 -0.2435 -0.2168  0.9509
 7151TIP3    H242869   3.670   4.129   1.339  3.0377 -1.6356 -1.6163
 7152TIP3   OH242870   5.087   2.245   0.433 -0.3873  0.3895 -0.0590
 7152TIP3    H142871   5.143   2.248   0.355 -2.0149 -0.2570 -1.3103
 7152TIP3    H242872   5.094   2.155   0.464  0.6834  0.7808  0.9108
 7153TIP3   OH242873   0.427   2.494  12.318 -0.2865 -1.0476 -0.2742
 7153TIP3    H142874   0.374   2.508  12.240  4.3108  0.0059 -3.6056
 7153TIP3    H242875   0.434   2.399  12.326 -2.5764 -1.2229  0.3639
 7154TIP3   OH242876   0.157   2.460   4.507  0.3855  0.3848  0.1541
 7154TIP3    H142877   0.228   2.429   4.451  0.0861  0.0878 -0.0625
 7154TIP3    H242878   0.201   2.496   4.584  0.8662  1.9252 -0.8052
 7155TIP3   OH242879   5.673   1.167  12.041 -0.2841  0.0896  0.5480
 7155TIP3    H142880   5.578   1.158  12.032 -0.1447 -0.4596 -0.4974
 7155TIP3    H242881   5.688   1.167  12.136 -1.3913  0.9412  0.7472
 7156TIP3   OH242882   4.722   1.754  10.582  0.4725  0.1780 -0.5956
 7156TIP3    H142883   4.636   1.744  10.541  0.7407 -0.2658 -1.0634
 7156TIP3    H242884   4.729   1.847  10.601 -0.6449  0.0514  0.6256
 7157TIP3   OH242885   3.249   0.871  16.325  0.1230  0.3741  0.0176
 7157TIP3    H142886   3.283   0.944  16.273 -0.5184 -0.1975 -1.2589
 7157TIP3    H242887   3.291   0.794  16.288 -0.0806 -0.0197  0.5939
 7158TIP3   OH242888   2.539   1.579  11.562  0.4024 -0.6584  0.3261
 7158TIP3    H142889   2.630   1.592  11.591  0.8172  0.6273 -1.3928
 7158TIP3    H242890   2.546   1.521  11.486  0.0909  1.2553 -1.2428
 7159TIP3   OH242891   1.038   4.252   1.514 -0.4453 -0.2353  0.0349
 7159TIP3    H142892   1.073   4.288   1.432 -1.8530 -1.2173 -1.0341
 7159TIP3    H242893   1.002   4.328   1.560 -1.1858  0.1034 -1.0662
 7160TIP3   OH242894   6.447   1.548  16.922  0.3998 -0.0432 -0.0871
 7160TIP3    H142895   6.514   1.613  16.897  0.5230  0.4513  1.4622
 7160TIP3    H242896   6.410   1.582  17.003 -2.3806  0.1443 -1.3170
 7161TIP3   OH242897   4.318   1.792   2.061  0.7435 -0.1795 -0.0632
 7161TIP3    H142898   4.256   1.824   1.995  0.0726  0.3494  0.8064
 7161TIP3    H242899   4.306   1.697   2.061 -1.6061  0.0432  1.5338
 7162TIP3   OH242900   6.153   5.099   0.717  0.1286  0.5836  0.1004
 7162TIP3    H142901   6.098   5.022   0.725 -0.1178  0.6848 -0.5597
 7162TIP3    H242902   6.139   5.148   0.799 -1.0280  0.7794 -0.2048
 7163TIP3   OH242903   2.824   3.513   1.098 -0.2625  0.1187 -0.1840
 7163TIP3    H142904   2.867   3.593   1.127  0.3738 -0.3681  0.2471
 7163TIP3    H242905   2.752   3.500   1.161  0.5602 -0.4496  0.6647
 7164TIP3   OH242906   1.161   2.855  11.991 -0.2506  0.0482 -0.0904
 7164TIP3    H142907   1.218   2.779  11.980  1.8902  1.3884  1.0709
 7164TIP3    H242908   1.115   2.862  11.907  0.7077 -1.5592 -0.8082
 7165TIP3   OH242909   1.110   3.605  11.106  0.7344 -0.5520 -0.0474
 7165TIP3    H142910   1.142   3.566  11.187  2.4273  0.5797 -0.1202
 7165TIP3    H242911   1.133   3.698  11.113 -0.7135 -0.0673 -1.0603
 7166TIP3   OH242912   3.203   1.243  14.639  0.6863 -0.2910 -0.0227
 7166TIP3    H142913   3.155   1.310  14.591 -1.5294  0.5515  3.0444
 7166TIP3    H242914   3.215   1.280  14.726  1.6203 -2.9063  1.0469
 7167TIP3   OH242915   6.028   3.056   5.483 -0.2735 -0.1746 -0.3746
 7167TIP3    H142916   6.094   3.096   5.539 -0.2365  1.1715 -1.3407
 7167TIP3    H242917   6.079   3.015   5.413 -0.4001 -0.4237 -0.3217
 7168TIP3   OH242918   6.318   2.615   3.920 -0.6183  0.2030  0.7933
 7168TIP3    H142919   6.268   2.543   3.882  0.7783 -0.7793  0.7283
 7168TIP3    H242920   6.349   2.581   4.003  0.3981  0.5757  0.5777
 7169TIP3   OH242921   3.413   0.565  13.642  0.1363  0.2686  0.5767
 7169TIP3    H142922   3.464   0.645  13.649  0.3407  0.1992 -0.1188
 7169TIP3    H242923   3.325   0.590  13.673  0.3216  0.6355  0.8144
 7170TIP3   OH242924   0.093   4.587  16.542 -0.2376 -0.1389  0.5944
 7170TIP3    H142925   0.088   4.526  16.469 -2.5009  1.0635 -0.3640
 7170TIP3    H242926   0.149   4.658  16.510 -0.3009 -0.1497  0.4596
 7171TIP3   OH242927   3.213   5.239  12.548  0.1153  0.0200 -0.6538
 7171TIP3    H142928   3.213   5.314  12.490  4.6088  0.2834 -0.7006
 7171TIP3    H242929   3.218   5.163  12.489  1.9043  0.1467 -0.7372
 7172TIP3   OH242930   5.669   1.227  13.932 -0.8037 -0.0325 -0.2979
 7172TIP3    H142931   5.701   1.315  13.952  0.1607 -0.7984  1.7647
 7172TIP3    H242932   5.581   1.224  13.970 -1.0176  0.1503 -0.7596
 7173TIP3   OH242933   2.343   2.222   1.191  0.2061 -0.1284  0.0355
 7173TIP3    H142934   2.435   2.237   1.210  0.4830 -0.1238 -1.2180
 7173TIP3    H242935   2.340   2.202   1.097 -1.1975  1.0813 -0.2307
 7174TIP3   OH242936   0.577   4.127  15.819  0.2141  0.1729  0.4946
 7174TIP3    H142937   0.537   4.043  15.794  0.7180 -0.1102  0.6286
 7174TIP3    H242938   0.503   4.184  15.838 -0.2034  0.3144 -1.3786
 7175TIP3   OH242939   3.731   1.132  13.063  0.0980 -0.5685  0.1899
 7175TIP3    H142940   3.659   1.155  13.121 -1.3860 -0.7552 -1.4775
 7175TIP3    H242941   3.786   1.211  13.060 -0.7946  0.0783  0.4058
 7176TIP3   OH242942   3.614   6.234   0.835  0.3852 -0.4710  0.3357
 7176TIP3    H142943   3.538   6.191   0.797 -0.2718 -1.1665  2.3043
 7176TIP3    H242944   3.688   6.176   0.813  0.0798 -0.6882 -0.1294
 7177TIP3   OH242945   3.229   6.268   0.090  0.2730  0.1411 -0.3699
 7177TIP3    H142946   3.278   6.226   0.160 -1.4214  1.4053  1.6756
 7177TIP3    H242947   3.150   6.213   0.080 -0.1484  0.7287 -0.3171
 7178TIP3   OH242948   0.581   0.115  13.724  0.2309 -0.1853 -0.2063
 7178TIP3    H142949   0.648   0.158  13.778 -1.1657 -0.3046  1.7291
 7178TIP3    H242950   0.500   0.163  13.743 -0.8623 -2.0100  0.0259
 7179TIP3   OH242951   2.973   3.938   3.618 -0.3717  0.1082  0.5424
 7179TIP3    H142952   3.058   3.952   3.659  1.3748  0.5960 -2.9220
 7179TIP3    H242953   2.933   4.025   3.616  0.5090  0.5206 -0.6246
 7180TIP3   OH242954   0.188   3.476   6.112 -0.0679 -0.0526  0.5646
 7180TIP3    H142955   0.257   3.518   6.062  1.3432 -0.5892  1.9819
 7180TIP3    H242956   0.219   3.477   6.203 -2.3402  0.5239  1.4046
 7181TIP3   OH242957   0.013   1.762   4.467 -0.0900  0.6468  0.5484
 7181TIP3    H142958  -0.055   1.827   4.481 -1.3131 -0.4532 -0.0666
 7181TIP3    H242959   0.048   1.743   4.554 -1.5422  0.2244  1.0678
 7182TIP3   OH242960   3.270   2.699  15.016  0.2249 -0.5926  0.7905
 7182TIP3    H142961   3.291   2.751  14.938 -1.7086 -1.5982 -0.4819
 7182TIP3    H242962   3.306   2.749  15.089  0.5322  1.2819 -0.5843
 7183TIP3   OH242963   0.824   1.049  13.920  0.3922 -0.1961  0.0235
 7183TIP3    H142964   0.813   1.118  13.985 -0.2549 -1.4957  1.3760
 7183TIP3    H242965   0.782   0.972  13.960  1.5909 -1.5237 -1.1522
 7184TIP3   OH242966   5.152   4.264   3.914  0.3188  0.2736  0.6265
 7184TIP3    H142967   5.062   4.232   3.910  0.4918 -0.2722  1.0151
 7184TIP3    H242968   5.158   4.327   3.843 -0.0693 -0.4685 -0.0759
 7185TIP3   OH242969   2.002   5.851   3.131 -0.0014  0.1912  0.2298
 7185TIP3    H142970   2.012   5.777   3.191  1.0773  0.9665  1.0563
 7185TIP3    H242971   1.909   5.851   3.108 -0.2110 -0.8266  0.9953
 7186TIP3   OH242972   3.812   3.117  12.978 -0.3701  0.1093  0.0283
 7186TIP3    H142973   3.719   3.136  12.964 -0.7168  0.8278  2.6999
 7186TIP3    H242974   3.856   3.199  12.954 -0.5272  0.0949 -0.3181
 7187TIP3   OH242975   4.454   3.052  13.531  0.3860  0.4909  0.1188
 7187TIP3    H142976   4.545   3.023  13.539  0.2701  0.3811  1.0810
 7187TIP3    H242977   4.447   3.080  13.439  1.0681 -0.5751 -0.2885
 7188TIP3   OH242978   2.078   4.985  12.548 -0.2938 -0.1618  0.2642
 7188TIP3    H142979   2.038   5.001  12.633 -1.2563  0.2765 -0.2581
 7188TIP3    H242980   2.019   5.027  12.485 -0.0654 -1.2083 -0.6945
 7189TIP3   OH242981   0.626   3.157  13.832 -0.5250  0.1774  0.1341
 7189TIP3    H142982   0.548   3.129  13.785 -0.0909 -1.4401  0.3446
 7189TIP3    H242983   0.592   3.201  13.910 -1.2246  0.0156 -0.0737
 7190TIP3   OH242984   1.379   6.631  12.278  0.6980  0.1674  0.0730
 7190TIP3    H142985   1.306   6.642  12.217  1.0566  1.0540 -0.2146
 7190TIP3    H242986   1.341   6.652  12.364  0.6179  0.6634 -0.0786
 7191TIP3   OH242987   1.396   5.930   5.419  0.1163  0.0609  0.3309
 7191TIP3    H142988   1.395   6.022   5.391  2.5018  0.3517  1.0259
 7191TIP3    H242989   1.362   5.932   5.509  0.1757  0.2521  0.3500
 7192TIP3   OH242990   0.413   1.624  10.545  0.7023 -0.2602 -0.6551
 7192TIP3    H142991   0.473   1.583  10.484 -1.1589 -0.8064 -2.2255
 7192TIP3    H242992   0.380   1.701  10.499 -0.7169 -0.6626 -0.3577
 7193TIP3   OH242993   1.366   1.882  12.115  0.0656 -0.0202 -0.3965
 7193TIP3    H142994   1.335   1.792  12.119 -0.1092  0.0488 -0.1762
 7193TIP3    H242995   1.458   1.877  12.140 -0.4706  0.1267  1.7709
 7194TIP3   OH242996   0.500   5.091  14.421 -0.2982  0.2179 -0.2963
 7194TIP3    H142997   0.552   5.169  14.439 -1.7681  0.7781  2.0451
 7194TIP3    H242998   0.430   5.122  14.362 -0.2993  0.4273 -0.1848
 7195TIP3   OH242999   4.739   1.840  14.105  0.4617  0.4130  0.5206
 7195TIP3    H143000   4.709   1.812  14.018 -0.2021  2.3858  0.0652
 7195TIP3    H243001   4.826   1.878  14.089  0.9807 -0.5623  0.9795
 7196TIP3   OH243002   6.763   2.119  14.897  0.4591  0.0543 -0.0282
 7196TIP3    H143003   6.829   2.187  14.908  1.4948 -1.1684  1.9222
 7196TIP3    H243004   6.811   2.037  14.907 -1.1348 -0.9130  0.0613
 7197TIP3   OH243005   6.254   6.714  14.741 -0.1937  0.3028 -0.2269
 7197TIP3    H143006   6.324   6.723  14.806  0.0773 -0.1221 -0.4471
 7197TIP3    H243007   6.199   6.790  14.753  0.9836  1.2996 -0.8565
 7198TIP3   OH243008   3.081   2.480  17.295 -0.7428 -0.0246  0.0225
 7198TIP3    H143009   3.015   2.453  17.231 -0.7887  0.8252 -0.3017
 7198TIP3    H243010   3.065   2.574  17.308  1.7788  0.7419 -1.7312
 7199TIP3   OH243011   2.775   6.215  15.104 -0.2206 -0.1391 -0.7137
 7199TIP3    H143012   2.771   6.120  15.104  0.2907 -0.1659 -0.4901
 7199TIP3    H243013   2.686   6.243  15.083 -0.1518 -0.6655 -1.7764
 7200TIP3   OH243014   2.137   4.796   2.092 -0.2439 -0.3282 -0.0727
 7200TIP3    H143015   2.128   4.887   2.122 -2.5280 -0.5812  0.1750
 7200TIP3    H243016   2.220   4.767   2.130  0.5880  1.6561 -0.2154
 7201TIP3   OH243017   2.001   5.530  14.607 -0.2519 -0.2114 -0.3377
 7201TIP3    H143018   1.966   5.461  14.551 -2.1159 -0.0391  0.5207
 7201TIP3    H243019   1.962   5.514  14.692  0.5981  0.9391  0.3029
 7202TIP3   OH243020   2.571   5.029  13.326  0.2001  0.0493 -0.8488
 7202TIP3    H143021   2.532   4.981  13.252  0.2988 -0.4253 -0.6014
 7202TIP3    H243022   2.521   4.999  13.402  0.2505  0.3609 -0.6945
 7203TIP3   OH243023   4.042   1.078   0.969  0.2905  0.2473  0.5144
 7203TIP3    H143024   3.949   1.101   0.971 -0.0194 -0.8554 -0.3881
 7203TIP3    H243025   4.085   1.159   0.944 -0.4562  0.7019  0.6543
 7204TIP3   OH243026   6.195   2.418   3.460  0.2748  0.2448  0.4381
 7204TIP3    H143027   6.209   2.497   3.514 -0.6394  0.4752  0.3515
 7204TIP3    H243028   6.268   2.419   3.398  0.2287  1.0686  0.3852
 7205TIP3   OH243029   3.782   3.929  13.429  0.2227 -0.0500  0.3510
 7205TIP3    H143030   3.749   4.017  13.415  0.6244  0.1577  0.6860
 7205TIP3    H243031   3.873   3.932  13.398 -0.4695 -1.0160 -1.9866
 7206TIP3   OH243032   3.655   4.008  16.935 -0.2450 -0.1493  0.1189
 7206TIP3    H143033   3.593   4.070  16.896 -0.9033 -1.3189 -0.7464
 7206TIP3    H243034   3.615   3.984  17.019  0.1122  0.7138  0.5560
 7207TIP3   OH243035   3.171   2.401   4.470 -0.1557 -0.4864  0.1840
 7207TIP3    H143036   3.229   2.477   4.474  1.8317 -1.9664  0.8149
 7207TIP3    H243037   3.177   2.370   4.380  1.3268 -1.5503  0.6168
 7208TIP3   OH243038   4.920   0.160   3.282  0.1040  0.6488 -0.7266
 7208TIP3    H143039   4.951   0.248   3.259  0.0284  0.7664 -0.3904
 7208TIP3    H243040   4.998   0.115   3.316  0.3165  0.3263 -1.6259
 7209TIP3   OH243041   3.313   0.282  12.485  0.2681 -0.9488 -0.0423
 7209TIP3    H143042   3.222   0.299  12.461  0.1086 -1.1827  0.3962
 7209TIP3    H243043   3.362   0.303  12.406 -0.0694  0.0986  0.0137
 7210TIP3   OH243044   2.975   0.415  13.073  0.4482 -0.3585  0.6370
 7210TIP3    H143045   2.963   0.444  13.163 -1.7253 -1.7345  0.8712
 7210TIP3    H243046   2.950   0.491  13.020 -0.4699 -0.2311  1.2255
 7211TIP3   OH243047   0.996   4.636   3.266 -0.0877  0.3216  0.1190
 7211TIP3    H143048   0.965   4.599   3.348  1.4490 -0.5161  0.3636
 7211TIP3    H243049   1.084   4.599   3.254  0.0831  1.1200 -1.4498
 7212TIP3   OH243050   3.717   2.477   2.381 -0.8038  0.4993 -0.2290
 7212TIP3    H143051   3.746   2.413   2.317 -1.8171  0.4128 -0.6302
 7212TIP3    H243052   3.646   2.524   2.337 -1.8715  0.0900  1.0014
 7213TIP3   OH243053   3.057   1.589   4.937  0.2329  0.1031  0.3599
 7213TIP3    H143054   3.006   1.646   4.994 -0.9420 -0.6675  0.1118
 7213TIP3    H243055   2.999   1.571   4.863  1.1976 -0.0738 -0.3691
 7214TIP3   OH243056   1.157   3.441  14.781  0.4414  1.2016  0.1088
 7214TIP3    H143057   1.069   3.449  14.818  0.8250 -0.0447  1.3553
 7214TIP3    H243058   1.165   3.517  14.723 -0.0857  3.4992  2.7958
 7215TIP3   OH243059   4.724   2.045   2.277  0.8255 -0.8993 -0.5585
 7215TIP3    H143060   4.725   2.101   2.200 -0.0453  1.7478  1.1893
 7215TIP3    H243061   4.634   2.014   2.284  0.2380  0.8802  0.6133
 7216TIP3   OH243062   0.792   1.243   0.852  0.0667 -0.1764  0.1991
 7216TIP3    H143063   0.870   1.295   0.875  0.1911  0.1249 -0.8503
 7216TIP3    H243064   0.734   1.254   0.928  0.8608 -0.0473  0.8109
 7217TIP3   OH243065   3.915   0.490  14.514  0.0232  0.2718 -0.4997
 7217TIP3    H143066   3.907   0.481  14.419  1.3438 -0.5593 -0.5581
 7217TIP3    H243067   3.992   0.545  14.526  1.2330 -1.4731  0.0862
 7218TIP3   OH243068   2.940   6.440  14.939 -0.0458 -0.4563  0.1243
 7218TIP3    H143069   2.936   6.390  15.020 -1.4721 -0.4931  0.0535
 7218TIP3    H243070   2.963   6.376  14.872 -0.0012 -0.6521  0.3284
 7219TIP3   OH243071   5.186   0.767   0.380 -0.6287  0.6187  0.5714
 7219TIP3    H143072   5.200   0.860   0.359  3.7580  0.9330  3.4495
 7219TIP3    H243073   5.111   0.766   0.439 -0.6360  2.3977  0.6399
 7220TIP3   OH243074   5.526   0.466  14.497 -0.1563  0.0263 -0.0137
 7220TIP3    H143075   5.587   0.524  14.543 -0.5578 -1.0440  1.9646
 7220TIP3    H243076   5.580   0.420  14.433  0.8011  0.1917  0.6601
 7221TIP3   OH243077   3.582   1.590  15.103 -0.3395 -0.4056  0.1091
 7221TIP3    H143078   3.596   1.495  15.112 -0.7979 -0.3488  1.8233
 7221TIP3    H243079   3.596   1.607  15.010  1.2914 -1.8978  0.0151
 7222TIP3   OH243080   6.135   2.085   4.417  0.5580  0.2238  0.4781
 7222TIP3    H143081   6.079   2.143   4.366  1.5608  0.6466 -0.1792
 7222TIP3    H243082   6.113   1.997   4.385  0.5391  0.4151 -0.0457
 7223TIP3   OH243083   4.613   3.292  13.420 -0.1562  0.4730  0.3222
 7223TIP3    H143084   4.599   3.269  13.512  1.3811  0.5944  0.6181
 7223TIP3    H243085   4.616   3.208  13.375  1.2935  0.2548  0.7562
 7224TIP3   OH243086   5.507   2.884  11.276 -0.1572 -0.1325 -0.0888
 7224TIP3    H143087   5.440   2.931  11.227  0.0045 -0.5942 -0.7759
 7224TIP3    H243088   5.482   2.895  11.368 -0.0526  1.3702 -0.2204
 7225TIP3   OH243089   4.866   1.983  11.559  0.2698  0.0070  0.6104
 7225TIP3    H143090   4.857   2.035  11.480 -1.9123 -1.1665  0.0132
 7225TIP3    H243091   4.938   2.025  11.607  1.9042  0.5507 -2.0888
 7226TIP3   OH243092   4.910   1.015  16.694  0.0203  0.1348  0.1097
 7226TIP3    H143093   4.840   1.079  16.686 -0.0257  0.1520  0.6187
 7226TIP3    H243094   4.898   0.977  16.781  0.9619  0.5195  0.4166
 7227TIP3   OH243095   3.619   4.477  14.513  0.1483 -0.0109  0.5127
 7227TIP3    H143096   3.654   4.413  14.575  0.9687  0.3355  0.4239
 7227TIP3    H243097   3.654   4.449  14.428 -0.6095 -0.2289  0.2586
 7228TIP3   OH243098   5.600   0.030  14.701  0.4695  0.0596 -0.4125
 7228TIP3    H143099   5.628  -0.061  14.708  1.5767  0.4426  0.4727
 7228TIP3    H243100   5.507   0.029  14.724  0.1278 -1.0093 -1.7214
 7229TIP3   OH243101   2.882   0.563   1.856 -0.0975 -0.3109 -0.1080
 7229TIP3    H143102   2.918   0.567   1.945  0.6408 -1.4846 -0.3351
 7229TIP3    H243103   2.789   0.542   1.869 -0.0418 -0.2747  0.3826
 7230TIP3   OH243104   3.156   0.149   4.943 -0.3604  0.1313  0.6305
 7230TIP3    H143105   3.061   0.141   4.931 -0.5349  0.5127  1.6555
 7230TIP3    H243106   3.171   0.123   5.034  0.5862 -0.3909  0.3324
 7231TIP3   OH243107   0.139   5.843  14.780 -0.2638  0.3641  0.3504
 7231TIP3    H143108   0.226   5.839  14.820  0.7153  0.6582 -1.6748
 7231TIP3    H243109   0.149   5.899  14.703 -1.8622 -0.8493 -0.8197
 7232TIP3   OH243110   0.363   4.445   4.257  0.6197 -0.2926  0.5705
 7232TIP3    H143111   0.369   4.391   4.179  1.5638 -0.6687  0.8903
 7232TIP3    H243112   0.321   4.389   4.322  1.0165 -0.4227  0.7149
 7233TIP3   OH243113   1.754   1.503  12.119  0.7397 -0.0361  0.3148
 7233TIP3    H143114   1.745   1.533  12.210 -0.1482 -1.0678  0.5889
 7233TIP3    H243115   1.737   1.580  12.066  1.0006  0.5184  1.0202
 7234TIP3   OH243116   4.312   5.185  15.836 -0.1866  0.3248 -0.2502
 7234TIP3    H143117   4.279   5.101  15.868 -0.8305  1.0423  1.0507
 7234TIP3    H243118   4.245   5.248  15.862  1.3295  1.5635  0.8196
 7235TIP3   OH243119   1.106   5.440  11.685  0.6330 -0.4279 -0.4582
 7235TIP3    H143120   1.189   5.419  11.642  0.1592 -1.5019 -0.8900
 7235TIP3    H243121   1.126   5.514  11.742  1.5229  0.3437 -1.7341
 7236TIP3   OH243122   5.201   0.862  16.934 -0.0566 -0.2872 -0.2891
 7236TIP3    H143123   5.269   0.929  16.943 -0.4777  0.3077 -1.3284
 7236TIP3    H243124   5.176   0.841  17.024  0.1552  0.8865  0.0639
 7237TIP3   OH243125   1.016   6.353  16.755  0.1119 -0.5750 -0.1091
 7237TIP3    H143126   0.951   6.371  16.823  0.3995  0.6855 -0.1418
 7237TIP3    H243127   0.965   6.339  16.676 -0.1495  0.7337 -0.2046
 7238TIP3   OH243128   0.847   1.033  14.227 -0.3682  0.0424  0.5742
 7238TIP3    H143129   0.820   1.124  14.217  0.8921  0.2106 -2.7289
 7238TIP3    H243130   0.871   1.025  14.319 -0.7349  2.9691  1.0250
 7239TIP3   OH243131   3.117   2.928   1.915 -0.0201  0.1841  0.0028
 7239TIP3    H143132   3.171   2.863   1.870  0.8535  0.0747  1.1896
 7239TIP3    H243133   3.054   2.877   1.966 -1.4953  0.3079 -1.5909
 7240TIP3   OH243134   0.410   4.986   4.921  0.5780  0.4508 -0.3742
 7240TIP3    H143135   0.328   5.033   4.912  0.4219 -0.0731 -1.8777
 7240TIP3    H243136   0.476   5.054   4.936  0.0269  0.9471 -0.2052
 7241TIP3   OH243137   0.721   1.026  15.256  0.2607  0.0492  0.1318
 7241TIP3    H143138   0.764   1.096  15.304 -1.6530  1.9910 -0.8066
 7241TIP3    H243139   0.674   0.975  15.322  2.5370 -1.1379  0.9561
 7242TIP3   OH243140   1.455   5.318  13.181 -0.4144  0.1453  0.1131
 7242TIP3    H143141   1.503   5.244  13.219  1.6749  2.7058  3.0987
 7242TIP3    H243142   1.409   5.357  13.256 -0.9641  2.1726 -1.2052
 7243TIP3   OH243143   2.950   0.021   3.697  0.0775 -0.3751  0.2994
 7243TIP3    H143144   2.952   0.079   3.773  1.1580  0.1456 -0.1063
 7243TIP3    H243145   3.011  -0.050   3.720  1.0675  0.2200 -0.3931
 7244TIP3   OH243146   1.214   3.395  16.402  0.0371 -0.7423 -0.1142
 7244TIP3    H143147   1.251   3.366  16.319 -0.0113  0.8560 -0.7163
 7244TIP3    H243148   1.123   3.366  16.399 -0.4027  0.6554 -1.3303
 7245TIP3   OH243149   4.750   1.486  16.160 -0.3645 -0.2187  0.5082
 7245TIP3    H143150   4.791   1.457  16.078 -1.2080 -0.8032  0.2719
 7245TIP3    H243151   4.806   1.556  16.192 -0.5634  0.7177 -1.0952
 7246TIP3   OH243152   1.218   5.809   1.970  0.0341  0.3360  0.3281
 7246TIP3    H143153   1.289   5.761   1.927  0.8796  1.3158  0.5754
 7246TIP3    H243154   1.163   5.742   2.010  0.4067 -0.4814 -0.4976
 7247TIP3   OH243155   1.024   6.497  11.655  0.1384 -0.0004  0.0679
 7247TIP3    H143156   1.017   6.405  11.629 -2.3176  0.2818 -0.4640
 7247TIP3    H243157   0.947   6.539  11.617  0.8019  2.1425  0.9375
 7248TIP3   OH243158   3.447   2.332  16.698 -0.7319  0.1838  0.7411
 7248TIP3    H143159   3.448   2.419  16.738 -1.4633  0.0102  1.1488
 7248TIP3    H243160   3.361   2.297  16.719 -0.8784 -0.1847 -0.4301
 7249TIP3   OH243161   6.737   3.117   0.444  0.4704  0.2618 -0.2554
 7249TIP3    H143162   6.664   3.179   0.437  1.6423  1.7306  0.0033
 7249TIP3    H243163   6.789   3.133   0.364  0.3601 -0.9745 -0.5825
 7250TIP3   OH243164   0.224   3.779  11.530  0.5624  0.1361 -0.3581
 7250TIP3    H143165   0.270   3.775  11.446 -1.0107 -2.6104 -1.2286
 7250TIP3    H243166   0.186   3.691  11.540 -0.7110  0.9081  2.4198
 7251TIP3   OH243167   4.171   5.268  15.130  0.3296  0.5301 -0.0028
 7251TIP3    H143168   4.258   5.235  15.107  0.7157  1.5699 -0.0919
 7251TIP3    H243169   4.121   5.190  15.152  1.9250  0.0355  2.2311
 7252TIP3   OH243170   1.765   1.438  14.467  0.0184  0.1475 -0.3951
 7252TIP3    H143171   1.722   1.467  14.548 -0.1172 -0.1365 -0.3602
 7252TIP3    H243172   1.807   1.355  14.492 -1.2186 -0.6885 -0.9584
 7253TIP3   OH243173   4.666   4.037  11.435  0.6243  0.4308  0.2766
 7253TIP3    H143174   4.600   4.098  11.403 -0.8954 -1.7297 -0.9663
 7253TIP3    H243175   4.644   4.023  11.527 -2.3434 -2.0406 -0.6138
 7254TIP3   OH243176   1.363   6.675  15.382 -0.1750  0.3354  0.3014
 7254TIP3    H143177   1.427   6.604  15.385  1.3989  1.6535 -0.4747
 7254TIP3    H243178   1.286   6.636  15.338  0.7790 -0.7749 -0.4594
 7255TIP3   OH243179   4.739   4.975  16.734  0.0970 -0.4390 -0.1891
 7255TIP3    H143180   4.815   4.948  16.682 -0.1401 -0.0633 -0.7360
 7255TIP3    H243181   4.705   5.052  16.688 -0.1094 -0.0943  0.5280
 7256TIP3   OH243182   2.401   5.008  12.121 -0.6019  0.1567  0.4877
 7256TIP3    H143183   2.398   5.099  12.091  0.2845  0.3804  1.0512
 7256TIP3    H243184   2.376   4.956  12.044  2.1446  0.6775 -0.8756
 7257TIP3   OH243185   5.979   3.435   0.527  0.2327 -0.0180  0.3644
 7257TIP3    H143186   5.927   3.411   0.604 -0.1046 -2.8118 -0.6275
 7257TIP3    H243187   5.915   3.451   0.458  0.5917  1.1755  0.2676
 7258TIP3   OH243188   3.365   0.059   2.299  0.2370 -0.2565 -0.5484
 7258TIP3    H143189   3.370   0.150   2.329 -1.5042  0.3489 -1.9264
 7258TIP3    H243190   3.302   0.018   2.359 -2.2725  0.6285 -2.4128
 7259TIP3   OH243191   2.748   0.877   0.110  0.0723  0.7296 -0.4287
 7259TIP3    H143192   2.668   0.905   0.155  0.0023  0.2544 -0.2536
 7259TIP3    H243193   2.741   0.782   0.107  2.1458  0.3729  2.4450
 7260TIP3   OH243194   5.145   1.347  16.919 -0.3710  0.3316  0.2189
 7260TIP3    H143195   5.144   1.374  17.011 -2.4566 -1.7640  0.9291
 7260TIP3    H243196   5.068   1.389  16.881  0.1150  0.6574 -0.4296
 7261TIP3   OH243197   1.831   2.051   2.498  0.4478 -0.2577  0.3362
 7261TIP3    H143198   1.881   2.086   2.572  1.0017 -0.3085 -0.0088
 7261TIP3    H243199   1.790   1.972   2.533 -2.1662  1.5244  1.6139
 7262TIP3   OH243200   1.145   4.057  12.052 -0.1557  0.3660  0.1976
 7262TIP3    H143201   1.152   4.100  11.966 -1.1016  0.0256 -0.0649
 7262TIP3    H243202   1.236   4.044  12.080  0.2071  2.8805  0.4729
 7263TIP3   OH243203   5.506   6.330  12.906 -0.1802  0.1424 -0.0091
 7263TIP3    H143204   5.550   6.245  12.898 -0.5044  0.0225 -0.5726
 7263TIP3    H243205   5.538   6.381  12.832 -0.9566  0.0635 -0.4142
 7264TIP3   OH243206   5.408   2.007   0.030  0.1700  0.0122 -0.7513
 7264TIP3    H143207   5.364   1.970   0.107 -0.9291  1.4628 -0.6501
 7264TIP3    H243208   5.434   1.930  -0.021 -0.2432 -0.9445  0.4230
 7265TIP3   OH243209   4.169   2.923  13.252 -0.0580  0.2389 -0.3921
 7265TIP3    H143210   4.140   2.998  13.199  1.2978  1.0078 -0.0839
 7265TIP3    H243211   4.250   2.953  13.293 -0.0251 -1.0597  0.5350
 7266TIP3   OH243212   1.381   0.217  12.150 -0.2132  0.1295  0.1122
 7266TIP3    H143213   1.414   0.268  12.076 -1.2665  1.3990  0.4915
 7266TIP3    H243214   1.351   0.135  12.111  1.1082 -0.0599 -0.5616
 7267TIP3   OH243215   4.179   6.608  16.325 -0.2503  0.2674 -0.4892
 7267TIP3    H143216   4.147   6.650  16.405 -1.7883  0.2114 -1.0498
 7267TIP3    H243217   4.269   6.581  16.346 -0.5757  0.3901  1.1555
 7268TIP3   OH243218   5.230   0.015   6.798  0.2432 -0.5516  0.3598
 7268TIP3    H143219   5.199   0.045   6.712  1.7044  0.4865  0.1542
 7268TIP3    H243220   5.184   0.070   6.861  0.5495 -0.0376  0.1377
 7269TIP3   OH243221   4.091   6.432  17.254  0.3473 -0.2731  0.5499
 7269TIP3    H143222   4.028   6.366  17.282  0.3098 -1.4578 -2.0080
 7269TIP3    H243223   4.043   6.487  17.193  0.9261  0.9200  1.1351
 7270TIP3   OH243224   2.870   6.320  16.540  0.6386 -0.2892 -0.2568
 7270TIP3    H143225   2.905   6.252  16.597  0.5906 -0.6448 -0.6523
 7270TIP3    H243226   2.803   6.276  16.488 -0.1757  0.3077  0.2648
 7271TIP3   OH243227   4.377   4.284   4.410 -0.0621  0.0507 -0.1513
 7271TIP3    H143228   4.284   4.267   4.390 -0.4760  2.5944 -0.8127
 7271TIP3    H243229   4.403   4.211   4.466 -2.4197 -0.8213 -0.0470
 7272TIP3   OH243230   2.591   4.765   6.170  0.2070  0.0562 -0.5174
 7272TIP3    H143231   2.546   4.718   6.241  1.4373 -0.2855  0.0661
 7272TIP3    H243232   2.579   4.857   6.191 -1.8836  0.0503 -1.4509
 7273TIP3   OH243233   2.385   0.847   1.293  0.0022  0.6524 -0.0229
 7273TIP3    H143234   2.436   0.777   1.253  0.4617  0.9334  0.0591
 7273TIP3    H243235   2.332   0.803   1.359 -1.2121  0.1048 -1.3329
 7274TIP3   OH243236   2.294   6.160   4.198  0.2276  0.4699 -0.3494
 7274TIP3    H143237   2.328   6.112   4.274 -0.4765 -0.0419 -0.3508
 7274TIP3    H243238   2.204   6.130   4.189 -0.2763  1.8981 -0.2828
 7275TIP3   OH243239   5.332   1.716   2.764 -0.1117  0.3662 -0.4287
 7275TIP3    H143240   5.298   1.762   2.688  0.5820  3.1741  0.8284
 7275TIP3    H243241   5.264   1.726   2.830  0.0735 -0.4143 -0.1101
 7276TIP3   OH243242   2.921   3.913  13.730 -0.1216  0.1875  0.2685
 7276TIP3    H143243   2.834   3.921  13.768 -1.3501  1.7936 -2.5491
 7276TIP3    H243244   2.933   3.995  13.682  2.1602 -0.7761 -0.9475
 7277TIP3   OH243245   4.061   1.128   4.369  0.3530 -0.1733  0.0050
 7277TIP3    H143246   4.125   1.180   4.320  1.7245 -0.8162  1.0453
 7277TIP3    H243247   4.034   1.185   4.441  0.1973 -0.1245 -0.0903
 7278TIP3   OH243248   4.944   3.459   5.354  0.1696  0.1587 -0.1371
 7278TIP3    H143249   4.866   3.511   5.372 -0.0968  0.2489 -1.4236
 7278TIP3    H243250   4.941   3.386   5.416 -1.7860 -0.7054 -1.1627
 7279TIP3   OH243251   1.367   3.515   3.335 -0.1205 -0.1732 -0.5368
 7279TIP3    H143252   1.424   3.591   3.345  0.4976 -0.5781 -0.9261
 7279TIP3    H243253   1.278   3.551   3.331  0.1826  0.5415 -0.9066
 7280TIP3   OH243254   3.980   1.511  13.270 -0.2879 -0.3091 -0.4794
 7280TIP3    H143255   4.007   1.419  13.268  1.5852  0.1801  0.2628
 7280TIP3    H243256   3.911   1.514  13.336 -1.4038 -1.3959 -1.5241
 7281TIP3   OH243257   2.858   5.409  16.988  0.1920 -1.1474 -0.1665
 7281TIP3    H143258   2.853   5.456  16.904  0.0556 -0.4536  0.2205
 7281TIP3    H243259   2.898   5.325  16.966  0.8749 -0.6682 -0.8004
 7282TIP3   OH243260   5.565   0.178  11.849 -0.1550 -0.1763  0.6725
 7282TIP3    H143261   5.658   0.177  11.829  0.3101  0.3884  2.5715
 7282TIP3    H243262   5.557   0.127  11.930 -1.4546 -0.0294  0.6622
 7283TIP3   OH243263   6.364   1.754   0.107  0.1942 -0.1732  0.6386
 7283TIP3    H143264   6.280   1.717   0.079  0.5708  0.0360 -0.8698
 7283TIP3    H243265   6.343   1.842   0.137 -0.2112 -0.3504  0.8892
 7284TIP3   OH243266   4.629   6.205  16.484 -0.0417  0.1427 -0.0473
 7284TIP3    H143267   4.616   6.121  16.438 -2.1413 -0.2751  1.1602
 7284TIP3    H243268   4.595   6.189  16.572  0.6606  1.9433  0.5939
 7285TIP3   OH243269   0.220   5.853   2.544  0.1225 -0.0592  0.1309
 7285TIP3    H143270   0.224   5.921   2.611 -1.1895  0.9917 -0.8215
 7285TIP3    H243271   0.127   5.832   2.537  0.3015 -0.5357 -0.9848
 7286TIP3   OH243272   5.010   0.379   0.077  0.1056 -0.7610  0.1244
 7286TIP3    H143273   5.001   0.453   0.016  1.0697 -0.8659 -0.1589
 7286TIP3    H243274   4.997   0.418   0.164 -0.0613 -0.3875 -0.0635
 7287TIP3   OH243275   5.522   5.322   5.629 -0.0006  0.2321 -0.8079
 7287TIP3    H143276   5.604   5.299   5.586 -0.5132 -3.6066 -0.1111
 7287TIP3    H243277   5.543   5.323   5.722 -0.7869 -1.3863 -0.5795
 7288TIP3   OH243278   0.035   4.509   3.658  0.4218 -0.0850  0.2023
 7288TIP3    H143279  -0.060   4.518   3.664  0.4498 -0.5434  1.8993
 7288TIP3    H243280   0.067   4.596   3.635 -0.3019  0.5214  1.4175
 7289TIP3   OH243281   2.301   1.336  10.790  0.1126 -0.0158  0.2615
 7289TIP3    H143282   2.207   1.352  10.790  0.2724  1.1793  1.7038
 7289TIP3    H243283   2.337   1.407  10.737  0.2165 -0.4779 -0.2970
 7290TIP3   OH243284   0.137   4.655  13.652 -0.0475  0.4925  0.1591
 7290TIP3    H143285   0.165   4.740  13.684 -2.1010  1.5904 -0.7535
 7290TIP3    H243286   0.216   4.618  13.611  0.6445  2.4067 -0.3555
 7291TIP3   OH243287   6.227   3.906   3.989 -0.5454 -0.4455 -0.2827
 7291TIP3    H143288   6.149   3.958   4.007  1.1696  1.7266  1.5316
 7291TIP3    H243289   6.259   3.938   3.904  0.4077  1.5139  0.7418
 7292TIP3   OH243290   3.326   3.872  16.530  0.1638  0.1303 -0.4907
 7292TIP3    H143291   3.415   3.837  16.539  0.3428  0.5634 -0.5531
 7292TIP3    H243292   3.317   3.892  16.437 -1.2515 -3.1791 -1.2050
 7293TIP3   OH243293   3.420   2.135  13.025  0.1335 -0.4287 -0.2814
 7293TIP3    H143294   3.452   2.193  12.955  1.0597  0.7449  1.0669
 7293TIP3    H243295   3.351   2.084  12.983 -0.6456  1.5502 -1.5952
 7294TIP3   OH243296   0.341   0.653   4.480  0.4559 -0.3509 -0.1406
 7294TIP3    H143297   0.358   0.684   4.391  1.4138  2.8373  1.0054
 7294TIP3    H243298   0.423   0.611   4.506  1.0496  0.8612  0.0106
 7295TIP3   OH243299   3.373   4.204   2.223 -0.0870 -0.1043 -0.3722
 7295TIP3    H143300   3.460   4.240   2.242 -0.0467  1.2976 -2.8476
 7295TIP3    H243301   3.321   4.279   2.196 -1.7474 -1.1145 -0.1471
 7296TIP3   OH243302   6.406   4.200  11.321  0.0230 -0.6022  0.1083
 7296TIP3    H143303   6.384   4.107  11.324 -0.2327 -0.6628 -2.0145
 7296TIP3    H243304   6.502   4.202  11.329  0.1979 -1.2120 -1.4542
 7297TIP3   OH243305   5.199   5.882   4.112  0.6590 -0.0657 -0.2261
 7297TIP3    H143306   5.155   5.874   4.197 -0.3991  1.0180 -0.6372
 7297TIP3    H243307   5.131   5.859   4.048  1.0080  0.5609 -0.8346
 7298TIP3   OH243308   1.913   3.990  16.085 -0.1016 -0.2998 -0.1095
 7298TIP3    H143309   1.974   4.063  16.081 -1.0590  0.4933 -0.8434
 7298TIP3    H243310   1.939   3.934  16.012 -0.2581  0.0500 -0.4398
 7299TIP3   OH243311   3.800   1.250  14.822 -0.0956 -0.3269  0.6844
 7299TIP3    H143312   3.832   1.325  14.773  0.5936 -0.2970  1.1728
 7299TIP3    H243313   3.743   1.204  14.760  1.5474 -0.8599 -0.4905
 7300TIP3   OH243314   4.597   2.650   4.879  0.0717 -0.4654  0.0572
 7300TIP3    H143315   4.532   2.614   4.820 -0.0794  0.7435 -0.5470
 7300TIP3    H243316   4.674   2.595   4.867 -0.7986 -1.8830  0.7506
 7301TIP3   OH243317   4.501   3.147  11.899 -0.0336  0.4102 -0.5681
 7301TIP3    H143318   4.558   3.188  11.964 -0.9640 -0.1965  0.6682
 7301TIP3    H243319   4.449   3.220  11.863  1.0066  0.8580 -1.2010
 7302TIP3   OH243320   3.904   2.827  11.933  0.1114 -0.4488  0.2896
 7302TIP3    H143321   3.870   2.914  11.954 -0.7482 -0.5862 -0.4679
 7302TIP3    H243322   3.955   2.840  11.853 -1.1140 -0.8636 -0.5725
 7303TIP3   OH243323   1.738   1.442  16.645 -0.1361 -0.0106  0.0366
 7303TIP3    H143324   1.695   1.357  16.655 -0.3488 -0.1436 -1.6156
 7303TIP3    H243325   1.807   1.426  16.580  0.3176  0.9177  0.2753
 7304TIP3   OH243326   0.075   3.088  13.289  0.2300 -0.0897  0.3072
 7304TIP3    H143327   0.058   3.088  13.195 -0.0179 -0.2431  0.3518
 7304TIP3    H243328   0.075   2.996  13.314  1.1156 -0.1036  0.3130
 7305TIP3   OH243329   5.950   5.981  15.001  0.1708 -0.6401  0.1568
 7305TIP3    H143330   5.884   5.979  15.070  0.5307  1.2175  0.6009
 7305TIP3    H243331   6.001   5.901  15.014 -2.6974 -2.8520 -0.9834
 7306TIP3   OH243332   3.698   6.620  11.338 -0.3727  0.3054 -0.3311
 7306TIP3    H143333   3.690   6.680  11.264  0.4750 -0.9178 -1.4712
 7306TIP3    H243334   3.791   6.622  11.360 -0.2926 -0.7407 -0.5323
 7307TIP3   OH243335   0.461   0.268   0.813 -0.5389 -0.3740  0.0798
 7307TIP3    H143336   0.442   0.357   0.842 -0.7574 -0.4804  0.2691
 7307TIP3    H243337   0.521   0.234   0.879 -1.0045 -0.6026  0.3922
 7308TIP3   OH243338   1.573   5.616  14.114  0.1423  0.3846 -0.3040
 7308TIP3    H143339   1.635   5.633  14.184  3.0718  2.0549 -3.0235
 7308TIP3    H243340   1.546   5.703  14.084 -1.8593 -0.2917 -0.6473
 7309TIP3   OH243341   4.607   2.218  11.715 -0.0786  0.0667  0.1621
 7309TIP3    H143342   4.605   2.128  11.682  2.2743 -0.1917  0.5900
 7309TIP3    H243343   4.618   2.272  11.637  0.4968 -0.1763  0.0707
 7310TIP3   OH243344   1.669   1.576  16.179  0.1955  0.0421  0.3477
 7310TIP3    H143345   1.660   1.671  16.182  0.2577  0.0633 -0.1641
 7310TIP3    H243346   1.719   1.559  16.099  0.0632 -0.4290  0.3657
 7311TIP3   OH243347   5.208   6.413   1.255  0.1803 -0.2686  0.3181
 7311TIP3    H143348   5.222   6.319   1.268  0.5142 -0.2009  0.4456
 7311TIP3    H243349   5.285   6.443   1.207  0.1818 -0.0163  0.4770
 7312TIP3   OH243350   2.281   5.736   3.900  0.3130  0.3026 -0.4737
 7312TIP3    H143351   2.200   5.762   3.857 -0.2193 -1.2439 -0.4759
 7312TIP3    H243352   2.345   5.729   3.829 -0.1811 -0.7913 -0.8311
 7313TIP3   OH243353   2.243   3.902   4.741  0.3078  0.3682  0.2389
 7313TIP3    H143354   2.334   3.901   4.770  0.4411 -0.7672 -0.1669
 7313TIP3    H243355   2.225   3.812   4.714 -1.0140  0.5103  0.5409
 7314TIP3   OH243356   5.634   4.074   4.853 -0.4011  0.2740 -0.7032
 7314TIP3    H143357   5.697   4.144   4.871 -0.1929  0.6107 -2.5341
 7314TIP3    H243358   5.676   4.021   4.785 -2.3756  0.9843 -2.5877
 7315TIP3   OH243359   2.145   1.641   0.445  0.3432  0.0341  0.2762
 7315TIP3    H143360   2.131   1.594   0.362  0.1495 -0.6251  0.6728
 7315TIP3    H243361   2.058   1.647   0.484 -0.1281  3.1321 -0.9930
 7316TIP3   OH243362   1.123   5.288  11.408  0.1452 -0.0791 -0.3665
 7316TIP3    H143363   1.071   5.208  11.406  0.0787 -0.0330 -2.0574
 7316TIP3    H243364   1.214   5.257  11.414  0.0593 -0.2492  0.0378
 7317TIP3   OH243365   3.733   3.155  10.799 -0.3565  0.4290  0.2813
 7317TIP3    H143366   3.756   3.072  10.841  0.7212  0.5930  0.0507
 7317TIP3    H243367   3.638   3.152  10.789 -0.3276 -0.7716  0.2897
 7318TIP3   OH243368   1.700   6.706  16.456  0.3268 -0.0889 -0.7844
 7318TIP3    H143369   1.630   6.641  16.460  0.9081 -0.6797  0.6195
 7318TIP3    H243370   1.751   6.682  16.379  1.6080 -2.5211  0.6960
 7319TIP3   OH243371   1.733   6.241  13.149 -0.4443  0.1976  0.5181
 7319TIP3    H143372   1.683   6.315  13.116 -1.2006  0.1032  1.4046
 7319TIP3    H243373   1.689   6.217  13.231  0.3171 -0.6703  0.6907
 7320TIP3   OH243374   3.089   1.304   3.638 -0.2215 -0.1300 -0.3846
 7320TIP3    H143375   3.078   1.340   3.550 -1.0360 -1.2161 -0.7398
 7320TIP3    H243376   3.162   1.354   3.675  1.7849 -1.2708 -2.5495
 7321TIP3   OH243377   5.975   5.399  14.172  0.3331 -0.4344 -0.1496
 7321TIP3    H143378   5.946   5.458  14.241  0.1975 -0.6684 -0.0045
 7321TIP3    H243379   6.068   5.417  14.162  0.4313 -0.6438  0.3410
 7322TIP3   OH243380   2.370   4.371   4.504  0.2552  0.8839 -0.2576
 7322TIP3    H143381   2.429   4.324   4.445  0.4899  1.0472 -0.1569
 7322TIP3    H243382   2.393   4.337   4.591 -0.6779  0.0126 -0.3350
 7323TIP3   OH243383   5.618   3.552   5.818 -0.2274 -0.1698 -0.3245
 7323TIP3    H143384   5.638   3.518   5.906  0.5909 -0.0395 -0.4503
 7323TIP3    H243385   5.646   3.644   5.821  0.3945 -0.3275 -0.9000
 7324TIP3   OH243386   3.378   2.576   5.361 -0.7137 -1.0360  0.1153
 7324TIP3    H143387   3.387   2.634   5.436  2.0392 -0.8289 -0.2761
 7324TIP3    H243388   3.419   2.494   5.389  2.1898 -0.3242 -1.7151
 7325TIP3   OH243389   6.039   6.478  13.745 -0.8960  0.4766 -0.6543
 7325TIP3    H143390   5.993   6.395  13.751  1.9093 -1.2085 -0.7611
 7325TIP3    H243391   6.036   6.513  13.834 -0.1036 -0.9291 -0.0510
 7326TIP3   OH243392   3.585   2.477   2.754  0.1321  0.0956  0.1676
 7326TIP3    H143393   3.642   2.544   2.793 -0.2223  1.2000 -1.1336
 7326TIP3    H243394   3.547   2.520   2.677  1.1737 -2.1413 -1.6962
 7327TIP3   OH243395   2.336   4.400   1.513  0.2286  0.4334 -0.1450
 7327TIP3    H143396   2.256   4.452   1.512 -0.0023  0.0874 -1.1582
 7327TIP3    H243397   2.309   4.314   1.482  0.9565  0.2553 -0.3080
 7328TIP3   OH243398   0.723   2.630  16.150 -0.1140  0.1770  0.2951
 7328TIP3    H143399   0.708   2.665  16.062  1.7138  0.4173  0.0390
 7328TIP3    H243400   0.660   2.558  16.158  0.5229 -0.6874 -1.7266
 7329TIP3   OH243401   3.831   5.415  14.380  0.0333 -0.2664 -0.5149
 7329TIP3    H143402   3.829   5.365  14.462 -3.4404 -0.6468 -0.6809
 7329TIP3    H243403   3.836   5.348  14.312 -1.1613 -0.2302 -0.6575
 7330TIP3   OH243404   3.859   0.865  14.782 -0.0480 -0.2265  0.8522
 7330TIP3    H143405   3.853   0.769  14.788  1.4487 -0.5290 -1.4095
 7330TIP3    H243406   3.792   0.889  14.718 -0.5391  0.2901  1.5431
 7331TIP3   OH243407   5.765   2.504  11.004 -0.5968 -0.0090 -0.2032
 7331TIP3    H143408   5.846   2.458  11.026 -0.8168 -0.2469  0.1197
 7331TIP3    H243409   5.749   2.482  10.912 -0.2522  0.1054 -0.2893
 7332TIP3   OH243410   1.102   1.715   0.916 -0.2355 -0.1778  0.2544
 7332TIP3    H143411   1.082   1.705   1.009  1.6619  0.3936  0.7609
 7332TIP3    H243412   1.150   1.636   0.892  1.2619  0.6605  0.3675
 7333TIP3   OH243413   6.579   1.052   2.725  0.2461  0.1570 -0.3564
 7333TIP3    H143414   6.670   1.030   2.744 -0.0353  0.4831  1.4885
 7333TIP3    H243415   6.536   0.967   2.712  0.6268 -0.0377 -0.3559
 7334TIP3   OH243416   6.727   2.887  17.285 -0.4582 -1.0766  0.0586
 7334TIP3    H143417   6.689   2.966  17.326 -0.9528 -0.5556 -1.3590
 7334TIP3    H243418   6.767   2.840  17.358 -0.3775  0.3602  0.9907
 7335TIP3   OH243419   1.823   1.860  15.033 -0.4194 -0.2805  0.4660
 7335TIP3    H143420   1.824   1.925  14.963  2.0205  0.6674  1.2718
 7335TIP3    H243421   1.869   1.785  14.996  2.3958  0.8232  1.4311
 7336TIP3   OH243422   1.624   3.198   4.456 -0.1327  0.1692 -0.0706
 7336TIP3    H143423   1.617   3.118   4.509  1.1679 -0.7070 -1.1462
 7336TIP3    H243424   1.592   3.268   4.513 -0.3004 -0.9588  1.2747
 7337TIP3   OH243425   6.186   3.879   3.506 -0.0391 -0.1828  0.4023
 7337TIP3    H143426   6.146   3.921   3.430 -0.5924  1.7818  1.7086
 7337TIP3    H243427   6.135   3.799   3.518 -1.2294  0.4645 -0.1474
 7338TIP3   OH243428   2.343   4.088  11.291 -0.1306  0.1531 -0.5409
 7338TIP3    H143429   2.334   3.993  11.301  1.1383 -0.0451 -1.1406
 7338TIP3    H243430   2.257   4.117  11.260 -1.0167 -0.5652  1.0877
 7339TIP3   OH243431   0.375   3.249   1.319  0.1935  0.6538 -0.0117
 7339TIP3    H143432   0.373   3.195   1.240  0.1546  0.4658  0.1174
 7339TIP3    H243433   0.465   3.280   1.325 -0.5016  3.4011 -1.9704
 7340TIP3   OH243434   4.735   1.060   4.823  0.3015 -0.3207 -0.0938
 7340TIP3    H143435   4.692   0.990   4.872  0.7202 -0.5949 -0.1166
 7340TIP3    H243436   4.828   1.051   4.844  0.4069 -0.0356 -0.4271
 7341TIP3   OH243437   5.685   5.316   3.092 -0.2087 -0.0626 -0.0543
 7341TIP3    H143438   5.711   5.233   3.052 -0.1059  1.1106 -2.5889
 7341TIP3    H243439   5.590   5.321   3.077 -0.0515  0.7267 -0.8774
 7342TIP3   OH243440   4.107   0.976  13.101 -0.0165 -0.2398  0.3018
 7342TIP3    H143441   4.196   0.943  13.088  1.0407  2.0496  1.2901
 7342TIP3    H243442   4.116   1.050  13.161 -2.6903 -0.3453  1.0002
 7343TIP3   OH243443   5.170   5.876   4.618 -0.0630 -0.1320  0.0415
 7343TIP3    H143444   5.224   5.941   4.574 -0.3039  0.7155  0.9765
 7343TIP3    H243445   5.177   5.798   4.562  1.0608  0.3607 -0.5484
 7344TIP3   OH243446   6.351   1.908   3.561  0.2054  0.0275  0.3737
 7344TIP3    H143447   6.352   1.998   3.594 -0.0382 -0.3807  1.5543
 7344TIP3    H243448   6.302   1.859   3.627 -0.2743 -0.8537 -0.5982
 7345TIP3   OH243449   3.563   0.099   3.148  0.6734  0.1264  0.7263
 7345TIP3    H143450   3.496   0.040   3.115  0.5168  1.0584 -0.7018
 7345TIP3    H243451   3.548   0.101   3.243 -0.3875 -0.7811  0.6009
 7346TIP3   OH243452   5.761   0.105  12.934 -0.1078  0.0847  0.2849
 7346TIP3    H143453   5.788   0.121  13.024 -0.2479  3.1675 -0.1411
 7346TIP3    H243454   5.736   0.191  12.900 -1.4688 -1.1958 -2.2616
 7347TIP3   OH243455   3.662   5.504  15.229  0.5105 -0.0452 -0.4335
 7347TIP3    H143456   3.713   5.505  15.310  0.4513  1.4251 -0.3897
 7347TIP3    H243457   3.608   5.425  15.236 -1.9232  1.6465  2.5551
 7348TIP3   OH243458   2.545   2.821  16.555  0.3945  0.4369  0.3450
 7348TIP3    H143459   2.565   2.760  16.626 -0.9697  1.5355  1.7296
 7348TIP3    H243460   2.450   2.816  16.544  0.5033  0.7857 -0.9716
 7349TIP3   OH243461   0.247   1.227   3.021 -0.9059  0.1900 -0.1222
 7349TIP3    H143462   0.322   1.241   3.079 -0.1339 -0.3431 -0.9718
 7349TIP3    H243463   0.227   1.134   3.031 -0.9977  0.1748 -0.4440
 7350TIP3   OH243464   5.146   5.064  16.791 -0.7023 -0.1245  0.3459
 7350TIP3    H143465   5.237   5.076  16.819  0.4853 -1.5564 -2.4764
 7350TIP3    H243466   5.145   5.093  16.700 -2.5993 -1.8186 -0.2548
 7351TIP3   OH243467   5.187   0.928  15.774 -0.1197 -0.3016 -0.2871
 7351TIP3    H143468   5.239   1.007  15.783 -0.4402 -0.0595 -0.5535
 7351TIP3    H243469   5.113   0.942  15.833 -1.1950  0.4390 -1.7694
 7352TIP3   OH243470   2.538   2.396   3.390 -0.3139 -0.3930 -0.0291
 7352TIP3    H143471   2.529   2.360   3.302  2.0768  0.5078 -0.7237
 7352TIP3    H243472   2.553   2.490   3.376  0.9123 -0.3636  1.2554
 7353TIP3   OH243473   5.847   1.895  12.446  0.0168  0.2901  0.1496
 7353TIP3    H143474   5.875   1.928  12.361  2.7232 -0.7319  0.5681
 7353TIP3    H243475   5.898   1.944  12.510 -2.4502  1.5267  1.3216
 7354TIP3   OH243476   2.478   0.856   3.590 -0.7432  0.3128  0.4069
 7354TIP3    H143477   2.425   0.866   3.669 -0.7475 -0.9114  0.5840
 7354TIP3    H243478   2.503   0.764   3.590 -0.1309  0.4637 -0.6408
 7355TIP3   OH243479   4.579   6.528  12.027  0.0308  0.5624 -0.1054
 7355TIP3    H143480   4.498   6.576  12.047 -0.0795  0.1680  0.4043
 7355TIP3    H243481   4.633   6.540  12.105 -0.3362 -0.8490  0.4006
 7356TIP3   OH243482   1.324   3.882   3.374 -0.0921  0.1313 -0.5306
 7356TIP3    H143483   1.354   3.871   3.284  0.7574 -1.2741 -0.1039
 7356TIP3    H243484   1.228   3.883   3.368 -0.0384  0.9169 -1.5109
 7357TIP3   OH243485   2.257   5.242   0.646 -0.1581  0.0109 -0.0611
 7357TIP3    H143486   2.181   5.277   0.693 -0.9306 -1.7772  0.0759
 7357TIP3    H243487   2.333   5.280   0.691 -0.9310  0.5039  0.8494
 7358TIP3   OH243488   0.415   0.054   5.987  0.1170 -0.2264 -0.1508
 7358TIP3    H143489   0.446   0.050   5.897  3.3751  4.1239  0.4582
 7358TIP3    H243490   0.435  -0.032   6.023  1.9816 -0.9846 -2.6843
 7359TIP3   OH243491   2.128   2.928  13.547  0.4435  0.1629 -0.4584
 7359TIP3    H143492   2.156   2.839  13.525 -0.3412 -0.0297 -0.7277
 7359TIP3    H243493   2.208   2.974  13.571  0.7648 -0.8152  0.3687
 7360TIP3   OH243494   5.307   6.563   6.090 -0.4114 -0.1507  0.0083
 7360TIP3    H143495   5.384   6.608   6.124  0.4314 -0.7952 -0.9774
 7360TIP3    H243496   5.339   6.516   6.013 -1.4711 -1.6881  0.4704
 7361TIP3   OH243497   5.909   6.122   2.232 -0.2461 -0.1069  0.1442
 7361TIP3    H143498   5.879   6.209   2.207  1.5633  0.4382 -0.3103
 7361TIP3    H243499   5.945   6.134   2.321 -0.8005 -0.5978  0.4414
 7362TIP3   OH243500   2.004   2.744   1.594  0.6827  0.1288  0.1163
 7362TIP3    H143501   2.044   2.704   1.517  1.4999 -1.2368  1.2066
 7362TIP3    H243502   2.077   2.784   1.641  1.2038 -3.4647  2.7804
 7363TIP3   OH243503   5.769   4.830  13.997  0.2075  0.6975 -0.2461
 7363TIP3    H143504   5.753   4.905  13.940  0.1478  0.9911  0.1484
 7363TIP3    H243505   5.767   4.755  13.939  0.5100  1.0255 -0.6842
 7364TIP3   OH243506   3.130   5.109   2.318  0.6822 -0.4261  0.3780
 7364TIP3    H143507   3.041   5.134   2.290  0.1844 -0.8655  1.5082
 7364TIP3    H243508   3.188   5.160   2.261 -0.2878 -0.4516 -0.6688
 7365TIP3   OH243509   1.462   3.455  12.852  0.1936  0.1474 -0.8588
 7365TIP3    H143510   1.407   3.523  12.891  0.8063  1.0738 -1.5803
 7365TIP3    H243511   1.454   3.467  12.758  2.1025  0.7467 -1.0030
 7366TIP3   OH243512   6.750   4.863   1.195  0.2154 -0.1653  0.1323
 7366TIP3    H143513   6.709   4.949   1.211 -0.0128 -0.2811  0.1753
 7366TIP3    H243514   6.822   4.859   1.257  1.7110  0.9927 -1.4369
 7367TIP3   OH243515   3.064   6.620  17.137  0.0437  0.4213 -0.3616
 7367TIP3    H143516   3.087   6.712  17.147 -2.0606  1.1132 -1.2442
 7367TIP3    H243517   3.130   6.585  17.077  1.3234  1.1144  0.5960
 7368TIP3   OH243518   3.514   6.562   4.678 -0.5034  0.5528 -0.2561
 7368TIP3    H143519   3.439   6.598   4.726 -0.8302  1.0006 -1.0899
 7368TIP3    H243520   3.529   6.623   4.606  1.9913  1.6174  1.0404
 7369TIP3   OH243521   6.693   5.113  15.191  0.3158 -0.1882 -1.2478
 7369TIP3    H143522   6.652   5.062  15.261 -1.6958 -0.4360 -2.5428
 7369TIP3    H243523   6.724   5.047  15.129 -1.0773  0.0845 -2.2683
 7370TIP3   OH243524   5.166   6.550  12.205 -0.3071 -0.2515 -0.5921
 7370TIP3    H143525   5.167   6.532  12.111 -0.4901 -0.9635 -0.4694
 7370TIP3    H243526   5.230   6.620  12.218 -0.0931 -0.3324 -1.2131
 7371TIP3   OH243527   0.463   1.133  13.932  0.1704  0.3325  0.0682
 7371TIP3    H143528   0.519   1.209  13.950 -0.7487  1.6057 -2.0640
 7371TIP3    H243529   0.398   1.133  14.003  1.2053  0.4585  1.0451
 7372TIP3   OH243530   5.659   1.266  13.097 -0.1738  0.0455  0.4982
 7372TIP3    H143531   5.685   1.240  13.009 -2.3758  0.0815 -0.2475
 7372TIP3    H243532   5.680   1.360  13.101 -0.2660  0.0984 -0.0903
 7373TIP3   OH243533   1.375   3.353   1.991  0.6925  0.1067  0.4586
 7373TIP3    H143534   1.381   3.271   2.039  1.6516 -0.1186 -0.0275
 7373TIP3    H243535   1.376   3.327   1.899  3.4854  0.7649  0.2270
 7374TIP3   OH243536   1.447   4.077   2.830 -0.0310  0.3687  0.3390
 7374TIP3    H143537   1.536   4.106   2.814  0.5503 -1.7531 -0.6250
 7374TIP3    H243538   1.399   4.100   2.751  0.4965 -1.4052 -0.5441
 7375TIP3   OH243539   3.361   1.135  10.830 -0.0327 -0.1742  0.5261
 7375TIP3    H143540   3.437   1.077  10.819  0.2067  0.2704 -0.2487
 7375TIP3    H243541   3.349   1.174  10.744 -1.5582 -0.7345  0.4524
 7376TIP3   OH243542   5.594   3.795   3.739  0.0045 -0.1762  0.2217
 7376TIP3    H143543   5.524   3.753   3.689  0.1277  0.0226 -0.1161
 7376TIP3    H243544   5.591   3.751   3.825 -0.7918  0.1049  0.3476
 7377TIP3   OH243545   4.447   4.957   0.691  0.3604  0.3714  0.1083
 7377TIP3    H143546   4.408   4.924   0.773  1.0374  1.5365  0.9221
 7377TIP3    H243547   4.536   4.923   0.692  0.2522  0.0523 -0.3725
 7378TIP3   OH243548   0.102   4.104   2.513  0.6487  0.4959 -0.2141
 7378TIP3    H143549   0.108   4.187   2.561  0.0558  0.2526  0.3015
 7378TIP3    H243550   0.036   4.121   2.445  3.2071  1.6106 -2.6135
 7379TIP3   OH243551   6.020   6.008   2.022 -0.1609  0.0976  0.1732
 7379TIP3    H143552   6.086   5.946   2.054 -0.5045  0.1329  0.9660
 7379TIP3    H243553   5.986   6.050   2.101 -0.9691  0.2506 -0.2445
 7380TIP3   OH243554   0.261   0.977   2.500  0.6614 -0.0933  0.2584
 7380TIP3    H143555   0.236   1.031   2.575 -3.6633 -1.8078  0.3075
 7380TIP3    H243556   0.259   0.887   2.532 -0.0452 -0.7937 -1.5963
 7381TIP3   OH243557   4.054   6.025   5.680  0.3588  0.2158 -0.1147
 7381TIP3    H143558   4.009   6.045   5.598 -0.4752 -0.4212  0.1778
 7381TIP3    H243559   3.987   5.987   5.736  1.1502 -0.2867  0.5145
 7382TIP3   OH243560   0.169   3.427   2.026 -0.6667 -0.4005  0.2017
 7382TIP3    H143561   0.255   3.407   2.061 -0.4245  0.1431 -0.0699
 7382TIP3    H243562   0.139   3.502   2.078 -0.0697  0.7758 -1.0779
 7383TIP3   OH243563   1.960   6.704  12.497  0.3120  0.1836 -0.0363
 7383TIP3    H143564   1.893   6.635  12.489  0.8338 -0.4915  1.1636
 7383TIP3    H243565   2.002   6.707  12.411 -0.3569 -0.3261 -0.3906
 7384TIP3   OH243566   6.094   3.760   0.890 -0.4862 -0.0487 -0.4949
 7384TIP3    H143567   6.050   3.676   0.904  0.0704 -0.1262  0.9853
 7384TIP3    H243568   6.074   3.811   0.969 -0.7700  1.2035 -1.3426
 7385TIP3   OH243569   2.904   1.721  15.588  0.3666  0.0608  0.5304
 7385TIP3    H143570   2.851   1.722  15.668 -1.2864 -1.3755 -0.4957
 7385TIP3    H243571   2.901   1.812  15.557 -0.7669  0.1938  0.9717
 7386TIP3   OH243572   5.555   3.997  11.850  0.2219  0.0338 -0.3091
 7386TIP3    H143573   5.496   3.943  11.903 -1.0725  1.7169  0.0596
 7386TIP3    H243574   5.642   3.978  11.885 -0.2806 -1.1660  0.3631
 7387TIP3   OH243575   2.547   1.390  10.340  0.6066  0.0744 -0.3688
 7387TIP3    H143576   2.475   1.328  10.352 -1.6101  2.4507 -0.5532
 7387TIP3    H243577   2.579   1.407  10.429  1.3535 -1.3651 -0.3304
 7388TIP3   OH243578   1.201   5.032   2.105  0.5437 -0.0804  0.3674
 7388TIP3    H143579   1.171   5.120   2.081  0.8518  0.5399  2.1180
 7388TIP3    H243580   1.295   5.042   2.121  0.7255 -0.9018 -0.1686
 7389TIP3   OH243581   3.573   5.148   3.098 -0.2419 -0.3537 -0.6903
 7389TIP3    H143582   3.624   5.115   3.024  0.2401 -0.0272 -0.5090
 7389TIP3    H243583   3.518   5.074   3.124  3.2629 -2.3217  1.9540
 7390TIP3   OH243584   0.339   2.423   2.059 -0.2107  0.2717  0.1085
 7390TIP3    H143585   0.315   2.365   2.131  0.9614  0.1667  0.4218
 7390TIP3    H243586   0.263   2.480   2.048 -0.8120 -0.3932  0.7293
 7391TIP3   OH243587   1.574   4.213  13.958 -0.1807 -0.5028  0.1250
 7391TIP3    H143588   1.662   4.243  13.933 -0.4325  0.8362  0.7961
 7391TIP3    H243589   1.578   4.201  14.052 -0.8898  0.1936  0.2566
 7392TIP3   OH243590   4.461   1.922  14.795  0.0546  0.6566  0.5262
 7392TIP3    H143591   4.424   1.840  14.830  0.3319 -0.8407 -2.3625
 7392TIP3    H243592   4.555   1.908  14.796  0.0550  0.1416 -1.5128
 7393TIP3   OH243593   4.017   5.751  11.325 -0.1457 -0.5675  0.1011
 7393TIP3    H143594   3.999   5.659  11.342  0.3668 -0.4046  1.7591
 7393TIP3    H243595   3.974   5.770  11.242 -0.2852 -2.2832 -0.2436
 7394TIP3   OH243596   5.649   4.178  16.985 -0.8384 -0.4467 -0.2246
 7394TIP3    H143597   5.738   4.150  16.962  0.7824  0.6235  3.8315
 7394TIP3    H243598   5.614   4.106  17.037 -2.5212 -0.9236 -1.9187
 7395TIP3   OH243599   4.762   4.599  15.448  0.5501 -0.0536 -0.0356
 7395TIP3    H143600   4.808   4.644  15.377 -0.2251 -1.6455 -1.6425
 7395TIP3    H243601   4.815   4.521  15.465 -0.0183 -0.4134  0.1168
 7396TIP3   OH243602   0.514   1.714  13.818  0.5568 -0.0049  0.1264
 7396TIP3    H143603   0.559   1.797  13.832  1.5617 -0.1052 -2.1393
 7396TIP3    H243604   0.447   1.733  13.753 -0.8908 -0.4948  1.3971
 7397TIP3   OH243605   3.630   4.442  16.508 -0.1033  0.4208  0.4786
 7397TIP3    H143606   3.590   4.408  16.588  0.5015  0.4097  0.7830
 7397TIP3    H243607   3.712   4.394  16.500  0.9997  2.0891  1.1612
 7398TIP3   OH243608   4.855   0.648   2.574  0.1491 -0.0488 -0.0234
 7398TIP3    H143609   4.764   0.632   2.553  0.2362  0.3165 -0.7001
 7398TIP3    H243610   4.856   0.736   2.613  0.2087 -0.0635  0.0095
 7399TIP3   OH243611   6.653   1.180   1.274 -0.1380  0.7042 -0.3246
 7399TIP3    H143612   6.663   1.204   1.366 -1.6125  2.6147 -0.5928
 7399TIP3    H243613   6.741   1.154   1.246  0.3733  0.2920  1.5527
 7400TIP3   OH243614   6.740   5.034  16.237 -0.0647 -0.4077 -0.1097
 7400TIP3    H143615   6.762   4.943  16.218 -3.2187 -1.2210 -0.4860
 7400TIP3    H243616   6.741   5.077  16.152  0.8289 -0.2242 -0.0116
 7401TIP3   OH243617   1.359   3.558  16.979  0.4680  0.1760  0.5844
 7401TIP3    H143618   1.266   3.549  17.002  0.8326 -1.0837  1.6828
 7401TIP3    H243619   1.384   3.644  17.012 -0.2933  0.5122  0.3060
 7402TIP3   OH243620   4.828   0.329  16.644 -0.0465  0.2387  0.4544
 7402TIP3    H143621   4.856   0.321  16.736 -1.7840  0.0772  0.9991
 7402TIP3    H243622   4.841   0.421  16.623 -2.3623  0.9446  1.8354
 7403TIP3   OH243623   0.637   1.757   4.313  0.6174  0.0984  0.7931
 7403TIP3    H143624   0.632   1.678   4.367 -0.2313  0.6057  1.4860
 7403TIP3    H243625   0.661   1.725   4.226  1.9038 -0.7427  1.4356
 7404TIP3   OH243626   0.783   1.777  11.893  0.0800 -0.0825  0.0818
 7404TIP3    H143627   0.765   1.800  11.985  1.5626  0.2956  0.3045
 7404TIP3    H243628   0.747   1.850  11.843  0.0562  0.1446  0.4242
 7405TIP3   OH243629   3.181   1.881   5.463 -0.0884  0.7694  0.0813
 7405TIP3    H143630   3.151   1.884   5.372 -0.8570  1.9482  0.3466
 7405TIP3    H243631   3.271   1.914   5.460  0.3789 -0.4942 -0.4079
 7406TIP3   OH243632   6.194   2.698  15.848  0.0896 -0.0843  0.0162
 7406TIP3    H143633   6.232   2.768  15.901 -0.1532  1.4052 -1.6651
 7406TIP3    H243634   6.269   2.651  15.813  0.3731  0.8962 -0.7748
 7407TIP3   OH243635   0.966   2.131   4.362 -0.2272  0.2882  0.7479
 7407TIP3    H143636   1.061   2.123   4.371 -0.2724  0.3789  1.3260
 7407TIP3    H243637   0.943   2.209   4.412 -0.5624  0.4922  0.2911
 7408TIP3   OH243638   4.011   0.069  12.267  0.2576  0.6153 -0.2448
 7408TIP3    H143639   4.014  -0.004  12.206  1.3304  0.4805 -0.0623
 7408TIP3    H243640   4.029   0.029  12.353  2.1210  1.2138 -0.2992
 7409TIP3   OH243641   4.972   1.482   2.650  0.3591  0.7185 -0.1261
 7409TIP3    H143642   4.940   1.393   2.666 -2.4590  1.5012 -0.7363
 7409TIP3    H243643   4.919   1.513   2.576  1.6815  2.7212 -0.3170
 7410TIP3   OH243644   5.509   5.757   6.337 -0.3500  0.9116  0.0466
 7410TIP3    H143645   5.427   5.722   6.373 -0.4480  1.5693  0.4722
 7410TIP3    H243646   5.575   5.692   6.360 -0.4493  1.2183  1.2519
 7411TIP3   OH243647   2.657   4.083   1.310  0.3565  0.4453 -0.4132
 7411TIP3    H143648   2.737   4.087   1.258  0.4381 -1.6351 -0.5473
 7411TIP3    H243649   2.685   4.049   1.395 -0.4028 -0.6613 -0.5831
 7412TIP3   OH243650   4.146   1.214  12.321 -0.1917  0.1459  0.2153
 7412TIP3    H143651   4.120   1.131  12.360 -2.7087  0.5214 -0.5200
 7412TIP3    H243652   4.204   1.254  12.387  0.9516 -2.0566  0.6413
 7413TIP3   OH243653   1.080   2.063   1.874 -0.3517  0.4186 -0.1239
 7413TIP3    H143654   1.115   2.151   1.885  0.1902  0.0364  1.4682
 7413TIP3    H243655   1.074   2.028   1.963  0.3489 -1.4852 -0.7712
 7414TIP3   OH243656   5.960   2.328   4.536 -0.0519  0.1046  0.2968
 7414TIP3    H143657   5.948   2.305   4.444 -3.3269  2.4099 -0.0292
 7414TIP3    H243658   5.896   2.274   4.583  0.5307  0.0453  1.0473
 7415TIP3   OH243659   2.439   2.434   5.866 -0.1241 -0.5235  0.4349
 7415TIP3    H143660   2.446   2.517   5.818 -0.5232  0.3663  1.8364
 7415TIP3    H243661   2.400   2.373   5.804 -0.5998  0.5760 -0.3800
 7416TIP3   OH243662   1.265   1.914   3.794 -0.8055 -0.4441 -0.2248
 7416TIP3    H143663   1.187   1.908   3.739 -0.9633  1.4920 -0.2898
 7416TIP3    H243664   1.231   1.935   3.881 -0.4089 -0.6393 -0.0199
 7417TIP3   OH243665   6.215   2.926   1.559  0.4150 -0.6457  0.6167
 7417TIP3    H143666   6.305   2.898   1.575  0.9580  1.2688  1.2275
 7417TIP3    H243667   6.220   2.977   1.478  0.0671  0.1611  1.0897
 7418TIP3   OH243668   4.950   6.732   1.422 -0.3631 -0.6730 -0.2569
 7418TIP3    H143669   4.968   6.807   1.365 -1.3328 -0.9426 -0.9511
 7418TIP3    H243670   4.927   6.662   1.361 -0.7364 -1.1640  0.4496
 7419TIP3   OH243671   6.377   6.181   3.390  0.1400 -0.9017 -0.3327
 7419TIP3    H143672   6.306   6.122   3.365 -1.3645  0.9614 -0.6679
 7419TIP3    H243673   6.335   6.249   3.441  1.9117 -0.3681  0.5020
 7420TIP3   OH243674   5.142   2.548  13.962  0.3595  0.0506 -0.0106
 7420TIP3    H143675   5.187   2.574  14.042 -0.6137 -0.4685  0.7367
 7420TIP3    H243676   5.197   2.479  13.924  0.0712 -0.7895  1.0464
 7421TIP3   OH243677   1.892   2.052  12.937 -0.2504 -0.5118  0.3466
 7421TIP3    H143678   1.898   2.047  12.841  2.7466  1.6834  0.2678
 7421TIP3    H243679   1.889   2.146  12.956  0.0777 -0.8739  2.4119
 7422TIP3   OH243680   4.767   5.026   1.053 -0.1721  0.3860  0.4206
 7422TIP3    H143681   4.712   4.949   1.035  2.0874 -1.1801 -0.2011
 7422TIP3    H243682   4.778   5.067   0.968 -1.8809  1.8578  0.8422
 7423TIP3   OH243683   2.989   0.309  15.369 -0.1244  0.1518 -0.0744
 7423TIP3    H143684   3.045   0.293  15.445 -0.0837  0.5189 -0.0226
 7423TIP3    H243685   2.944   0.391  15.390 -0.9740 -0.3330  0.0530
 7424TIP3   OH243686   6.119   3.885   1.523 -0.6709  0.0387  0.0102
 7424TIP3    H143687   6.091   3.976   1.534 -1.4087 -0.0277 -1.0963
 7424TIP3    H243688   6.137   3.877   1.429 -0.0639 -0.8059  0.1873
 7425TIP3   OH243689   4.972   6.131  14.005  0.3433 -0.0219  0.3461
 7425TIP3    H143690   4.983   6.175  14.089 -1.0530  0.5267  0.2739
 7425TIP3    H243691   4.927   6.196  13.950  1.1191 -0.4143 -0.7894
 7426TIP3   OH243692   2.432   3.039   2.132  0.1411 -0.2076  0.5515
 7426TIP3    H143693   2.384   3.040   2.049 -0.9582 -2.7148  1.0833
 7426TIP3    H243694   2.511   2.989   2.114  0.6638  0.5430  0.6806
 7427TIP3   OH243695   4.482   5.822  16.819  0.5208  0.3234  0.0614
 7427TIP3    H143696   4.577   5.816  16.827  0.5389 -0.7288 -0.7086
 7427TIP3    H243697   4.466   5.821  16.724 -0.2444  0.6342  0.1815
 7428TIP3   OH243698   6.395   1.501   3.995  0.2797  0.1061  0.1504
 7428TIP3    H143699   6.490   1.510   4.008  0.7546 -2.3576 -1.0582
 7428TIP3    H243700   6.380   1.527   3.904 -0.4988  1.8266  0.7129
 7429TIP3   OH243701   2.908   3.045   0.719 -0.5162 -0.2661  0.6449
 7429TIP3    H143702   2.916   3.140   0.725  0.3765 -0.4338  2.7446
 7429TIP3    H243703   2.998   3.014   0.705 -0.9733 -0.7635 -1.5905
 7430TIP3   OH243704   3.640   3.375  16.526 -0.5350 -0.1372  0.4400
 7430TIP3    H143705   3.566   3.416  16.483 -0.8518 -2.3083 -1.2592
 7430TIP3    H243706   3.707   3.368  16.459  1.2529  1.6369  1.9007
 7431TIP3   OH243707   3.866   0.414  14.233  0.1227  0.0507 -0.1427
 7431TIP3    H143708   3.827   0.412  14.146  3.3932  0.8804 -1.8182
 7431TIP3    H243709   3.874   0.323  14.259 -0.1867 -0.2590 -1.1089
 7432TIP3   OH243710   2.129   5.185   6.518 -0.2650 -0.5708 -0.2827
 7432TIP3    H143711   2.091   5.167   6.604  1.7734 -0.4538  0.7046
 7432TIP3    H243712   2.081   5.262   6.487  0.0029  0.3880  1.5015
 7433TIP3   OH243713   2.013   2.925   5.455 -0.2772 -0.2737 -0.1193
 7433TIP3    H143714   1.955   3.001   5.463  0.7184  0.4172  0.7754
 7433TIP3    H243715   1.959   2.850   5.478 -1.4885  0.0414 -1.7416
 7434TIP3   OH243716   3.398   2.276  15.682 -0.3732  0.2496  0.4929
 7434TIP3    H143717   3.490   2.256  15.669 -0.4393 -1.5446  2.2312
 7434TIP3    H243718   3.388   2.367  15.655  1.5606  0.0367 -1.1483
 7435TIP3   OH243719   0.554   5.419   2.191  0.7582  0.4119 -0.3652
 7435TIP3    H143720   0.529   5.491   2.248  0.1751  0.1953 -0.3456
 7435TIP3    H243721   0.588   5.352   2.252 -2.4192 -0.9582  0.0981
 7436TIP3   OH243722   0.231   5.735   0.220  0.0385  0.4997 -0.4332
 7436TIP3    H143723   0.145   5.726   0.178  0.4120  0.8179 -1.2806
 7436TIP3    H243724   0.267   5.815   0.183  0.4786  0.6667  0.3380
 7437TIP3   OH243725   6.101   5.547   5.750 -0.0741  0.4357 -0.7651
 7437TIP3    H143726   6.106   5.470   5.806  1.8981  1.8044  1.0991
 7437TIP3    H243727   6.147   5.522   5.670  0.1753 -0.4347 -0.3562
 7438TIP3   OH243728   5.027   4.451  14.252  0.3660  0.1264 -0.5786
 7438TIP3    H143729   4.945   4.457  14.302  1.0135  1.1275  0.3893
 7438TIP3    H243730   5.075   4.530  14.274  2.2618 -1.1265  0.0340
 7439TIP3   OH243731   0.269   4.067  15.664  0.0749 -0.3717 -0.4705
 7439TIP3    H143732   0.176   4.083  15.650 -0.2748 -0.3732  1.6270
 7439TIP3    H243733   0.272   3.998  15.730  1.5959 -2.0403 -2.1460
 7440TIP3   OH243734   3.330   1.668  13.475 -0.1097  0.3051 -0.1014
 7440TIP3    H143735   3.412   1.621  13.463 -0.2875  0.1894 -1.0063
 7440TIP3    H243736   3.355   1.760  13.481  0.1031  0.2605 -0.2846
 7441TIP3   OH243737   3.961   4.819  11.428  0.1780 -0.3339  0.4829
 7441TIP3    H143738   4.039   4.764  11.432 -0.4482 -1.2994 -0.2172
 7441TIP3    H243739   3.968   4.864  11.344  1.2614  1.5872  1.5254
 7442TIP3   OH243740   5.991   4.847   0.773  0.4906 -0.5883  0.0036
 7442TIP3    H143741   5.924   4.790   0.809 -0.0328  0.4233  0.6901
 7442TIP3    H243742   6.073   4.817   0.812  0.3514 -1.4301 -0.3473
 7443TIP3   OH243743   5.516   3.029  16.635  0.1532  0.3979  0.2854
 7443TIP3    H143744   5.431   3.004  16.599  0.1978 -0.0822  0.5054
 7443TIP3    H243745   5.566   3.061  16.560  0.5264 -1.3361 -0.2368
 7444TIP3   OH243746   1.006   6.639   3.544 -0.3446  0.3400 -0.6701
 7444TIP3    H143747   1.030   6.728   3.517 -0.6418  0.4045 -0.7266
 7444TIP3    H243748   1.005   6.642   3.640 -0.8798  0.5433 -0.6757
 7445TIP3   OH243749   4.263   4.095  17.018 -1.1341 -0.1315 -0.4231
 7445TIP3    H143750   4.270   4.002  16.999 -1.7048 -0.1452 -0.5989
 7445TIP3    H243751   4.322   4.137  16.955 -0.8800 -0.3776 -0.3457
 7446TIP3   OH243752   3.713   5.065   0.239  0.0413  0.4747  0.2881
 7446TIP3    H143753   3.675   5.056   0.151  0.5275  3.4365 -0.3267
 7446TIP3    H243754   3.713   4.976   0.274  0.6749 -1.0091 -3.0547
 7447TIP3   OH243755   1.221   0.193   1.891  0.1351  0.0709 -0.6884
 7447TIP3    H143756   1.260   0.253   1.955  2.3293 -0.1112 -1.7627
 7447TIP3    H243757   1.152   0.245   1.848 -0.3396  0.6647  0.7474
 7448TIP3   OH243758   5.003   5.838   2.005 -1.0537 -0.0730 -0.1881
 7448TIP3    H143759   4.955   5.921   2.009  1.2217  1.3178 -0.1527
 7448TIP3    H243760   4.960   5.790   1.934 -1.3895  1.8662 -1.3833
 7449TIP3   OH243761   1.611   0.027   0.489 -0.5473  0.2055  0.1316
 7449TIP3    H143762   1.671   0.047   0.417 -0.2422 -0.6119  0.1400
 7449TIP3    H243763   1.548   0.099   0.490 -0.0813  0.6229 -0.4451
 7450TIP3   OH243764   2.283   5.577  13.280 -0.5601  0.4826  0.0609
 7450TIP3    H143765   2.275   5.506  13.216  0.2126 -0.1637  0.6502
 7450TIP3    H243766   2.233   5.649  13.242  0.2590  0.2827 -1.4991
 7451TIP3   OH243767   4.087   6.082  12.507 -0.5282 -0.6142 -0.3255
 7451TIP3    H143768   4.167   6.050  12.550 -0.3517  1.4862  0.9928
 7451TIP3    H243769   4.090   6.040  12.421  2.1681 -0.4154 -0.4412
 7452TIP3   OH243770   2.748   4.527  16.885  0.0478 -0.5220 -0.2682
 7452TIP3    H143771   2.838   4.515  16.913  0.4787  1.4138 -0.6726
 7452TIP3    H243772   2.750   4.522  16.790 -0.2035 -0.1992 -0.2970
 7453TIP3   OH243773   4.646   3.200   0.024 -0.3043 -0.3444  0.1326
 7453TIP3    H143774   4.662   3.235   0.112 -1.9668 -1.6196  1.0066
 7453TIP3    H243775   4.655   3.105   0.035 -0.2218 -0.5016 -1.1749
 7454TIP3   OH243776   2.113   3.934   2.158 -0.4162 -0.0181  0.5731
 7454TIP3    H143777   2.204   3.908   2.147 -0.2680  0.5256  0.5085
 7454TIP3    H243778   2.113   4.029   2.148 -0.9866 -0.0099  0.5885
 7455TIP3   OH243779   5.630   0.006  15.973  0.8256  0.3130 -0.4531
 7455TIP3    H143780   5.672  -0.077  15.950 -0.0173 -0.2032 -0.1670
 7455TIP3    H243781   5.537  -0.011  15.961  0.5129  0.7113  1.1946
 7456TIP3   OH243782   6.242   3.570  14.334 -0.2348  0.5468 -0.0218
 7456TIP3    H143783   6.220   3.657  14.301  1.1526  0.5323 -1.0444
 7456TIP3    H243784   6.229   3.576  14.429 -0.3585  1.7841 -0.1076
 7457TIP3   OH243785   4.664   2.209   5.821  0.5516  0.1882 -0.0499
 7457TIP3    H143786   4.576   2.172   5.819 -0.2306  1.9948 -0.6434
 7457TIP3    H243787   4.691   2.212   5.730  0.9157  0.3336  0.0607
 7458TIP3   OH243788   2.976   1.865  11.233  0.7310  0.8647  0.3352
 7458TIP3    H143789   3.004   1.805  11.302 -0.6607  1.0941  1.1178
 7458TIP3    H243790   3.022   1.947  11.251 -1.4907  1.7449  2.5513
 7459TIP3   OH243791   1.364   1.915   0.538  0.6044  0.0232  0.0576
 7459TIP3    H143792   1.433   1.850   0.548 -0.1853 -0.9608 -0.6469
 7459TIP3    H243793   1.314   1.911   0.620  0.7341 -0.0407  0.1328
 7460TIP3   OH243794   2.857   5.920   3.835  0.4289  0.0370  0.5455
 7460TIP3    H143795   2.823   5.982   3.899  0.3683 -1.4025  1.9904
 7460TIP3    H243796   2.879   5.842   3.887  0.5700 -1.1206 -1.1723
 7461TIP3   OH243797   4.111   2.887   0.754 -0.3001 -0.1202  0.0138
 7461TIP3    H143798   4.088   2.908   0.844 -1.9695  0.1255 -0.4388
 7461TIP3    H243799   4.040   2.924   0.702 -0.1531 -1.5803 -1.2846
 7462TIP3   OH243800   6.087   4.082  11.441 -0.3684  0.5083  0.4027
 7462TIP3    H143801   6.143   4.045  11.510  0.2738  0.0733 -0.3359
 7462TIP3    H243802   6.106   4.176  11.443 -1.3688  0.7182  1.7162
 7463TIP3   OH243803   6.051   1.687  10.640  0.0782  0.2717 -0.0752
 7463TIP3    H143804   6.022   1.633  10.714 -0.3155  2.1951  1.2713
 7463TIP3    H243805   6.112   1.632  10.592  0.4253 -1.0247  1.7459
 7464TIP3   OH243806   2.501   6.578   3.971 -0.5264  0.1796  0.2670
 7464TIP3    H143807   2.554   6.513   3.923 -0.7175  0.2010  0.0215
 7464TIP3    H243808   2.461   6.631   3.902 -1.5019 -0.3350  0.4071
 7465TIP3   OH243809   1.287   5.642   0.856  0.3908 -0.1608  0.1091
 7465TIP3    H143810   1.331   5.574   0.907 -0.3459 -0.2704  0.6025
 7465TIP3    H243811   1.298   5.614   0.765  0.8250 -0.4918  0.2584
 7466TIP3   OH243812   0.288   0.848  16.627 -0.0034 -0.1026 -0.2857
 7466TIP3    H143813   0.378   0.844  16.658 -0.1211 -1.6523 -0.1010
 7466TIP3    H243814   0.271   0.942  16.616  1.6411  0.2119 -0.3921
 7467TIP3   OH243815   5.952   6.516  16.417 -0.3470 -0.8404  0.6569
 7467TIP3    H143816   5.981   6.559  16.498 -0.4911 -0.3577  0.4593
 7467TIP3    H243817   5.994   6.430  16.418  2.0133  0.2229 -0.1536
 7468TIP3   OH243818   1.925   4.028  14.916  0.1508  0.1674  0.4182
 7468TIP3    H143819   1.974   4.041  14.997  1.7243 -1.1472 -0.2650
 7468TIP3    H243820   1.885   3.942  14.925  1.8792 -0.8494 -0.8814
 7469TIP3   OH243821   6.696   2.984  15.456  0.5857  0.3174  0.1599
 7469TIP3    H143822   6.770   2.924  15.447 -1.6188 -3.2410  2.8329
 7469TIP3    H243823   6.684   2.993  15.551 -3.3019 -0.7203 -0.0775
 7470TIP3   OH243824   2.190   5.477   5.287 -0.3183  0.1100 -0.0095
 7470TIP3    H143825   2.265   5.418   5.297 -0.1046  0.6016  1.7001
 7470TIP3    H243826   2.202   5.541   5.358 -1.4362  1.2093 -0.7891
 7471TIP3   OH243827   0.474   3.174   0.363 -0.6682 -0.0103 -0.4685
 7471TIP3    H143828   0.378   3.168   0.366 -0.7164  0.4879 -0.8368
 7471TIP3    H243829   0.491   3.258   0.321 -0.0732 -0.9348 -2.1936
 7472TIP3   OH243830   3.048   5.368  13.111 -0.2166 -0.3661 -0.2212
 7472TIP3    H143831   3.007   5.451  13.137 -0.2607 -0.4192 -0.1226
 7472TIP3    H243832   3.071   5.325  13.194  2.4139  0.8324 -0.2175
 7473TIP3   OH243833   5.145   2.224   0.750  0.2307 -0.4648  0.4111
 7473TIP3    H143834   5.147   2.147   0.808  0.1445 -0.4352  0.4531
 7473TIP3    H243835   5.237   2.239   0.728  0.1064 -1.9068 -1.3342
 7474TIP3   OH243836   5.510   6.229   5.831 -0.3628  0.0212  0.2431
 7474TIP3    H143837   5.472   6.313   5.854 -1.0928 -0.4239  0.7249
 7474TIP3    H243838   5.455   6.196   5.760 -0.6917 -0.4764  0.7164
 7475TIP3   OH243839   6.345   3.574   0.746 -0.2024 -0.4354  0.3489
 7475TIP3    H143840   6.318   3.620   0.825 -1.1825  0.5480 -0.5250
 7475TIP3    H243841   6.274   3.589   0.684  1.4460  0.5686 -1.4078
 7476TIP3   OH243842   2.162   4.710   6.583  0.1513 -0.2783  0.5580
 7476TIP3    H143843   2.208   4.776   6.635 -1.4051 -0.1767  1.8636
 7476TIP3    H243844   2.153   4.635   6.642  0.2312 -0.9729 -0.2905
 7477TIP3   OH243845   0.212   2.904   3.387  0.5651  0.2734 -0.3848
 7477TIP3    H143846   0.167   2.983   3.417  0.2303 -0.0890  0.0800
 7477TIP3    H243847   0.279   2.936   3.327  0.0126  0.8611 -0.6999
 7478TIP3   OH243848   5.738   4.950  12.802  0.8682  0.8945 -0.5010
 7478TIP3    H143849   5.677   4.929  12.873  1.9894 -0.8207  0.0190
 7478TIP3    H243850   5.683   4.960  12.725 -0.2931  1.9374  0.4131
 7479TIP3   OH243851   1.909   4.668  12.849 -0.2369 -0.0916  0.5868
 7479TIP3    H143852   1.900   4.723  12.927 -1.2155 -0.8513  1.0349
 7479TIP3    H243853   1.994   4.625  12.859  0.9615  1.9533 -0.2094
 7480TIP3   OH243854   1.016   0.255  16.821 -0.2971 -0.3182 -0.1309
 7480TIP3    H143855   1.073   0.214  16.886  0.7180  1.4272  0.1185
 7480TIP3    H243856   1.013   0.347  16.845  0.7917  0.5603 -3.0137
 7481TIP3   OH243857   5.623   3.599  12.761  0.1351 -0.1767 -0.9714
 7481TIP3    H143858   5.564   3.668  12.791  3.2702  1.7998  1.1238
 7481TIP3    H243859   5.630   3.612  12.667  1.8183  3.5258 -0.4825
 7482TIP3   OH243860   6.004   0.357  11.186 -0.4614 -0.8566  0.7511
 7482TIP3    H143861   5.910   0.342  11.195 -1.1853  1.0476 -2.3357
 7482TIP3    H243862   6.042   0.269  11.188 -2.2981 -1.6868  1.7029
 7483TIP3   OH243863   3.405   5.646   2.936  0.0595 -0.3236  0.7537
 7483TIP3    H143864   3.400   5.550   2.935 -1.2905 -0.2697  0.4211
 7483TIP3    H243865   3.489   5.665   2.978 -0.2398 -1.6375  2.0297
 7484TIP3   OH243866   3.707   6.231  13.814  0.1089 -0.2696 -0.1225
 7484TIP3    H143867   3.625   6.218  13.765 -0.3198 -1.6268  0.9008
 7484TIP3    H243868   3.685   6.298  13.879 -0.6118 -1.5893  1.0287
 7485TIP3   OH243869   4.917   5.179  15.815 -0.3446 -0.5329 -0.4644
 7485TIP3    H143870   4.926   5.244  15.745  1.2416 -1.0838 -0.7959
 7485TIP3    H243871   4.983   5.205  15.880 -0.6716 -1.0008  0.0624
 7486TIP3   OH243872   5.739   6.470  15.253  0.0308 -0.2881  0.4232
 7486TIP3    H143873   5.689   6.524  15.193  2.2449  1.7544  0.2849
 7486TIP3    H243874   5.775   6.399  15.199 -0.4056 -0.1613 -0.0310
 7487TIP3   OH243875   2.540   6.003  13.210  0.0670 -0.3087  0.4670
 7487TIP3    H143876   2.625   5.985  13.251 -0.1020  0.4177  1.1719
 7487TIP3    H243877   2.553   6.086  13.164 -0.0879 -0.5080  0.0620
 7488TIP3   OH243878   1.004   0.870   4.369 -0.0941 -0.4514 -0.2607
 7488TIP3    H143879   1.044   0.784   4.381  0.2777 -0.4250 -1.2151
 7488TIP3    H243880   0.909   0.854   4.373 -0.1259 -1.3541 -2.9158
 7489TIP3   OH243881   0.224   1.492  16.054  0.3723 -0.2288 -0.3851
 7489TIP3    H143882   0.262   1.581  16.055  1.1301 -0.5432 -0.5343
 7489TIP3    H243883   0.298   1.435  16.071 -0.2886 -0.7854  0.7349
 7490TIP3   OH243884   6.150   1.127  13.786 -0.2274 -0.8670 -0.2371
 7490TIP3    H143885   6.182   1.153  13.699 -0.5401 -1.0002 -0.3914
 7490TIP3    H243886   6.104   1.204  13.819 -1.4025 -1.2990 -0.8134
 7491TIP3   OH243887   4.419   0.518  14.942  0.1092  0.0659  0.2236
 7491TIP3    H143888   4.373   0.589  14.896  1.1787 -0.4289 -1.7217
 7491TIP3    H243889   4.510   0.527  14.915  0.3478 -1.8016  0.2664
 7492TIP3   OH243890   2.618   1.645  16.949 -0.1371  0.2125  0.2628
 7492TIP3    H143891   2.637   1.555  16.976  1.0855  0.5459  0.6015
 7492TIP3    H243892   2.684   1.664  16.882 -0.8460  0.6222 -0.3300
 7493TIP3   OH243893   0.533   5.840  10.799 -0.3584 -0.1295  0.4554
 7493TIP3    H143894   0.447   5.880  10.814  1.2207  2.5481  3.5985
 7493TIP3    H243895   0.574   5.895  10.732 -0.3240 -0.1457  0.4627
 7494TIP3   OH243896   5.479   1.106  10.915  0.6784  0.0774 -0.5573
 7494TIP3    H143897   5.572   1.124  10.903  0.4218  1.5823 -0.4524
 7494TIP3    H243898   5.471   1.077  11.005  0.8453  1.5868 -0.0260
 7495TIP3   OH243899   6.649   3.762  12.417 -0.0927  0.2564  0.1027
 7495TIP3    H143900   6.604   3.839  12.450  0.5032  0.8577 -0.4524
 7495TIP3    H243901   6.729   3.756  12.469 -0.3347 -0.2370  0.4282
 7496TIP3   OH243902   3.025   5.771   2.175  0.5100  0.2864 -0.0883
 7496TIP3    H143903   2.993   5.712   2.106  1.9099 -0.6972  0.0760
 7496TIP3    H243904   2.982   5.740   2.254 -0.1635  0.6598 -0.2930
 7497TIP3   OH243905   4.308   5.921  17.100 -0.6189 -0.7015  0.3993
 7497TIP3    H143906   4.252   5.997  17.082 -1.0627 -0.9565  0.6609
 7497TIP3    H243907   4.290   5.861  17.028 -0.7286 -0.8055  0.5116
 7498TIP3   OH243908   2.178   2.054   1.811 -0.1325  0.2333  0.5028
 7498TIP3    H143909   2.235   2.031   1.738 -0.9392 -0.1609 -0.0217
 7498TIP3    H243910   2.213   2.138   1.843 -0.1578  0.7603 -0.7623
 7499TIP3   OH243911   3.310   1.707  13.995 -0.1199  0.1304  0.3136
 7499TIP3    H143912   3.385   1.712  13.935 -1.1603  1.2500 -0.9479
 7499TIP3    H243913   3.248   1.650  13.952 -0.5639  0.3077  0.7085
 7500TIP3   OH243914   2.433   0.737  12.206 -0.3081 -0.2659 -0.8574
 7500TIP3    H143915   2.372   0.666  12.224  0.1941 -1.2457 -2.7371
 7500TIP3    H243916   2.378   0.809  12.175 -0.6922 -0.3034 -0.2879
 7501TIP3   OH243917   2.909   2.126  14.562  0.4501  0.6354  0.1782
 7501TIP3    H143918   2.892   2.033  14.546  0.0702  1.2057 -3.5149
 7501TIP3    H243919   2.859   2.145  14.642 -0.1346 -2.1088  0.5961
 7502TIP3   OH243920   2.585   4.220   5.406  0.6321  0.6648  0.5170
 7502TIP3    H143921   2.502   4.173   5.405  1.5806 -1.1300  1.2166
 7502TIP3    H243922   2.624   4.199   5.491  2.6388 -0.1643 -0.5225
 7503TIP3   OH243923   0.590   0.861  14.593  0.0898  0.4069 -0.0172
 7503TIP3    H143924   0.668   0.870  14.647 -0.6003  2.5891  0.7355
 7503TIP3    H243925   0.622   0.828  14.509  1.4374 -1.2191  1.0630
 7504TIP3   OH243926   2.119   3.441   0.282 -0.0065  0.6550  0.2620
 7504TIP3    H143927   2.081   3.509   0.225  0.8354  0.0290 -1.1015
 7504TIP3    H243928   2.061   3.366   0.272 -0.1382  0.7038  0.6419
 7505TIP3   OH243929   0.821   1.511   5.550  0.0154 -0.3580  0.1868
 7505TIP3    H143930   0.844   1.494   5.641  0.1332 -1.6453 -0.0602
 7505TIP3    H243931   0.731   1.479   5.542 -0.3851  0.7383  0.1011
 7506TIP3   OH243932   1.930   2.515  14.891  0.0222  0.1265  0.0876
 7506TIP3    H143933   1.972   2.484  14.972  0.0747  0.1493  0.0686
 7506TIP3    H243934   1.968   2.602  14.876 -0.1116  0.1923  0.1299
 7507TIP3   OH243935   1.155   0.497   2.479 -0.2823  0.1868  0.6645
 7507TIP3    H143936   1.202   0.443   2.416  0.8769  0.5098  1.2345
 7507TIP3    H243937   1.179   0.587   2.458 -2.5966  0.5916 -0.5989
 7508TIP3   OH243938   1.162   3.933   4.925 -0.3182 -0.1525  0.3682
 7508TIP3    H143939   1.213   4.012   4.912  0.7607 -0.7041  1.0908
 7508TIP3    H243940   1.177   3.909   5.016 -0.9916 -0.9418  0.2885
 7509TIP3   OH243941   5.182   1.746  16.940  0.0337  0.4208 -0.6080
 7509TIP3    H143942   5.249   1.811  16.961  1.5103 -1.1752 -0.1007
 7509TIP3    H243943   5.102   1.780  16.979  0.5175  2.3844 -1.2117
 7510TIP3   OH243944   0.923   4.587  15.513  0.0114  0.3260 -0.6632
 7510TIP3    H143945   0.986   4.605  15.443  0.0418 -0.1462 -0.7579
 7510TIP3    H243946   0.861   4.660  15.508  0.3336  0.5944 -0.8147
 7511TIP3   OH243947   0.540   2.719   1.033  0.5980 -0.1339  0.2577
 7511TIP3    H143948   0.627   2.758   1.024  0.9683 -0.9845  0.0951
 7511TIP3    H243949   0.533   2.698   1.126  1.5100 -2.1633 -0.0762
 7512TIP3   OH243950   6.685   0.525  11.520  0.2055  0.3566  0.2442
 7512TIP3    H143951   6.659   0.608  11.480 -3.0571 -1.1472 -1.0581
 7512TIP3    H243952   6.638   0.523  11.604 -1.9759 -1.2365 -0.9304
 7513TIP3   OH243953   0.847   5.435  11.271 -0.1949  0.5446  0.2901
 7513TIP3    H143954   0.768   5.490  11.273 -1.4807 -1.1723 -0.2587
 7513TIP3    H243955   0.868   5.421  11.363 -3.1294 -2.3489  0.7215
 7514TIP3   OH243956   3.580   5.898  11.941  0.0345  0.2385 -0.4573
 7514TIP3    H143957   3.561   5.908  12.034  0.6809 -0.5103 -0.2338
 7514TIP3    H243958   3.627   5.815  11.935 -0.3364  0.0881 -1.5037
 7515TIP3   OH243959   1.084   3.923   4.554 -0.3141  0.0490 -0.8367
 7515TIP3    H143960   1.132   3.910   4.636 -3.5394  1.3642  1.4910
 7515TIP3    H243961   1.001   3.877   4.567 -0.8491  0.0931 -3.5236
 7516TIP3   OH243962   1.597   4.028  12.598  0.2133 -0.3417  0.3019
 7516TIP3    H143963   1.602   4.020  12.693 -1.1877  1.5219  0.5914
 7516TIP3    H243964   1.641   3.950  12.564  1.4326 -0.6525  2.4589
 7517TIP3   OH243965   6.270   0.638  13.915 -0.5544  0.3215  0.3983
 7517TIP3    H143966   6.207   0.627  13.987 -0.7859 -1.3512 -0.0218
 7517TIP3    H243967   6.222   0.608  13.837  0.9818 -1.7983  0.1862
 7518TIP3   OH243968   6.563   4.567   4.799  0.5257 -0.3699 -0.1853
 7518TIP3    H143969   6.656   4.566   4.819  0.4331 -0.5514  0.2517
 7518TIP3    H243970   6.520   4.548   4.883  0.1392 -1.3829 -0.6017
 7519TIP3   OH243971   2.877   5.543   4.089  0.9423  0.0172  0.0905
 7519TIP3    H143972   2.914   5.455   4.090 -0.9657 -0.8263  1.0120
 7519TIP3    H243973   2.905   5.580   4.005  2.2182 -1.2509 -0.0771
 7520TIP3   OH243974   5.445   6.444   0.659 -0.0570  0.3506 -0.7225
 7520TIP3    H143975   5.416   6.353   0.666 -2.1741  1.0476  0.7095
 7520TIP3    H243976   5.401   6.477   0.581 -1.3522  0.7832  0.1602
 7521TIP3   OH243977   2.263   0.267   3.565 -0.0444 -0.4016  0.3636
 7521TIP3    H143978   2.227   0.356   3.564 -0.0115 -0.3879  0.3894
 7521TIP3    H243979   2.290   0.253   3.656 -0.6473 -0.6789  0.5012
 7522TIP3   OH243980   1.973   5.680   0.441  0.8029  0.0876 -0.5438
 7522TIP3    H143981   1.939   5.643   0.360  0.4045 -1.9098  0.4675
 7522TIP3    H243982   1.971   5.775   0.427  1.7191 -0.2116 -3.2215
 7523TIP3   OH243983   1.670   2.697   5.308 -0.2138  0.0459  0.3184
 7523TIP3    H143984   1.659   2.606   5.282  0.8948 -0.1909  0.6175
 7523TIP3    H243985   1.707   2.693   5.396 -0.9112  0.7963  0.6610
 7524TIP3   OH243986   2.937   4.357  14.162  0.1044 -0.0628 -0.8020
 7524TIP3    H143987   2.966   4.293  14.098 -0.5268  0.4036 -1.5748
 7524TIP3    H243988   2.884   4.308  14.224  0.1244 -0.3879 -1.0427
 7525TIP3   OH243989   0.155   5.133  15.797  0.1223  0.9758 -0.0150
 7525TIP3    H143990   0.076   5.138  15.744 -0.3639 -0.1765  0.5660
 7525TIP3    H243991   0.159   5.042  15.826 -0.2731  1.7710  2.8569
 7526TIP3   OH243992   3.635   1.710   5.107 -0.2640 -0.9680  0.2293
 7526TIP3    H143993   3.613   1.799   5.136  1.3559 -0.2826 -0.5017
 7526TIP3    H243994   3.656   1.663   5.187  0.1873 -0.2828  0.5236
 7527TIP3   OH243995   6.528   0.207   2.782  0.3225 -0.0890  0.3114
 7527TIP3    H143996   6.525   0.267   2.857 -1.7796 -1.7899  1.7286
 7527TIP3    H243997   6.481   0.253   2.713  1.1092  0.9704  0.4566
 7528TIP3   OH243998   0.800   2.301  13.210  0.4189  0.6718  0.2775
 7528TIP3    H143999   0.873   2.269  13.158  0.2696 -0.7815  0.9389
 7528TIP3    H244000   0.790   2.393  13.182  1.1398  0.3019 -1.3223
 7529TIP3   OH244001   5.272   3.010  11.831  0.4953 -0.1037  0.3660
 7529TIP3    H144002   5.299   2.969  11.749  0.5707  1.5282 -0.4749
 7529TIP3    H244003   5.218   3.084  11.803 -1.3736 -0.8231  1.8759
 7530TIP3   OH244004   0.295   5.221  11.894 -0.2493  0.2368  0.6184
 7530TIP3    H144005   0.240   5.258  11.964 -1.9058  2.8405 -1.8293
 7530TIP3    H244006   0.233   5.176  11.837  0.5146  1.0032 -0.8597
 7531TIP3   OH244007   4.270   4.980   3.997 -0.1592 -0.1064 -0.1769
 7531TIP3    H144008   4.337   4.953   4.060  0.4471 -0.8537 -1.1165
 7531TIP3    H244009   4.214   5.040   4.046  0.6349 -0.2175  0.9040
 7532TIP3   OH244010   1.421   4.598  16.514 -0.3544 -0.3070  0.0509
 7532TIP3    H144011   1.453   4.546  16.587 -0.5573 -1.1095 -0.4183
 7532TIP3    H244012   1.450   4.552  16.436 -3.1090 -1.4541 -0.4193
 7533TIP3   OH244013   3.257   1.910  12.872  0.2199 -0.1285  0.0600
 7533TIP3    H144014   3.168   1.946  12.871 -0.4268 -1.3918 -3.3567
 7533TIP3    H244015   3.245   1.817  12.850  2.3946  0.0803 -2.5730
 7534TIP3   OH244016   6.174   2.177   2.813  0.4573  0.0338 -0.0422
 7534TIP3    H144017   6.227   2.171   2.734  1.6333 -0.3109  0.7581
 7534TIP3    H244018   6.211   2.111   2.872 -3.4072 -3.3519 -0.9018
 7535TIP3   OH244019   1.603   4.958   1.062 -0.2767  0.2285 -0.4964
 7535TIP3    H144020   1.558   4.928   0.983 -2.8189  0.3160  0.8147
 7535TIP3    H244021   1.576   4.897   1.130  1.0768  0.7162  0.5283
 7536TIP3   OH244022   3.011   3.614  15.468 -0.4575 -0.1841  0.1288
 7536TIP3    H144023   3.080   3.580  15.525 -0.9014 -2.0804 -0.3967
 7536TIP3    H244024   3.021   3.565  15.387 -0.3740  1.8722 -1.1592
 7537TIP3   OH244025   4.185   2.419   5.537 -0.2040 -0.7364 -0.2398
 7537TIP3    H144026   4.221   2.414   5.448  0.2767 -3.4959  0.0273
 7537TIP3    H244027   4.117   2.352   5.539 -0.7750 -0.1449  1.2527
 7538TIP3   OH244028   5.339   3.246   1.325  0.2824 -0.4167  0.4895
 7538TIP3    H144029   5.331   3.151   1.331 -0.0824 -0.4743 -0.7876
 7538TIP3    H244030   5.273   3.280   1.386  1.0375 -0.9624  1.6513
 7539TIP3   OH244031   4.845   4.198  11.214  0.1341 -0.2577 -0.2254
 7539TIP3    H144032   4.769   4.224  11.162  0.7950  0.5318 -0.8184
 7539TIP3    H244033   4.894   4.139  11.158  1.0680  0.9232 -0.6989
 7540TIP3   OH244034   0.032   5.641  12.283  0.5130 -0.3859  0.3200
 7540TIP3    H144035   0.028   5.706  12.353 -0.9677  1.1700 -1.0943
 7540TIP3    H244036   0.045   5.692  12.203  0.9061 -1.9781 -0.6877
 7541TIP3   OH244037   3.177   4.682  11.028  0.2633  0.5588  0.2189
 7541TIP3    H144038   3.175   4.596  10.985  0.2777  1.1262 -0.9442
 7541TIP3    H244039   3.269   4.707  11.027  0.4250  0.1075  1.5798
 7542TIP3   OH244040   2.544   0.883  14.322  0.2418 -0.1124  0.0637
 7542TIP3    H144041   2.560   0.809  14.263  1.1234  1.0882 -1.2773
 7542TIP3    H244042   2.629   0.928  14.328 -0.6812  1.8458 -0.6926
 7543TIP3   OH244043   1.382   4.919   2.671 -0.7420  0.4934  0.6698
 7543TIP3    H144044   1.403   4.935   2.579 -1.1577  1.7611  0.7680
 7543TIP3    H244045   1.465   4.895   2.711 -0.6104 -0.3823 -0.0836
 7544TIP3   OH244046   2.845   1.472   1.548  0.1530 -0.7827 -0.0653
 7544TIP3    H144047   2.814   1.468   1.638  0.2599 -0.0859  0.0026
 7544TIP3    H244048   2.852   1.565   1.528  3.4118 -0.8127  0.3431
 7545TIP3   OH244049   4.338   1.847  14.215  0.5838 -0.6615  0.4252
 7545TIP3    H144050   4.328   1.942  14.211  1.3064 -0.6064 -0.1155
 7545TIP3    H244051   4.349   1.828  14.308 -0.6555 -0.3404  0.6549
 7546TIP3   OH244052   6.522   6.214  15.018  0.2428  0.6946 -0.0106
 7546TIP3    H144053   6.569   6.233  15.100  0.5180  2.4405 -0.5173
 7546TIP3    H244054   6.573   6.259  14.951  0.2512 -1.0447 -1.2392
 7547TIP3   OH244055   3.227   6.571  12.750 -0.6859 -0.3601  0.1000
 7547TIP3    H144056   3.229   6.475  12.754  1.1476 -0.4502 -1.5007
 7547TIP3    H244057   3.195   6.590  12.662  0.3671  0.4586 -0.1163
 7548TIP3   OH244058   0.839   1.285   2.626  0.0603  0.4699  0.0213
 7548TIP3    H144059   0.920   1.253   2.585 -0.7252  1.3495 -2.3461
 7548TIP3    H244060   0.852   1.379   2.637 -0.4856  0.5566 -0.0247
 7549TIP3   OH244061   6.382   1.751   0.829  0.0307  0.6531  0.0835
 7549TIP3    H144062   6.398   1.657   0.829  2.8914  1.0093  1.9190
 7549TIP3    H244063   6.442   1.786   0.763 -0.8060  1.2344 -0.3835
 7550TIP3   OH244064   3.231   0.995  11.920 -0.1793 -0.3141  0.3854
 7550TIP3    H144065   3.184   0.986  12.003 -1.0624 -0.3732 -0.1111
 7550TIP3    H244066   3.280   0.913  11.912 -2.3014 -1.5843 -0.4787
 7551TIP3   OH244067   1.351   0.577   0.099 -0.5383  0.1822  0.3765
 7551TIP3    H144068   1.334   0.671   0.107  0.7086  0.2867  2.7909
 7551TIP3    H244069   1.275   0.535   0.139 -0.1460  0.2803  1.2618
 7552TIP3   OH244070   0.082   1.477  17.007 -0.0657  0.8549  0.3076
 7552TIP3    H144071   0.167   1.446  17.036 -0.7900 -0.1520  1.4523
 7552TIP3    H244072   0.050   1.532  17.079 -1.1922 -0.3544  0.7666
 7553TIP3   OH244073   4.867   2.177  12.565  0.3027  0.2151 -0.3407
 7553TIP3    H144074   4.875   2.110  12.497 -0.4333  0.3026 -0.5233
 7553TIP3    H244075   4.839   2.130  12.643  1.2166  0.1040 -0.0631
 7554TIP3   OH244076   2.276   4.343   4.157  0.0928 -0.1836  0.1733
 7554TIP3    H144077   2.220   4.369   4.230  1.3540  0.8504  0.7994
 7554TIP3    H244078   2.334   4.418   4.143  1.0845 -1.0826 -0.6821
 7555TIP3   OH244079   5.683   1.447   2.746 -0.0360  0.2910 -0.2968
 7555TIP3    H144080   5.669   1.401   2.664  0.0765 -0.9549  0.3579
 7555TIP3    H244081   5.771   1.484   2.739  0.3765 -0.6623 -0.3658
 7556TIP3   OH244082   4.255   2.032  17.281 -0.0699  0.4511 -0.1544
 7556TIP3    H144083   4.252   1.942  17.315 -0.3789  0.5087 -0.0275
 7556TIP3    H244084   4.309   2.080  17.344  0.3043  0.2985 -0.3566
 7557TIP3   OH244085   6.370   2.717   3.215  0.1707  0.0723 -0.3407
 7557TIP3    H144086   6.283   2.752   3.195 -0.1320 -0.2553  0.3538
 7557TIP3    H244087   6.352   2.629   3.249  0.5616  0.8324  2.0381
 7558TIP3   OH244088   4.534   1.492   0.459 -0.4164  0.3915 -0.1620
 7558TIP3    H144089   4.590   1.438   0.403 -1.1138  0.2762 -0.7622
 7558TIP3    H244090   4.479   1.429   0.506  0.0789  0.4951  0.5695
 7559TIP3   OH244091   0.077   3.627  17.048 -0.2562  0.2456  0.2335
 7559TIP3    H144092   0.091   3.717  17.021  2.6901 -0.7156 -1.8231
 7559TIP3    H244093   0.017   3.591  16.982  1.1854 -0.1340 -0.9119
 7560TIP3   OH244094   0.057   3.598   1.364 -0.1790 -0.7654  0.8634
 7560TIP3    H144095   0.136   3.610   1.311  0.2749  0.1601  1.7098
 7560TIP3    H244096  -0.013   3.635   1.310  0.1664 -0.4677  0.6075
 7561TIP3   OH244097   4.710   0.266  15.909  0.3204  0.1998  0.2211
 7561TIP3    H144098   4.686   0.271  16.002 -0.8722 -0.0646 -0.0600
 7561TIP3    H244099   4.627   0.265  15.863  0.9031  0.2272 -0.8606
 7562TIP3   OH244100   3.381   5.724   4.783 -1.0259  0.1687  0.0018
 7562TIP3    H144101   3.416   5.735   4.872 -1.1475 -0.5236  0.1435
 7562TIP3    H244102   3.327   5.801   4.769 -0.7025  0.4733  0.3846
 7563TIP3   OH244103   3.428   4.085   0.117  0.0114  0.1847 -0.1149
 7563TIP3    H144104   3.487   4.161   0.121 -1.6203  1.4722  0.8825
 7563TIP3    H244105   3.340   4.123   0.121 -0.8598 -1.8423  2.2171
 7564TIP3   OH244106   0.503   5.852   2.751  0.5186  0.6263 -0.8996
 7564TIP3    H144107   0.449   5.785   2.793  3.4955 -1.1356  0.3844
 7564TIP3    H244108   0.440   5.919   2.724 -2.2873 -1.2871  0.3886
 7565TIP3   OH244109   0.880   3.392  14.880  0.7378 -0.2229 -0.0450
 7565TIP3    H144110   0.909   3.301  14.876  0.2068 -0.3648 -0.8676
 7565TIP3    H244111   0.822   3.395  14.956  0.3027 -0.7026 -0.3588
 7566TIP3   OH244112   6.164   6.508   5.004 -0.3245 -0.1770 -0.1554
 7566TIP3    H144113   6.094   6.567   4.980 -0.5061 -0.1153  0.5132
 7566TIP3    H244114   6.240   6.538   4.954 -0.6076  0.1568 -0.3804
 7567TIP3   OH244115   0.488   5.448   4.588 -0.2952  0.3403  0.0519
 7567TIP3    H144116   0.482   5.363   4.543 -1.2394  0.1279  0.5446
 7567TIP3    H244117   0.573   5.445   4.633  0.3097  0.2391 -1.0574
 7568TIP3   OH244118   5.809   3.389   0.780 -0.3105  0.4101 -0.2782
 7568TIP3    H144119   5.879   3.326   0.798  0.1351  0.7513 -0.7705
 7568TIP3    H244120   5.838   3.470   0.823 -0.7015  0.3844  0.0379
 7569TIP3   OH244121   4.283   6.703   1.775 -0.6503  0.2005 -0.2749
 7569TIP3    H144122   4.233   6.758   1.714  0.1765 -0.7202 -1.8506
 7569TIP3    H244123   4.374   6.718   1.750 -0.2899 -0.1331  0.8187
 7570TIP3   OH244124   6.261   3.472   0.334 -0.0384  0.4165 -0.2777
 7570TIP3    H144125   6.194   3.459   0.401 -0.4631  1.2096 -0.5375
 7570TIP3    H244126   6.318   3.539   0.370 -1.0200  1.8141 -1.2351
 7571TIP3   OH244127   0.341   6.568   5.459  0.4210 -0.1690 -0.0231
 7571TIP3    H144128   0.371   6.478   5.446 -0.7911 -0.6644  0.4046
 7571TIP3    H244129   0.340   6.578   5.555  1.1121  0.5078 -0.0816
 7572TIP3   OH244130   3.156   1.525   5.632  0.1243  0.2328  0.4843
 7572TIP3    H144131   3.097   1.451   5.647  0.5074 -0.3019 -0.5148
 7572TIP3    H244132   3.117   1.572   5.557  1.5335 -0.8050 -0.9754
 7573TIP3   OH244133   4.017   1.669   0.097 -0.2947  0.6644 -0.2574
 7573TIP3    H144134   4.092   1.716   0.135  0.4446  0.3871 -1.3228
 7573TIP3    H244135   3.955   1.661   0.169  0.2881  1.7598  0.4040
 7574TIP3   OH244136   3.780   5.332   3.969 -0.0793 -0.1112  0.5796
 7574TIP3    H144137   3.699   5.339   4.020 -0.1644  1.0367  0.3228
 7574TIP3    H244138   3.791   5.238   3.955 -0.8991 -0.3479  1.3552
 7575TIP3   OH244139   0.213   2.145   2.103 -0.3082  0.5583  1.0585
 7575TIP3    H144140   0.207   2.111   2.192  0.4173  0.0457  0.9277
 7575TIP3    H244141   0.133   2.195   2.090 -0.5362  0.4244  1.9092
 7576TIP3   OH244142   4.843   5.586  12.556 -0.0055  0.0284 -0.5779
 7576TIP3    H144143   4.803   5.582  12.469  0.0601  2.2418 -0.7547
 7576TIP3    H244144   4.927   5.630  12.541 -0.8304  2.2136  0.8361
 7577TIP3   OH244145   0.393   4.548  16.733 -0.4567  0.5794  0.6420
 7577TIP3    H144146   0.341   4.559  16.653  0.5729 -0.8516 -0.2852
 7577TIP3    H244147   0.473   4.599  16.717  0.0323 -0.2243  0.4618
 7578TIP3   OH244148   2.997   0.208  16.256  0.4998 -0.4972  0.0757
 7578TIP3    H144149   2.956   0.199  16.342  0.0742 -0.6095 -0.1362
 7578TIP3    H244150   3.016   0.118  16.229 -0.6526 -0.5661 -0.5589
 7579TIP3   OH244151   2.105   6.244  15.068 -0.2837  0.0518 -0.4350
 7579TIP3    H144152   2.172   6.182  15.098 -0.9209 -0.6718 -0.4852
 7579TIP3    H244153   2.033   6.234  15.129  0.6783  2.8630  1.3292
 7580TIP3   OH244154   2.353   0.263   0.344 -0.2357  0.6329 -0.4794
 7580TIP3    H144155   2.296   0.186   0.338  0.9710 -0.5329  1.9460
 7580TIP3    H244156   2.293   0.336   0.358 -1.3935  0.2069 -2.6993
 7581TIP3   OH244157   3.663   3.174   2.557 -0.0260  0.6859 -0.5097
 7581TIP3    H144158   3.584   3.223   2.535 -1.3304 -0.9636  0.2498
 7581TIP3    H244159   3.694   3.141   2.472 -0.9114  0.3070 -0.7099
 7582TIP3   OH244160   4.940   0.456  11.683 -0.2146 -0.2303 -0.1915
 7582TIP3    H144161   5.033   0.478  11.682 -0.2011 -0.2943 -0.4386
 7582TIP3    H244162   4.925   0.415  11.598 -0.5442  0.0950 -0.2895
 7583TIP3   OH244163   2.304   2.787  16.166  0.5713  0.5071  0.2013
 7583TIP3    H144164   2.297   2.728  16.091  2.0985 -0.5148  0.8163
 7583TIP3    H244165   2.296   2.875  16.128 -1.8215 -0.0513 -0.7207
 7584TIP3   OH244166   6.766   3.774  15.882 -0.2082  0.8386 -0.3029
 7584TIP3    H144167   6.807   3.783  15.968  2.7536 -0.3337 -1.4813
 7584TIP3    H244168   6.714   3.694  15.889  0.1615  0.6467  0.3320
 7585TIP3   OH244169   5.677   1.633   5.436 -1.1796  0.4174  0.1293
 7585TIP3    H144170   5.678   1.722   5.471  0.0237  0.1530  0.8212
 7585TIP3    H244171   5.634   1.641   5.351  0.1431  1.9121 -0.4474
 7586TIP3   OH244172   6.467   6.277  11.614  0.5587  0.0923  0.2386
 7586TIP3    H144173   6.475   6.197  11.666  2.7211  0.0139 -0.0845
 7586TIP3    H244174   6.554   6.288  11.574 -0.2157  1.6404 -1.1492
 7587TIP3   OH244175   1.165   0.418   0.993 -0.2070  0.1122  0.4180
 7587TIP3    H144176   1.224   0.367   1.049  0.3269 -0.7589 -0.8810
 7587TIP3    H244177   1.217   0.495   0.967  0.2750 -0.4984 -0.4754
 7588TIP3   OH244178   5.111   2.344  14.311 -0.6079 -0.4762 -0.2052
 7588TIP3    H144179   5.123   2.341  14.406 -1.5842  0.2626 -0.0473
 7588TIP3    H244180   5.197   2.321  14.276  0.1570  0.6235  0.8674
 7589TIP3   OH244181   3.059   4.454   3.333  0.2731 -0.4332 -0.1783
 7589TIP3    H144182   2.984   4.398   3.311  1.1500 -1.3448 -0.9076
 7589TIP3    H244183   3.097   4.413   3.411 -0.2728  0.3311  0.5106
 7590TIP3   OH244184   4.398   1.767  13.312 -0.1351 -0.3558  0.8303
 7590TIP3    H144185   4.316   1.761  13.361  0.4048 -0.4251  1.7281
 7590TIP3    H244186   4.374   1.738  13.223 -0.8831 -1.2543  1.3026
 7591TIP3   OH244187   3.758   4.638  12.020  0.5290 -0.3776 -0.1557
 7591TIP3    H144188   3.845   4.635  11.980  0.1327  1.3084 -1.2503
 7591TIP3    H244189   3.711   4.566  11.978  0.3820  0.8392 -2.2143
 7592TIP3   OH244190   6.209   1.098  16.435  0.5828  0.0982 -0.3443
 7592TIP3    H144191   6.255   1.014  16.437  1.7409  0.6936 -1.3120
 7592TIP3    H244192   6.117   1.074  16.423  1.0605 -0.9968 -2.0484
 7593TIP3   OH244193   2.279   0.074  13.591 -0.5044 -0.7499  0.8213
 7593TIP3    H144194   2.285  -0.014  13.629  2.7200 -0.5144  1.1603
 7593TIP3    H244195   2.249   0.129  13.663  3.3230 -0.6899  2.6194
 7594TIP3   OH244196   1.598   4.632  15.984 -0.1390  0.1077  0.2141
 7594TIP3    H144197   1.540   4.563  15.952  0.1253 -0.6366  1.2838
 7594TIP3    H244198   1.611   4.689  15.909  0.7162 -1.7504 -1.1238
 7595TIP3   OH244199   1.392   5.357  16.566  0.4251 -0.2636 -0.1437
 7595TIP3    H144200   1.438   5.366  16.483 -0.7085  0.7460 -0.7028
 7595TIP3    H244201   1.321   5.295  16.547 -0.1521  0.3731 -0.0827
 7596TIP3   OH244202   3.543   1.012   0.521 -0.1074 -0.1639  0.7153
 7596TIP3    H144203   3.569   1.102   0.507 -0.4358 -0.1997 -0.1733
 7596TIP3    H244204   3.622   0.961   0.504 -0.3051 -0.1488 -0.2980
 7597TIP3   OH244205   4.460   3.062   4.949  0.1831 -0.5951  0.8183
 7597TIP3    H144206   4.504   3.143   4.976 -2.2102  1.5956 -1.2909
 7597TIP3    H244207   4.397   3.045   5.020 -1.3970  1.2522 -0.0331
 7598TIP3   OH244208   1.499   6.596  11.959 -0.2588  0.6459 -0.3684
 7598TIP3    H144209   1.526   6.511  11.923  1.3934  0.3341  1.4414
 7598TIP3    H244210   1.415   6.614  11.917  0.7477 -0.4239 -3.0815
 7599TIP3   OH244211   0.321   1.378  17.090  0.4008 -0.5113 -0.7280
 7599TIP3    H144212   0.410   1.411  17.098  0.0647  0.7873 -1.9135
 7599TIP3    H244213   0.320   1.297  17.141  1.8660  0.1730  0.4343
 7600TIP3   OH244214   6.398   0.254   1.482  0.0677  0.5652 -0.0673
 7600TIP3    H144215   6.449   0.312   1.424  0.3586  1.3662  0.9659
 7600TIP3    H244216   6.461   0.190   1.514  0.3888  1.4039  1.0127
 7601TIP3   OH244217   6.403   2.868   5.192  0.4877 -0.7876 -0.5839
 7601TIP3    H144218   6.315   2.906   5.201  0.6587 -0.6226  0.6902
 7601TIP3    H244219   6.440   2.909   5.114 -0.0607  0.1856 -0.3457
 7602TIP3   OH244220   0.861   1.612  15.484 -0.4232 -0.7758  0.0534
 7602TIP3    H144221   0.904   1.665  15.551 -0.2897  0.0395 -0.6592
 7602TIP3    H244222   0.898   1.644  15.402 -2.7901  0.3627 -0.6384
 7603TIP3   OH244223   6.512   4.738  12.837 -0.7351  0.7766 -0.0632
 7603TIP3    H144224   6.603   4.742  12.810  0.2298  1.0116  2.8388
 7603TIP3    H244225   6.486   4.829  12.850 -0.7942  0.6383  0.8332
 7604TIP3   OH244226   1.229   4.144  15.699  0.5385 -0.1722 -0.0756
 7604TIP3    H144227   1.317   4.160  15.734  0.2814 -0.9648  0.9996
 7604TIP3    H244228   1.210   4.222  15.647  0.9786  1.0905  1.5401
 7605TIP3   OH244229   3.895   2.469  13.815  0.4366 -0.1981  0.5932
 7605TIP3    H144230   3.952   2.544  13.797 -0.5456 -0.0394 -2.4755
 7605TIP3    H244231   3.841   2.460  13.736 -0.2055 -3.5134  1.2409
 7606TIP3   OH244232   4.722   2.868  16.662 -0.0145 -0.1595 -0.5039
 7606TIP3    H144233   4.679   2.914  16.734 -1.4634 -0.2615 -1.2628
 7606TIP3    H244234   4.720   2.776  16.688 -1.5700 -0.3338 -1.1381
 7607TIP3   OH244235   1.060   6.458   5.532  0.6459  0.0399  0.3918
 7607TIP3    H144236   1.076   6.459   5.626  0.3776  1.3393  0.4531
 7607TIP3    H244237   1.030   6.547   5.512 -1.6780 -0.8453 -0.5107
 7608TIP3   OH244238   4.901   5.756   1.751  0.7401  0.2794  0.2220
 7608TIP3    H144239   4.927   5.720   1.667 -0.1685  2.0200 -0.8541
 7608TIP3    H244240   4.806   5.769   1.744  1.0424  3.4415  0.2026
 7609TIP3   OH244241   0.760   3.616  13.549  0.0922  0.5277  0.5233
 7609TIP3    H144242   0.741   3.534  13.594 -2.7158  1.4308  1.1881
 7609TIP3    H244243   0.825   3.659  13.605 -0.6499  0.0442  1.8033
 7610TIP3   OH244244   5.197   3.340  13.990  0.2405 -0.0251  0.0724
 7610TIP3    H144245   5.263   3.289  14.038  0.5286  0.6027  0.3658
 7610TIP3    H244246   5.155   3.393  14.058  0.8919  1.1330 -0.3978
 7611TIP3   OH244247   5.853   0.141  12.599  0.2445 -0.0771 -0.0057
 7611TIP3    H144248   5.846   0.230  12.632 -0.0932 -0.1434  0.1121
 7611TIP3    H244249   5.901   0.149  12.517 -1.4806  0.4777 -1.0131
 7612TIP3   OH244250   2.727   1.347   3.361 -0.0348 -0.3508  0.1063
 7612TIP3    H144251   2.660   1.279   3.371 -1.8255  0.9332 -2.1597
 7612TIP3    H244252   2.713   1.406   3.435 -0.5214 -0.8050  0.3855
 7613TIP3   OH244253   4.608   4.893   5.288  0.4532 -0.2065 -0.3191
 7613TIP3    H144254   4.699   4.866   5.298  0.4445  0.3956  2.4212
 7613TIP3    H244255   4.575   4.897   5.378 -1.8951  0.8921 -1.1433
 7614TIP3   OH244256   5.442   4.107  16.706 -0.1787 -0.0188 -0.4832
 7614TIP3    H144257   5.449   4.012  16.692 -0.4492 -0.0267 -0.5604
 7614TIP3    H244258   5.485   4.121  16.790 -0.0379 -0.1945 -0.5239
 7615TIP3   OH244259   3.432   1.567   6.125 -0.6846  0.2301  0.2797
 7615TIP3    H144260   3.402   1.588   6.214  2.2906 -1.8338  1.9538
 7615TIP3    H244261   3.416   1.473   6.117  0.0503  0.1969 -0.9754
 7616TIP3   OH244262   3.011   4.695   0.791  0.1390  0.0957 -0.3909
 7616TIP3    H144263   2.997   4.779   0.835 -1.5587 -0.3257 -0.0636
 7616TIP3    H244264   3.074   4.649   0.846  0.4369  0.8239 -0.1179
 7617TIP3   OH244265   1.949   2.149   3.111  0.0470 -0.2819 -0.2168
 7617TIP3    H144266   2.027   2.121   3.158  0.7470  2.6219  0.5501
 7617TIP3    H244267   1.878   2.099   3.150  1.2925 -1.7054  0.2926
 7618TIP3   OH244268   2.501   1.073   1.208 -0.0505  0.2626  0.1834
 7618TIP3    H144269   2.526   1.108   1.294  0.9504  1.0780 -0.4170
 7618TIP3    H244270   2.460   0.989   1.228 -0.1620  0.5931  1.4865
 7619TIP3   OH244271   0.450   2.749  15.821  0.5070  0.5171  0.6226
 7619TIP3    H144272   0.450   2.801  15.902  0.0714  0.7014  0.5017
 7619TIP3    H244273   0.460   2.813  15.751 -0.4185  0.4837  0.4483
 7620TIP3   OH244274   3.043   3.614  12.929 -0.3534 -0.2781 -0.3611
 7620TIP3    H144275   2.967   3.620  12.987  0.6593  0.3372  0.9627
 7620TIP3    H244276   3.098   3.547  12.969  0.0440 -0.3501 -1.0172
 7621TIP3   OH244277   0.852   6.262   0.780 -0.1416 -0.4619  0.1619
 7621TIP3    H144278   0.885   6.203   0.848  0.6765  0.6844  0.8054
 7621TIP3    H244279   0.783   6.312   0.823  0.0231 -0.0955  0.0107
 7622TIP3   OH244280   2.656   4.571  13.216 -0.2276 -0.1252 -0.2617
 7622TIP3    H144281   2.670   4.661  13.186  0.3727  0.1596  0.8343
 7622TIP3    H244282   2.585   4.538  13.160 -0.0030  0.8022 -1.1128
 7623TIP3   OH244283   1.458   6.505  13.364 -0.1513  0.1288  0.2763
 7623TIP3    H144284   1.398   6.579  13.353 -0.2493  0.2802  1.6583
 7623TIP3    H244285   1.495   6.517  13.451  0.4057 -1.0499  0.2177
 7624TIP3   OH244286   3.724   4.940   1.978 -0.2639  0.0933 -0.0513
 7624TIP3    H144287   3.807   4.893   1.969  0.5013  1.2211  0.8064
 7624TIP3    H244288   3.678   4.924   1.896  1.1042  0.0190 -0.8198
 7625TIP3   OH244289   3.791   5.585  13.952 -0.3736 -0.2811 -0.1902
 7625TIP3    H144290   3.778   5.567  13.859 -0.3714  0.4493 -0.3436
 7625TIP3    H244291   3.792   5.681  13.958 -0.6623 -0.3109  0.6014
 7626TIP3   OH244292   6.323   5.487  15.027 -0.0094  0.1173 -0.2562
 7626TIP3    H144293   6.365   5.427  14.965  0.4029 -2.9384  2.7045
 7626TIP3    H244294   6.375   5.567  15.021  1.4623 -0.8872 -2.0955
 7627TIP3   OH244295   1.123   6.163   0.046  0.0383 -0.0744 -0.0355
 7627TIP3    H144296   1.098   6.243   0.092  0.7819 -0.4865  1.1199
 7627TIP3    H244297   1.218   6.170   0.035  0.0116 -0.4901 -0.5371
 7628TIP3   OH244298   4.068   0.478   2.451 -1.0920  0.2198 -0.1044
 7628TIP3    H144299   4.098   0.411   2.390  0.0406 -1.0973  1.7561
 7628TIP3    H244300   4.088   0.561   2.408 -1.6691 -0.6340 -2.0841
 7629TIP3   OH244301   1.037   5.607  16.997  0.0603 -0.2938  0.0255
 7629TIP3    H144302   0.985   5.686  16.980  1.5714  1.0665  1.4123
 7629TIP3    H244303   0.987   5.560  17.064 -0.0142  0.3460  0.4239
 7630TIP3   OH244304   2.685   4.012  15.234 -0.0373 -0.2323  0.4478
 7630TIP3    H144305   2.641   3.928  15.247 -0.4224 -0.3459 -1.3210
 7630TIP3    H244306   2.629   4.058  15.171  2.3825 -0.4599 -2.0546
 7631TIP3   OH244307   2.310   6.266  10.806  0.1261  0.0384 -0.2511
 7631TIP3    H144308   2.318   6.356  10.836 -1.4341 -0.7697  3.0482
 7631TIP3    H244309   2.221   6.261  10.770  0.1871 -0.2098 -0.3687
 7632TIP3   OH244310   4.809   4.407  14.439 -0.2402  0.1478  0.3787
 7632TIP3    H144311   4.737   4.347  14.426  0.2614 -0.8209  1.8275
 7632TIP3    H244312   4.870   4.360  14.497  1.1375  1.2572 -0.1057
 7633TIP3   OH244313   5.825   3.343   4.117 -0.5583  0.0658  0.2243
 7633TIP3    H144314   5.878   3.420   4.101 -0.9364 -0.0521 -1.8620
 7633TIP3    H244315   5.888   3.271   4.120 -0.4088  0.1728 -0.2372
 7634TIP3   OH244316   5.137   2.509   2.422 -0.4272 -0.2018 -0.0074
 7634TIP3    H144317   5.157   2.603   2.431  0.4964 -0.1950 -1.7790
 7634TIP3    H244318   5.057   2.506   2.371 -0.3484 -0.3834 -0.1189
 7635TIP3   OH244319   5.133   5.919   3.157  0.4133  0.5332 -0.5193
 7635TIP3    H144320   5.115   5.907   3.251  0.8654  0.2544 -0.4682
 7635TIP3    H244321   5.154   5.831   3.126  2.3157  0.9385 -0.4481
 7636TIP3   OH244322   2.448   5.944   5.227  0.6202  0.0121  0.0956
 7636TIP3    H144323   2.460   6.027   5.182  1.0177 -0.1592 -0.1198
 7636TIP3    H244324   2.530   5.896   5.212  1.3680  0.5167  2.1732
 7637TIP3   OH244325   6.019   2.862   4.396  0.4345 -0.2665  0.2629
 7637TIP3    H144326   6.002   2.884   4.487  1.8390  2.7312 -0.0567
 7637TIP3    H244327   6.099   2.808   4.399  1.0949  0.7111  0.7846
 7638TIP3   OH244328   5.984   4.051   5.158 -0.5190 -0.7898 -0.6939
 7638TIP3    H144329   5.991   3.958   5.179  0.1443 -0.7209 -0.5814
 7638TIP3    H244330   5.981   4.054   5.063  1.2036 -0.8411 -0.7819
 7639TIP3   OH244331   1.899   0.317   4.105  0.0828 -0.7310 -0.3109
 7639TIP3    H144332   1.983   0.335   4.149  0.3870 -2.2704 -0.2068
 7639TIP3    H244333   1.919   0.325   4.012  0.0557  0.0418 -0.2557
 7640TIP3   OH244334   1.468   4.908   2.392  0.0217  0.2341 -0.6518
 7640TIP3    H144335   1.505   4.878   2.309  1.3089 -0.8868  0.2927
 7640TIP3    H244336   1.397   4.847   2.410 -0.9555  1.1026 -1.4020
 7641TIP3   OH244337   2.018   0.284   3.248  0.4485  0.5941 -0.0466
 7641TIP3    H144338   2.110   0.310   3.241  0.8380 -0.9308 -1.1142
 7641TIP3    H244339   1.994   0.257   3.160 -1.5138  2.3538 -0.1417
 7642TIP3   OH244340   2.068   0.239  12.712  0.2684  0.0029  0.2041
 7642TIP3    H144341   2.004   0.170  12.727  1.6788 -1.2120  0.9598
 7642TIP3    H244342   2.016   0.316  12.686 -1.2359 -1.9269 -3.1840
 7643TIP3   OH244343   5.416   2.666   4.039  0.1667 -0.3850  0.7349
 7643TIP3    H144344   5.504   2.701   4.048  0.6775 -1.5672  0.6112
 7643TIP3    H244345   5.385   2.700   3.955  1.4104 -1.7474 -0.3345
 7644TIP3   OH244346   6.049   3.820  16.829  0.7464  0.1639  0.1739
 7644TIP3    H144347   6.039   3.790  16.920  0.6103 -0.7220 -0.1214
 7644TIP3    H244348   6.144   3.818  16.814  0.8272  1.0016  0.5108
 7645TIP3   OH244349   2.122   5.033  12.901  0.5684 -0.3399 -0.0991
 7645TIP3    H144350   2.120   5.035  12.997  0.3514 -0.1654 -0.1063
 7645TIP3    H244351   2.029   5.035  12.876  0.6267 -0.3586 -0.3142
 7646TIP3   OH244352   2.125   5.750   2.401  0.1931 -0.3301 -0.2628
 7646TIP3    H144353   2.123   5.809   2.326 -2.7141 -0.5952 -0.5383
 7646TIP3    H244354   2.136   5.808   2.477 -1.1100  0.4621 -0.6405
 7647TIP3   OH244355   2.103   3.510  13.691  0.4766 -0.1303  0.2649
 7647TIP3    H144356   2.197   3.517  13.704  0.3472  0.1449  1.0977
 7647TIP3    H244357   2.066   3.579  13.746 -0.0937  1.3189 -1.7982
 7648TIP3   OH244358   4.598   2.294  11.974  0.5570  0.2405 -0.2653
 7648TIP3    H144359   4.689   2.312  11.997  0.7989 -1.0695 -0.1281
 7648TIP3    H244360   4.602   2.254  11.887 -0.0036  1.3167 -0.8079
 7649TIP3   OH244361   5.895   0.790  13.194 -0.0014  0.1368  0.0590
 7649TIP3    H144362   5.915   0.841  13.273  0.0635  0.9854 -0.4856
 7649TIP3    H244363   5.808   0.755  13.209 -0.5550  1.4083 -0.0228
 7650TIP3   OH244364   0.167   1.779   3.276 -0.2917  0.1022 -0.6200
 7650TIP3    H144365   0.185   1.840   3.205 -2.8995  0.9707 -0.6534
 7650TIP3    H244366   0.177   1.692   3.236  0.3561  0.5408 -1.4396
 7651TIP3   OH244367   0.678   4.286   3.117 -0.4152  0.6309  0.4661
 7651TIP3    H144368   0.688   4.354   3.051  0.3520  0.1384  0.0599
 7651TIP3    H244369   0.752   4.300   3.176  0.0298 -0.1377  0.1077
 7652TIP3   OH244370   5.758   1.764  16.925 -0.0168 -0.2713  0.3045
 7652TIP3    H144371   5.779   1.844  16.877 -1.5095  0.5888  0.9971
 7652TIP3    H244372   5.692   1.720  16.871 -0.5144 -0.1106  0.7707
 7653TIP3   OH244373   5.504   6.181   0.369  0.3593  0.0754 -0.2149
 7653TIP3    H144374   5.452   6.203   0.446 -0.4460  0.5448 -0.8745
 7653TIP3    H244375   5.565   6.114   0.400 -0.0095  0.1888  0.8054
 7654TIP3   OH244376   3.237   1.884   1.914 -0.5005  0.2341  0.4977
 7654TIP3    H144377   3.270   1.794   1.912 -0.3506  0.2897 -0.8144
 7654TIP3    H244378   3.192   1.892   1.997  0.2799 -0.7706  1.0391
 7655TIP3   OH244379   0.463   5.149  15.653  0.1496 -0.3123  0.2799
 7655TIP3    H144380   0.486   5.242  15.648  1.6692 -0.6686  0.1713
 7655TIP3    H244381   0.368   5.147  15.638  0.0511  1.2310  0.5140
 7656TIP3   OH244382   0.728   3.605  13.854 -0.8358  0.4481 -0.3297
 7656TIP3    H144383   0.665   3.607  13.926 -0.0859 -2.1252  0.5466
 7656TIP3    H244384   0.690   3.544  13.790 -0.1865  0.4642 -0.7419
 7657TIP3   OH244385   1.795   5.163   3.335 -0.2451 -0.4785  0.0854
 7657TIP3    H144386   1.704   5.177   3.310 -0.1443 -0.9090 -0.5378
 7657TIP3    H244387   1.810   5.225   3.407 -0.1901  1.7055 -1.7055
 7658TIP3   OH244388   2.787   6.752   1.391 -0.4108 -0.2355 -0.1881
 7658TIP3    H144389   2.823   6.758   1.479 -1.3464  1.2889  0.1230
 7658TIP3    H244390   2.711   6.696   1.400  0.4222 -1.4299 -0.3699
 7659TIP3   OH244391   0.975   1.499  15.843  0.0543 -0.4872  0.5049
 7659TIP3    H144392   1.021   1.466  15.766  1.3994 -0.1316  1.1414
 7659TIP3    H244393   1.000   1.591  15.849 -0.9268 -0.2186  0.7495
 7660TIP3   OH244394   1.307   5.341   5.162  0.2753 -0.0012 -0.2258
 7660TIP3    H144395   1.299   5.391   5.243 -0.0455  0.8970 -0.7963
 7660TIP3    H244396   1.326   5.252   5.190 -0.2575  0.2141  0.8509
 7661TIP3   OH244397   3.020   0.157   1.607 -0.3015 -0.5499  0.5941
 7661TIP3    H144398   3.093   0.157   1.669  0.7576  0.4957 -0.5892
 7661TIP3    H244399   3.059   0.132   1.524 -0.8073  2.0821 -0.5387
 7662TIP3   OH244400   5.831   4.117   3.865 -0.2255 -0.2408 -0.3403
 7662TIP3    H144401   5.866   4.072   3.941 -2.2141  0.5108  1.1138
 7662TIP3    H244402   5.819   4.049   3.799  1.6400 -0.8804 -0.0626
 7663TIP3   OH244403   4.498   2.664  12.001 -0.2906 -0.0901  0.2451
 7663TIP3    H144404   4.550   2.630  11.929  1.1619  1.9968  0.2322
 7663TIP3    H244405   4.501   2.596  12.068  0.7398 -0.8501 -0.5578
 7664TIP3   OH244406   1.652   5.655   2.844 -0.0239 -0.3472  0.0132
 7664TIP3    H144407   1.741   5.683   2.864  1.1121 -3.7364  0.2338
 7664TIP3    H244408   1.644   5.670   2.749  0.2733  1.1342  0.1929
 7665TIP3   OH244409   6.036   5.186   5.055  0.1398  0.2102  0.0240
 7665TIP3    H144410   6.101   5.145   4.997  1.0712  0.4175  0.8957
 7665TIP3    H244411   6.080   5.263   5.090 -0.5818  0.3634  0.6224
 7666TIP3   OH244412   6.454   6.064  11.777  0.1652 -0.7624  0.7441
 7666TIP3    H144413   6.508   6.016  11.839  0.8747 -2.1512 -0.8719
 7666TIP3    H244414   6.365   6.057  11.813  0.8080  0.5637  2.8193
 7667TIP3   OH244415   6.671   2.056   3.838 -0.0649  0.3402 -0.2486
 7667TIP3    H144416   6.609   1.984   3.851  0.8593 -0.8213 -1.8737
 7667TIP3    H244417   6.757   2.015   3.836  0.9620  2.0321  2.8512
 7668TIP3   OH244418   2.072   0.220  14.558 -0.0209  0.0704 -0.0252
 7668TIP3    H144419   1.982   0.225  14.526  0.2757  0.5628 -0.7949
 7668TIP3    H244420   2.090   0.126  14.562 -0.4339 -0.0204 -0.2456
 7669TIP3   OH244421   2.380   3.613   1.484 -0.2418 -0.0775 -0.1183
 7669TIP3    H144422   2.323   3.605   1.408 -0.0866 -0.1751 -0.2256
 7669TIP3    H244423   2.423   3.528   1.492  1.7603  0.7070 -1.5507
 7670TIP3   OH244424   4.864   5.687  16.149 -0.0965 -0.6749 -0.0169
 7670TIP3    H144425   4.939   5.748  16.146  0.4333 -1.1023  2.4979
 7670TIP3    H244426   4.792   5.739  16.184  0.1910 -1.2712  1.5471
 7671TIP3   OH244427   0.206   0.900   3.711  0.6265  0.2655  0.0062
 7671TIP3    H144428   0.150   0.914   3.788 -1.5804 -1.5385 -1.1463
 7671TIP3    H244429   0.293   0.926   3.740 -0.5490  1.9518  2.3364
 7672TIP3   OH244430   3.607   6.274   5.106  0.3695 -0.2189 -0.0128
 7672TIP3    H144431   3.691   6.314   5.083  0.7660 -1.6475 -1.1634
 7672TIP3    H244432   3.624   6.228   5.188 -0.2517  2.3283  1.6890
 7673TIP3   OH244433   1.852   5.590  13.323 -0.5168 -0.4276 -0.1853
 7673TIP3    H144434   1.828   5.564  13.234 -1.3633  1.0180 -0.4240
 7673TIP3    H244435   1.770   5.582  13.373 -0.9341  1.9550 -0.3619
 7674TIP3   OH244436   2.950   2.036   5.015 -0.5297  0.0970 -0.4288
 7674TIP3    H144437   2.982   2.122   5.040 -0.9958  0.3416 -0.6576
 7674TIP3    H244438   2.993   2.017   4.932 -0.4515  0.1229 -0.3938
 7675TIP3   OH244439   2.969   2.981  14.897 -0.3279 -0.0241  0.1661
 7675TIP3    H144440   2.958   2.934  14.979  0.4902  0.3441  0.4974
 7675TIP3    H244441   2.888   3.031  14.887 -1.1190 -1.3115 -0.0889
 7676TIP3   OH244442   6.730   5.802  12.523  0.4940 -0.4186  0.7609
 7676TIP3    H144443   6.704   5.766  12.608 -1.2640 -0.6425  0.1753
 7676TIP3    H244444   6.690   5.889  12.520  2.1527  0.3841  0.9164
 7677TIP3   OH244445   1.559   5.826   4.493 -0.6370 -0.2028 -0.1229
 7677TIP3    H144446   1.607   5.749   4.522 -1.0715 -0.3234  0.2944
 7677TIP3    H244447   1.616   5.900   4.513 -0.4406 -0.3781 -0.0413
 7678TIP3   OH244448   5.389   1.450   4.055 -0.1251 -0.4712 -0.5076
 7678TIP3    H144449   5.423   1.538   4.073  0.9261 -0.5949 -1.7559
 7678TIP3    H244450   5.378   1.448   3.960 -3.5083 -0.5182 -0.2382
 7679TIP3   OH244451   0.054   1.873  12.496  0.3537  0.1933  0.0923
 7679TIP3    H144452   0.017   1.903  12.413 -0.2813  1.5031  0.8313
 7679TIP3    H244453   0.025   1.782  12.504 -0.7429  0.4852 -0.4608
 7680TIP3   OH244454   3.222   0.243  16.509 -0.3634 -0.1372 -0.4323
 7680TIP3    H144455   3.193   0.164  16.555 -0.4334 -0.0924 -0.3996
 7680TIP3    H244456   3.263   0.211  16.429  1.2901 -0.3298  0.4468
 7681TIP3   OH244457   1.561   1.284   6.474  0.3779 -1.1627  0.1722
 7681TIP3    H144458   1.631   1.239   6.428  1.1987 -0.4072  0.6582
 7681TIP3    H244459   1.527   1.218   6.536  0.6735 -1.5203 -0.0425
 7682TIP3   OH244460   5.611   3.650  11.108 -0.0646  0.4441 -0.6368
 7682TIP3    H144461   5.652   3.670  11.024  1.3321  0.0393 -0.0745
 7682TIP3    H244462   5.614   3.554  11.114 -0.3189  0.4617 -0.2073
 7683TIP3   OH244463   4.701   0.044  13.321 -0.1423 -0.0401  0.3174
 7683TIP3    H144464   4.642  -0.023  13.288 -0.3530 -0.5378  1.6408
 7683TIP3    H244465   4.677   0.054  13.413  1.1245  0.5151  0.6109
 7684TIP3   OH244466   1.544   6.251   0.275  0.2888  0.8270 -0.4834
 7684TIP3    H144467   1.560   6.331   0.225 -2.1653  0.2184 -2.4395
 7684TIP3    H244468   1.470   6.271   0.331 -0.2991 -0.0238 -0.9288
 7685TIP3   OH244469   5.235   5.101   3.634  0.9409 -0.5540  0.2489
 7685TIP3    H144470   5.283   5.175   3.598 -0.4515  0.9090  1.2839
 7685TIP3    H244471   5.243   5.110   3.728  1.1405 -2.0054  0.3938
 7686TIP3   OH244472   2.790   0.705  15.768 -0.5374  0.1849 -0.1194
 7686TIP3    H144473   2.784   0.625  15.716  0.9826  0.7882 -1.2891
 7686TIP3    H244474   2.736   0.768  15.720  0.7219  0.6913 -0.9257
 7687TIP3   OH244475   1.674   4.619  15.441  0.6258  0.0800  0.1528
 7687TIP3    H144476   1.694   4.637  15.349  0.3763 -2.3301 -0.4350
 7687TIP3    H244477   1.623   4.538  15.440  1.6089 -0.6852  2.4756
 7688TIP3   OH244478   6.476   1.926  14.469  0.2816 -0.4372 -0.5682
 7688TIP3    H144479   6.529   1.926  14.549 -1.5821  0.8391  0.7716
 7688TIP3    H244480   6.505   1.850  14.420  2.7403 -0.2434  0.4684
 7689TIP3   OH244481   0.963   1.770  15.259  0.1215  0.1421  0.3418
 7689TIP3    H144482   1.041   1.750  15.207  0.1355 -0.8151  0.7239
 7689TIP3    H244483   0.990   1.845  15.313  0.4331  0.4869 -0.2761
 7690TIP3   OH244484   0.553   1.320  15.234 -0.0985 -0.2235 -0.4710
 7690TIP3    H144485   0.628   1.328  15.293  3.8274 -1.3894 -4.6871
 7690TIP3    H244486   0.527   1.228  15.241  0.7970 -0.5263 -0.9225
 7691TIP3   OH244487   2.575   6.097   2.538  0.2592 -0.3055 -0.2885
 7691TIP3    H144488   2.650   6.054   2.496  1.0512  0.4732  0.3031
 7691TIP3    H244489   2.578   6.187   2.506  0.9859  0.3629  1.5295
 7692TIP3   OH244490   6.074   5.314   1.174  0.3065 -0.3840  0.5104
 7692TIP3    H144491   6.064   5.318   1.270  1.3382  0.4687  0.6028
 7692TIP3    H244492   6.132   5.387   1.153  1.7745 -1.7905 -0.5375
 7693TIP3   OH244493   3.999   3.933  14.539 -0.3569  0.1352 -0.1731
 7693TIP3    H144494   4.031   3.850  14.506 -2.1580 -0.4815 -0.4886
 7693TIP3    H244495   3.947   3.969  14.467 -1.3100  0.5220  0.6806
 7694TIP3   OH244496   3.352   2.237  12.628 -0.3828  0.2131  0.5678
 7694TIP3    H144497   3.435   2.208  12.665  0.0676  1.4555  0.5787
 7694TIP3    H244498   3.287   2.179  12.666  0.2307  0.5580  2.2235
 7695TIP3   OH244499   3.379   1.675   3.981  0.1593 -0.3612 -0.4675
 7695TIP3    H144500   3.332   1.621   4.046  2.9316 -2.0830  0.3017
 7695TIP3    H244501   3.341   1.762   3.990 -0.6986 -0.9206  2.3569
 7696TIP3   OH244502   1.743   6.715  14.415 -0.4199  0.1848 -0.0966
 7696TIP3    H144503   1.691   6.701  14.336 -2.1885  1.1670  0.8418
 7696TIP3    H244504   1.746   6.628  14.457 -0.6972 -0.0365 -0.5250
 7697TIP3   OH244505   1.314   3.733   4.738 -0.2167  0.4126 -0.3540
 7697TIP3    H144506   1.252   3.669   4.704  1.3543 -1.5621  0.2519
 7697TIP3    H244507   1.262   3.790   4.794 -1.8294  0.2509 -1.6005
 7698TIP3   OH244508   0.839   2.189   0.226 -0.3706 -0.0159 -0.1612
 7698TIP3    H144509   0.813   2.164   0.137  1.1066 -2.2154 -0.0378
 7698TIP3    H244510   0.915   2.245   0.214  0.5796 -1.2958 -0.2978
 7699TIP3   OH244511   4.758   2.361  17.178 -0.7148  0.4788  0.5271
 7699TIP3    H144512   4.726   2.322  17.097  0.0676 -0.2303  0.5463
 7699TIP3    H244513   4.698   2.329  17.245 -1.5455  1.3085  0.2016
 7700TIP3   OH244514   5.247   0.450  13.187 -0.1277 -0.0246 -0.1250
 7700TIP3    H144515   5.291   0.416  13.264 -0.1138  0.4330  0.0724
 7700TIP3    H244516   5.219   0.539  13.212 -2.0019 -0.6252  0.0831
 7701TIP3   OH244517   1.859   0.450   0.683 -0.1007 -0.3002 -0.4308
 7701TIP3    H144518   1.932   0.452   0.745 -0.9382  0.3290  0.5673
 7701TIP3    H244519   1.901   0.456   0.597  1.2093 -2.7323 -0.0697
 7702TIP3   OH244520   0.710   1.981  14.965 -0.3304 -0.4096  0.7319
 7702TIP3    H144521   0.803   1.997  14.951 -0.8043  0.3914 -2.0117
 7702TIP3    H244522   0.696   1.890  14.938 -0.3402 -0.6284  1.4279
 7703TIP3   OH244523   5.697   3.022   1.859  0.0267  0.2385 -0.0323
 7703TIP3    H144524   5.613   3.068   1.865 -0.0038  0.0223  1.3530
 7703TIP3    H244525   5.676   2.940   1.814 -0.6047 -0.0329  0.7380
 7704TIP3   OH244526   3.834   2.705  12.416  0.7098  0.0388 -0.1035
 7704TIP3    H144527   3.770   2.634  12.415  1.5974 -0.7782 -1.5318
 7704TIP3    H244528   3.781   2.784  12.428 -0.9096 -0.3574 -3.4393
 7705TIP3   OH244529   1.533   5.212   3.324  0.3413 -0.5347 -0.6038
 7705TIP3    H144530   1.510   5.235   3.414  1.9882 -0.7733 -0.0873
 7705TIP3    H244531   1.475   5.140   3.301 -1.2153  0.5824 -0.3385
 7706TIP3   OH244532   2.705   2.349   2.945  0.2275 -0.1003  0.4067
 7706TIP3    H144533   2.699   2.256   2.924  1.6378 -0.5216  1.6566
 7706TIP3    H244534   2.668   2.357   3.033  0.0904  0.5370  0.2995
 7707TIP3   OH244535   3.973   0.602  13.778 -0.1835 -0.7183 -0.7562
 7707TIP3    H144536   3.969   0.689  13.818  1.0796  0.3553 -2.8049
 7707TIP3    H244537   4.060   0.570  13.800 -0.4500 -1.2502 -0.4678
 7708TIP3   OH244538   0.363   0.927   0.275  0.0740 -1.2425 -0.2053
 7708TIP3    H144539   0.351   1.016   0.307  2.7846 -1.5032  1.9050
 7708TIP3    H244540   0.274   0.893   0.264 -1.0439  0.5923  2.2968
 7709TIP3   OH244541   4.331   3.877  15.519  0.1637 -0.6571  0.7075
 7709TIP3    H144542   4.249   3.927  15.515 -0.7190 -1.9586  1.6322
 7709TIP3    H244543   4.311   3.803  15.576  2.0207 -0.9842  1.0033
 7710TIP3   OH244544   4.578   5.941  14.730 -0.6504  0.3469 -0.0722
 7710TIP3    H144545   4.605   5.855  14.759  0.0792  1.0218  1.3071
 7710TIP3    H244546   4.540   5.926  14.643 -1.0256 -1.4194  0.3596
 7711TIP3   OH244547   1.848   3.875   5.532  0.0847 -0.2563  0.5818
 7711TIP3    H144548   1.884   3.930   5.601 -0.8621  0.3590  0.6090
 7711TIP3    H244549   1.851   3.930   5.454  1.1050 -0.9300  0.1201
 7712TIP3   OH244550   1.863   2.875  16.365  0.0711 -0.0522 -0.2860
 7712TIP3    H144551   1.817   2.792  16.376 -1.2657  0.6350 -0.5327
 7712TIP3    H244552   1.919   2.881  16.443 -0.3574 -0.8327  0.0988
 7713TIP3   OH244553   3.835   4.502  12.741  0.3430  0.2168  0.1315
 7713TIP3    H144554   3.911   4.556  12.719  1.3447 -1.6133 -1.1276
 7713TIP3    H244555   3.824   4.443  12.666 -3.5252  1.6114 -0.6370
 7714TIP3   OH244556   0.972   0.495  15.014 -0.4152  0.3525 -0.2054
 7714TIP3    H144557   0.932   0.408  15.018 -0.7524  0.4794 -0.6979
 7714TIP3    H244558   1.066   0.477  14.999 -0.4021  0.0665  0.2098
 7715TIP3   OH244559   4.967   6.103   5.742 -0.1023 -0.2076 -0.0784
 7715TIP3    H144560   5.033   6.108   5.812 -0.5925 -1.3590  0.4885
 7715TIP3    H244561   5.015   6.127   5.663  0.9018 -0.6040  0.3823
 7716TIP3   OH244562   4.110   3.308  10.921  0.4154 -0.2955  0.0281
 7716TIP3    H144563   4.182   3.244  10.923  0.2554 -0.4507  1.5065
 7716TIP3    H244564   4.051   3.274  10.853  1.9225  0.0868 -1.5501
 7717TIP3   OH244565   6.189   5.224   0.170 -0.2901 -0.0614  0.0317
 7717TIP3    H144566   6.115   5.272   0.133 -0.4429 -0.3988 -0.1038
 7717TIP3    H244567   6.149   5.169   0.239 -0.1617 -0.2181 -0.0192
 7718TIP3   OH244568   3.370   4.791   1.920  0.0912 -0.3118 -0.4803
 7718TIP3    H144569   3.282   4.752   1.917  0.3165 -0.7897 -0.9532
 7718TIP3    H244570   3.361   4.872   1.869 -0.3924  0.3050  0.5609
 7719TIP3   OH244571   1.411   1.266  14.232 -0.0500  0.0074 -0.7079
 7719TIP3    H144572   1.475   1.200  14.257 -0.9106 -1.2543 -1.6915
 7719TIP3    H244573   1.436   1.290  14.142  0.1525  0.9037 -0.4178
 7720TIP3   OH244574   3.571   5.989  12.244  0.6592 -0.7653 -0.2738
 7720TIP3    H144575   3.495   5.942  12.211 -0.6624 -0.4696  2.1569
 7720TIP3    H244576   3.536   6.071  12.279  1.5579 -1.7157  3.2975
 7721TIP3   OH244577   0.564   6.498   3.733  0.5236  0.1103 -0.0492
 7721TIP3    H144578   0.497   6.556   3.768 -1.0670 -0.6158 -1.7151
 7721TIP3    H244579   0.628   6.490   3.804 -1.2880  0.6026  1.7461
 7722TIP3   OH244580   6.720   5.491   2.946  0.3326  0.8630  0.0868
 7722TIP3    H144581   6.770   5.412   2.926 -0.6332 -0.1722  1.5518
 7722TIP3    H244582   6.632   5.473   2.912 -0.1848  0.8353  1.3810
 7723TIP3   OH244583   2.685   5.112   5.176  0.2045  0.3363  0.1400
 7723TIP3    H144584   2.653   5.146   5.260  1.6473 -0.4965  1.0573
 7723TIP3    H244585   2.772   5.151   5.166 -0.0196  0.5626 -1.0712
 7724TIP3   OH244586   1.792   3.976   3.750  0.0505 -0.3076  0.6288
 7724TIP3    H144587   1.706   4.015   3.769  0.3740  0.4419  0.5546
 7724TIP3    H244588   1.849   4.009   3.819  0.6227  0.3611 -0.1498
 7725TIP3   OH244589   2.571   5.517  17.044  0.1225 -0.0681 -0.4271
 7725TIP3    H144590   2.577   5.482  17.133 -1.8771 -1.6173 -0.8384
 7725TIP3    H244591   2.651   5.487  17.001 -0.0767 -1.5232  0.1493
 7726TIP3   OH244592   5.655   6.155  15.540 -0.0750  0.0370  0.3022
 7726TIP3    H144593   5.656   6.105  15.622  1.9168 -1.0675 -0.3216
 7726TIP3    H244594   5.572   6.203  15.542  0.6624  1.5266  3.8353
 7727TIP3   OH244595   4.199   6.408   2.015 -0.0662  0.5505 -0.3141
 7727TIP3    H144596   4.106   6.407   1.990 -0.5901 -0.6971  1.4484
 7727TIP3    H244597   4.220   6.500   2.024 -0.7371  0.9097 -2.0380
 7728TIP3   OH244598   1.677   2.205  15.445 -0.0151  0.4755  0.0798
 7728TIP3    H144599   1.740   2.138  15.472  0.6644  1.0747  0.0041
 7728TIP3    H244600   1.666   2.191  15.351 -1.1765 -0.6037  0.3583
 7729TIP3   OH244601   1.542   3.256  15.937  0.2695 -0.0090 -0.9881
 7729TIP3    H144602   1.599   3.180  15.925 -1.1173 -0.9627 -1.8126
 7729TIP3    H244603   1.535   3.296  15.851  1.3849  1.3831 -0.4629
 7730TIP3   OH244604   6.435   5.113  11.373 -0.2917  0.1003 -0.0212
 7730TIP3    H144605   6.385   5.152  11.444 -0.1354  1.0995 -0.4331
 7730TIP3    H244606   6.475   5.188  11.328  1.3649 -0.6339  0.1394
 7731TIP3   OH244607   5.378   2.340   4.780  0.2070 -0.2541  0.5818
 7731TIP3    H144608   5.389   2.346   4.685  0.0650 -0.4007  0.5562
 7731TIP3    H244609   5.426   2.416   4.815  0.3906 -0.2891  0.4036
 7732TIP3   OH244610   6.756   3.300   2.857  0.2891 -0.4538  0.3588
 7732TIP3    H144611   6.833   3.351   2.886 -0.2524  2.6309 -2.8867
 7732TIP3    H244612   6.791   3.240   2.791 -0.0162  1.5854 -1.7965
 7733TIP3   OH244613   0.631   0.718  10.987  0.0260  0.1595  0.2364
 7733TIP3    H144614   0.650   0.792  10.928  1.0659  0.4824  0.9490
 7733TIP3    H244615   0.592   0.758  11.064 -0.8893 -0.2176 -0.0159
 7734TIP3   OH244616   4.051   4.045   5.730  0.1905  0.2019  0.4839
 7734TIP3    H144617   4.050   4.110   5.800 -0.6788  0.9976 -0.2553
 7734TIP3    H244618   3.959   4.028   5.710  0.4201  0.1427 -0.6020
 7735TIP3   OH244619   6.238   4.090   0.556  0.1815 -0.6943  0.1655
 7735TIP3    H144620   6.244   4.101   0.461 -1.5066 -1.1508 -0.0343
 7735TIP3    H244621   6.308   4.144   0.591  2.1928 -2.1458 -1.4016
 7736TIP3   OH244622   4.510   4.109  16.171  0.2605 -0.1862 -0.3703
 7736TIP3    H144623   4.548   4.087  16.257 -1.1044 -2.2247 -0.2040
 7736TIP3    H244624   4.493   4.203  16.176  0.5776 -0.1787  1.4637
 7737TIP3   OH244625   3.889   2.353  14.064  0.0047  0.7926  0.5549
 7737TIP3    H144626   3.889   2.346  13.969 -0.3149  0.5362  0.5702
 7737TIP3    H244627   3.806   2.395  14.085 -0.0326  0.6349  0.7316
 7738TIP3   OH244628   2.328   3.145   5.053 -0.0666  0.0472 -0.2557
 7738TIP3    H144629   2.379   3.095   5.117 -1.4068 -0.3201  0.5849
 7738TIP3    H244630   2.389   3.165   4.983  0.8695 -1.5419  0.0705
 7739TIP3   OH244631   5.705   6.053   5.923 -0.2604 -0.5588  0.0136
 7739TIP3    H144632   5.636   6.105   5.880  0.3345  0.7377  0.5600
 7739TIP3    H244633   5.679   5.962   5.908 -1.4397 -0.1155 -0.8407
 7740TIP3   OH244634   1.016   2.614  16.014 -0.4779  0.4150 -0.3450
 7740TIP3    H144635   0.977   2.668  15.946  0.1274 -0.0754 -1.0897
 7740TIP3    H244636   0.941   2.581  16.064 -0.9238  0.7919 -0.7613
 7741TIP3   OH244637   6.653   3.439  12.890 -0.1375 -0.3463  0.0380
 7741TIP3    H144638   6.595   3.415  12.962 -2.9202  1.1740 -1.5056
 7741TIP3    H244639   6.680   3.529  12.909  0.3864 -0.4692 -0.0882
 7742TIP3   OH244640   1.400   4.027   6.124  0.4361 -0.0753 -0.1373
 7742TIP3    H144641   1.467   3.960   6.110  1.5410  1.2857 -1.8354
 7742TIP3    H244642   1.333   3.984   6.177  2.5255 -1.5560  1.4380
 7743TIP3   OH244643   1.704   6.093  16.055  0.4961  0.3279 -0.1556
 7743TIP3    H144644   1.665   6.080  15.969  0.5602  0.4825 -0.2087
 7743TIP3    H244645   1.697   6.008  16.098  0.9867  0.0916 -0.5296
 7744TIP3   OH244646   4.385   1.139   3.297  0.4108 -0.5765  0.2290
 7744TIP3    H144647   4.391   1.186   3.214 -0.5189 -0.2338  0.3382
 7744TIP3    H244648   4.402   1.205   3.363  0.9700 -0.8096  0.3196
 7745TIP3   OH244649   1.173   4.630  10.942 -0.2328  0.5738 -0.1151
 7745TIP3    H144650   1.241   4.696  10.953  1.9063 -1.4567 -0.3631
 7745TIP3    H244651   1.187   4.569  11.014 -1.4118 -0.2078 -0.5181
 7746TIP3   OH244652   4.347   0.377  16.094 -0.3149 -0.2457  0.0653
 7746TIP3    H144653   4.350   0.311  16.163 -2.7236 -1.2658 -0.7160
 7746TIP3    H244654   4.367   0.329  16.014  0.5117  0.5320 -0.2051
 7747TIP3   OH244655   3.298   0.720   4.881 -0.3583 -0.4871  0.3647
 7747TIP3    H144656   3.251   0.803   4.888 -0.2470 -0.4050  0.1554
 7747TIP3    H244657   3.309   0.707   4.787  0.6445 -0.1644  0.4257
 7748TIP3   OH244658   2.246   0.918  12.130 -0.0177 -0.4141  0.4925
 7748TIP3    H144659   2.262   1.012  12.116 -1.0985 -0.0600  1.5079
 7748TIP3    H244660   2.151   0.909  12.129  0.0854 -1.7070 -0.7177
 7749TIP3   OH244661   5.241   3.986   3.525  0.4918 -0.2850 -0.0199
 7749TIP3    H144662   5.222   3.954   3.614  0.3830  3.5332  1.5532
 7749TIP3    H244663   5.335   4.006   3.527  0.5594 -0.5197 -0.8750
 7750TIP3   OH244664   1.454   4.149   3.459 -0.1921 -0.6123 -0.1517
 7750TIP3    H144665   1.516   4.173   3.391 -0.7656 -0.2097 -0.5394
 7750TIP3    H244666   1.443   4.054   3.450  1.2890 -0.8957  0.7203
 7751TIP3   OH244667   4.069   1.724  15.836 -0.0741 -0.0125  0.3184
 7751TIP3    H144668   4.017   1.704  15.913  0.4574  0.1495  0.7255
 7751TIP3    H244669   4.005   1.737  15.766 -0.6137  0.9191  0.9699
 7752TIP3   OH244670   0.538   2.375   5.641  0.2486 -0.5187 -0.3890
 7752TIP3    H144671   0.526   2.326   5.722  0.0101 -1.3414 -0.9052
 7752TIP3    H244672   0.455   2.421   5.629  0.0579 -0.8796 -0.4749
 7753TIP3   OH244673   5.528   0.497  15.361 -0.3264 -0.1031 -1.2374
 7753TIP3    H144674   5.623   0.496  15.351 -0.4062 -1.0246 -2.0190
 7753TIP3    H244675   5.509   0.582  15.400  1.0069 -0.7478  0.9967
 7754TIP3   OH244676   3.403   0.487   0.036  0.0998  0.0485 -0.3769
 7754TIP3    H144677   3.493   0.479   0.068  0.3291  2.1245 -0.3539
 7754TIP3    H244678   3.350   0.493   0.116  0.2658  1.4636 -0.3420
 7755TIP3   OH244679   6.169   4.486   1.022  0.0850  0.2534  0.3415
 7755TIP3    H144680   6.148   4.393   1.013 -2.3608  0.4987  2.5016
 7755TIP3    H244681   6.207   4.494   1.109  1.8416  1.1172 -0.4380
 7756TIP3   OH244682   2.229   1.078  11.306 -0.0869 -0.7685 -0.1016
 7756TIP3    H144683   2.278   1.104  11.384  2.3673 -4.1530 -0.2791
 7756TIP3    H244684   2.216   0.983  11.317 -2.6267 -0.8041 -2.3023
 7757TIP3   OH244685   2.144   4.940  11.537  0.0176  0.0494 -0.0144
 7757TIP3    H144686   2.230   4.976  11.515 -0.1788  0.3169 -0.3794
 7757TIP3    H244687   2.141   4.855  11.494 -0.5521  0.7787 -1.4998
 7758TIP3   OH244688   0.350   0.734  13.957  0.2541 -0.4581  0.1767
 7758TIP3    H144689   0.294   0.677  13.905  1.0860 -1.6136  0.5195
 7758TIP3    H244690   0.329   0.713  14.048  0.2358  0.1209  0.3153
 7759TIP3   OH244691   2.401   4.697   4.433  0.1199 -0.2869 -0.0617
 7759TIP3    H144692   2.384   4.739   4.349  1.4131  0.2168 -0.1017
 7759TIP3    H244693   2.379   4.764   4.498 -0.6042 -0.5771  0.0046
 7760TIP3   OH244694   1.136   2.987   2.438  0.1620  0.4597  0.3021
 7760TIP3    H144695   1.186   2.975   2.358 -0.0778  0.8398  0.0927
 7760TIP3    H244696   1.121   3.081   2.443 -1.1184  0.2858  0.0013
 7761TIP3   OH244697   1.555   1.778   1.603 -0.6470 -0.0144 -0.0723
 7761TIP3    H144698   1.568   1.861   1.557 -1.5539 -0.5088 -1.2708
 7761TIP3    H244699   1.642   1.740   1.608 -0.4544  0.2853 -0.9405
 7762TIP3   OH244700   1.587   3.194   3.836  0.0411  0.3249  0.1391
 7762TIP3    H144701   1.585   3.171   3.743 -0.4619  0.1978  0.1789
 7762TIP3    H244702   1.679   3.217   3.853 -0.2745  2.5603 -0.9110
 7763TIP3   OH244703   6.160   4.471  13.530  0.4083  0.3410  0.0971
 7763TIP3    H144704   6.078   4.458  13.483  0.6261  0.0938 -0.2180
 7763TIP3    H244705   6.208   4.389  13.519 -0.5516 -0.7092  2.8600
 7764TIP3   OH244706   3.793   6.667  12.025 -0.3369 -0.0864  0.2260
 7764TIP3    H144707   3.770   6.739  12.083 -0.1819 -0.1565  0.3747
 7764TIP3    H244708   3.881   6.642  12.052 -0.1174  0.1242 -0.2749
 7765TIP3   OH244709   5.319   5.128   4.268 -0.1512  0.4661 -0.4245
 7765TIP3    H144710   5.327   5.202   4.328  1.0820  0.3767 -0.4513
 7765TIP3    H244711   5.240   5.083   4.296  1.2594 -0.5796  2.2976
 7766TIP3   OH244712   2.914   1.595   1.080 -0.8999 -0.4462  0.1383
 7766TIP3    H144713   2.934   1.525   1.143 -0.7691 -1.1068 -0.6142
 7766TIP3    H244714   2.867   1.661   1.132  0.1508 -0.4652  1.1647
 7767TIP3   OH244715   5.954   1.437   3.819  0.3029 -0.0803 -0.5090
 7767TIP3    H144716   5.903   1.428   3.739 -0.0738  0.0598 -0.2864
 7767TIP3    H244717   6.011   1.360   3.819 -0.9761 -1.0681  0.0058
 7768TIP3   OH244718   6.413   6.164   2.297 -0.2902  0.1488 -0.0764
 7768TIP3    H144719   6.461   6.245   2.312 -0.6359  0.6182 -1.3425
 7768TIP3    H244720   6.357   6.183   2.222 -0.1089 -1.3732 -0.6412
 7769TIP3   OH244721   2.527   4.915  11.654 -0.3572 -0.2153  0.4137
 7769TIP3    H144722   2.475   4.886  11.729 -1.4896  0.4993 -0.0770
 7769TIP3    H244723   2.543   4.835  11.604 -2.1919 -0.2626 -0.1523
 7770TIP3   OH244724   0.516   2.548   2.260  0.1947  0.0516  0.7891
 7770TIP3    H144725   0.452   2.590   2.318  0.8537  1.9086  0.2261
 7770TIP3    H244726   0.463   2.492   2.203 -1.2919  3.0124 -0.9716
 7771TIP3   OH244727   3.747   3.990  15.974 -0.2643  0.4129 -0.1671
 7771TIP3    H144728   3.826   3.943  15.946 -0.2618  0.0853  0.3758
 7771TIP3    H244729   3.685   3.921  15.997 -0.8368  0.6691 -0.9266
 7772TIP3   OH244730   2.686   3.181   3.793  0.0470  0.2712 -0.5666
 7772TIP3    H144731   2.751   3.147   3.854  1.8236  1.1010 -1.9012
 7772TIP3    H244732   2.625   3.108   3.781  1.5114 -1.0577 -0.3229
 7773TIP3   OH244733   1.924   5.702  12.620  0.4395  0.2357 -0.1959
 7773TIP3    H144734   1.903   5.791  12.647 -1.2038 -0.3384  0.5616
 7773TIP3    H244735   1.914   5.650  12.699  0.1857 -0.8076 -0.8961
 7774TIP3   OH244736   5.711   2.825  16.356  0.7641  0.1082 -0.1631
 7774TIP3    H144737   5.645   2.756  16.361  0.5860  0.0302 -2.6653
 7774TIP3    H244738   5.700   2.863  16.269  1.3016  2.8877  0.8654
 7775TIP3   OH244739   0.396   5.559  10.534  0.5745  0.1250  0.1482
 7775TIP3    H144740   0.450   5.542  10.610  0.7252  1.5191  0.3836
 7775TIP3    H244741   0.389   5.654  10.531 -1.0671  0.0131 -0.4329
 7776TIP3   OH244742   1.121   2.984   0.868  0.0605  0.8908 -0.3728
 7776TIP3    H144743   1.161   2.918   0.925 -0.6166  1.5739  0.9313
 7776TIP3    H244744   1.069   3.038   0.927  1.4660  3.2993 -1.2001
 7777TIP3   OH244745   5.834   5.775   6.153  0.5937 -0.0402 -0.7707
 7777TIP3    H144746   5.822   5.680   6.140  0.2495 -0.0339 -0.5111
 7777TIP3    H244747   5.830   5.787   6.248  1.1252  0.1748 -0.7707
 7778TIP3   OH244748   3.401   5.497   0.255 -1.0676  0.1135  0.5914
 7778TIP3    H144749   3.338   5.568   0.260  2.2263  3.6538 -2.0507
 7778TIP3    H244750   3.374   5.445   0.179 -1.8348  0.3864  0.6709
 7779TIP3   OH244751   1.165   1.366  14.900 -0.2715  0.2598 -0.2177
 7779TIP3    H144752   1.183   1.272  14.891 -0.8540  0.0844  0.3930
 7779TIP3    H244753   1.087   1.381  14.846 -0.1452  0.4056 -0.3605
 7780TIP3   OH244754   1.714   6.630  14.737  0.1666  0.2624 -0.5336
 7780TIP3    H144755   1.731   6.717  14.774  0.0867 -0.7846  2.2308
 7780TIP3    H244756   1.798   6.585  14.743 -0.4214 -0.7512  0.9357
 7781TIP3   OH244757   2.207   0.479   4.479  0.2497 -0.1368 -0.4164
 7781TIP3    H144758   2.144   0.426   4.529 -0.0569  0.1634 -0.4813
 7781TIP3    H244759   2.179   0.468   4.388  0.7977 -0.6695 -0.5215
 7782TIP3   OH244760   6.674   2.050   5.417  0.7217  0.0820 -0.5995
 7782TIP3    H144761   6.611   2.122   5.406  0.9025  0.4692  0.7135
 7782TIP3    H244762   6.757   2.086   5.388  0.5562 -0.0497 -1.2408
 7783TIP3   OH244763   4.341   0.322   3.883 -0.2887 -0.1499  0.0869
 7783TIP3    H144764   4.330   0.371   3.965 -0.5501  1.3506 -0.8018
 7783TIP3    H244765   4.253   0.291   3.861 -0.8563  2.0602 -1.1307
 7784TIP3   OH244766   5.758   5.176   1.428 -0.2756  0.0975 -0.2437
 7784TIP3    H144767   5.775   5.113   1.358 -0.9684  0.5904 -0.8673
 7784TIP3    H244768   5.671   5.211   1.409 -0.3304  0.5036  0.6675
 7785TIP3   OH244769   3.079   2.093  17.027  0.4121 -0.7696 -0.0376
 7785TIP3    H144770   2.994   2.052  17.041  0.4292 -0.2552  1.7883
 7785TIP3    H244771   3.142   2.024  17.044  0.3811 -0.8485 -0.2417
 7786TIP3   OH244772   3.428   4.208  14.231  0.7093  0.4641  0.1399
 7786TIP3    H144773   3.458   4.298  14.245  2.3076  0.0213 -0.3033
 7786TIP3    H244774   3.506   4.160  14.206 -0.3657 -0.7434 -1.0960
 7787TIP3   OH244775   3.733   6.363  14.574 -0.1487 -0.4824  0.2818
 7787TIP3    H144776   3.656   6.307  14.567  0.8750 -1.9102  0.0061
 7787TIP3    H244777   3.732   6.417  14.495 -0.8275 -0.5308  0.2547
 7788TIP3   OH244778   2.918   1.639   3.626 -0.2671 -0.0084  0.1458
 7788TIP3    H144779   2.917   1.673   3.536 -1.1106  0.8311  0.4554
 7788TIP3    H244780   3.011   1.638   3.650  0.1071 -1.4602 -1.1562
 7789TIP3   OH244781   4.527   1.152   1.534 -0.3896 -0.0139 -0.6777
 7789TIP3    H144782   4.598   1.118   1.588 -0.2267  0.8642 -0.3313
 7789TIP3    H244783   4.526   1.094   1.457  0.4261 -0.2802 -0.5005
 7790TIP3   OH244784   1.305   1.058  16.837 -0.5763  0.6240  0.1786
 7790TIP3    H144785   1.277   1.097  16.919 -1.5193 -0.6177  0.4938
 7790TIP3    H244786   1.265   1.112  16.769 -1.5935  0.4205  0.5937
 7791TIP3   OH244787   3.591   3.317   3.415 -0.0882  0.4651  0.5289
 7791TIP3    H144788   3.632   3.250   3.470 -0.3070  0.0049  0.1395
 7791TIP3    H244789   3.569   3.271   3.335  0.6600  1.2451 -0.1407
 7792TIP3   OH244790   2.406   6.044   1.985 -0.3581  0.3897 -0.5229
 7792TIP3    H144791   2.367   6.103   2.051  0.8604  1.1747 -0.4704
 7792TIP3    H244792   2.429   6.102   1.912  0.3761 -0.1079 -0.6953
 7793TIP3   OH244793   3.403   6.430   5.249 -0.3658  0.0990  0.1160
 7793TIP3    H144794   3.454   6.374   5.191 -0.0506  2.1495 -1.6834
 7793TIP3    H244795   3.444   6.418   5.335  0.3331 -1.5966 -0.4032
 7794TIP3   OH244796   4.000   1.416  10.673  0.2535 -0.3546 -0.6710
 7794TIP3    H144797   4.029   1.327  10.652  1.7256  0.4486 -2.3400
 7794TIP3    H244798   3.989   1.416  10.768  2.2019 -1.7846 -0.3761
 7795TIP3   OH244799   5.086   2.346  16.850  0.2730 -0.3738 -0.1248
 7795TIP3    H144800   4.994   2.331  16.870  0.0739 -2.4178 -2.1954
 7795TIP3    H244801   5.124   2.259  16.842  2.3881  0.4263  0.5748
 7796TIP3   OH244802   6.726   1.605  17.204  0.2964  0.0441 -0.0279
 7796TIP3    H144803   6.697   1.693  17.226 -0.8850 -0.4275  0.3763
 7796TIP3    H244804   6.647   1.552  17.209  0.5980 -0.6936 -2.2296
 7797TIP3   OH244805   6.511   2.134  14.307  0.1575  0.7525  0.1923
 7797TIP3    H144806   6.529   2.083  14.386  0.1118  0.6769  0.1535
 7797TIP3    H244807   6.595   2.140  14.262 -0.0733 -0.2903 -0.3967
 7798TIP3   OH244808   3.947   0.983  15.748 -0.1925  0.1459 -0.1074
 7798TIP3    H144809   3.865   1.007  15.791  0.4993 -0.5286  1.6753
 7798TIP3    H244810   3.921   0.958  15.659 -2.1379 -1.3645  0.8014
 7799TIP3   OH244811   3.221   4.731  14.332  0.3886 -0.0029  0.3416
 7799TIP3    H144812   3.273   4.651  14.327  0.0101 -0.2170 -0.3206
 7799TIP3    H244813   3.198   4.739  14.425 -0.2050 -1.0803  0.3024
 7800TIP3   OH244814   0.221   0.635  12.672  0.0376 -0.2507 -0.3743
 7800TIP3    H144815   0.160   0.564  12.655 -0.5569  0.5503 -1.8071
 7800TIP3    H244816   0.171   0.715  12.656  0.8995  0.4901  0.4437
 7801TIP3   OH244817   2.839   1.378   2.266  0.2998  0.7163 -0.3591
 7801TIP3    H144818   2.906   1.396   2.332 -2.8016  1.8292  2.7753
 7801TIP3    H244819   2.822   1.462   2.225 -0.4899  0.8417  0.2168
 7802TIP3   OH244820   5.078   1.544   4.100  0.1942 -0.4265 -0.1505
 7802TIP3    H144821   5.075   1.533   4.195  0.3086  3.1606  0.3805
 7802TIP3    H244822   5.171   1.544   4.079  0.3421  1.8689  0.2757
 7803TIP3   OH244823   5.261   4.904  16.321  0.2050  0.1061  0.1908
 7803TIP3    H144824   5.308   4.939  16.397 -0.0261  0.8848 -0.0103
 7803TIP3    H244825   5.316   4.833  16.289 -0.8554 -1.8730  2.5109
 7804TIP3   OH244826   6.567   6.699   0.169  0.0010 -0.5698 -0.2414
 7804TIP3    H144827   6.611   6.763   0.225  0.0288  1.4830 -2.4157
 7804TIP3    H244828   6.638   6.643   0.136  0.6126  0.7986 -1.3396
 7805TIP3   OH244829   6.094   5.916   0.100  0.2896  0.1023 -0.2514
 7805TIP3    H144830   6.176   5.937   0.055  1.6738 -0.0873  2.0103
 7805TIP3    H244831   6.111   5.831   0.142 -1.4891 -0.4802 -0.6105
 7806TIP3   OH244832   0.533   5.917  16.810 -0.1439  0.0459  0.3141
 7806TIP3    H144833   0.582   5.870  16.743 -1.8797  0.5526 -1.4309
 7806TIP3    H244834   0.489   5.849  16.861 -0.0355 -0.3211 -0.0795
 7807TIP3   OH244835   1.860   3.486   4.421 -0.3562 -0.0355 -0.1320
 7807TIP3    H144836   1.952   3.493   4.393  0.2108  0.3664  1.7297
 7807TIP3    H244837   1.842   3.568   4.466 -1.8377  0.1218 -0.9295
 7808TIP3   OH244838   0.367   0.655  11.718 -0.5647 -0.1108  0.4128
 7808TIP3    H144839   0.297   0.590  11.717  0.9242 -1.8630  1.8417
 7808TIP3    H244840   0.324   0.738  11.699 -2.6061 -1.4429 -1.1457
 7809TIP3   OH244841   5.879   1.682  10.437  0.5415 -0.1606 -0.1692
 7809TIP3    H144842   5.927   1.738  10.376  3.6767 -0.7763  1.5484
 7809TIP3    H244843   5.944   1.653  10.500 -1.4930 -3.5646  0.6458
 7810TIP3   OH244844   5.024   0.169   5.859 -0.2451  0.7342 -0.0639
 7810TIP3    H144845   4.998   0.147   5.948 -1.0541 -0.0279 -0.4688
 7810TIP3    H244846   5.060   0.257   5.865  2.1218 -0.2552  1.4462
 7811TIP3   OH244847   3.067   1.102  16.152 -0.4071  0.0892  0.0937
 7811TIP3    H144848   3.158   1.073  16.152 -0.7112 -1.0497 -2.5176
 7811TIP3    H244849   3.052   1.136  16.064 -2.8880 -1.0389  0.0038
 7812TIP3   OH244850   3.177   0.863  14.038 -0.1100 -0.1115 -0.0331
 7812TIP3    H144851   3.196   0.834  13.949 -1.1440 -0.2854 -0.2143
 7812TIP3    H244852   3.089   0.901  14.032  0.1080  0.5285  0.7678
 7813TIP3   OH244853   4.876   3.363   3.175 -0.1219  0.4029 -0.2533
 7813TIP3    H144854   4.883   3.279   3.130  0.8119  0.1900  0.2510
 7813TIP3    H244855   4.842   3.424   3.109  2.4724  0.4233 -1.6838
 7814TIP3   OH244856   5.468   4.019   0.681  0.8323  0.1166  0.4638
 7814TIP3    H144857   5.539   4.083   0.673  1.3763 -0.0035  3.1738
 7814TIP3    H244858   5.492   3.967   0.758 -1.1207 -1.3737  0.1441
 7815TIP3   OH244859   3.893   4.353  12.196  0.0569  0.5400 -0.0710
 7815TIP3    H144860   3.940   4.308  12.126  1.2337 -1.2663  1.7915
 7815TIP3    H244861   3.955   4.416  12.231 -1.0266  2.5334 -1.5474
 7816TIP3   OH244862   1.480   2.644  15.722 -0.2544 -0.2429  0.6570
 7816TIP3    H144863   1.417   2.715  15.705  0.1295 -0.2626 -1.0443
 7816TIP3    H244864   1.528   2.673  15.800 -0.5668  1.0489  0.4014
 7817TIP3   OH244865   0.660   6.447  12.069 -0.6412  0.4527 -0.3882
 7817TIP3    H144866   0.593   6.515  12.065 -0.5792  0.9317  3.3154
 7817TIP3    H244867   0.742   6.495  12.081  0.0321 -0.2218 -2.0468
 7818TIP3   OH244868   3.489   2.706   6.371 -0.6388  0.3062 -0.1134
 7818TIP3    H144869   3.525   2.731   6.286  0.8681 -3.9580 -1.0088
 7818TIP3    H244870   3.529   2.766   6.433  0.8849  1.4443 -2.0899
 7819TIP3   OH244871   5.366   0.246  12.294  0.5927  0.0142 -0.1250
 7819TIP3    H144872   5.369   0.296  12.212  2.7060 -2.5447 -1.7445
 7819TIP3    H244873   5.455   0.250  12.329  0.5471 -1.6325  0.2727
 7820TIP3   OH244874   6.080   6.029  13.418 -0.4429 -0.5638 -0.2428
 7820TIP3    H144875   6.021   6.101  13.398 -0.8325 -0.2885  1.7797
 7820TIP3    H244876   6.137   6.063  13.487  0.3684 -1.6989 -0.3303
 7821TIP3   OH244877   0.942   5.656   3.174  0.0539  0.2213 -0.6740
 7821TIP3    H144878   0.964   5.608   3.254  1.5064 -1.0073 -1.7515
 7821TIP3    H244879   0.949   5.748   3.198  0.4642 -0.1228  0.6032
 7822TIP3   OH244880   0.983   1.528   2.477 -0.5948 -0.2191 -0.3653
 7822TIP3    H144881   1.046   1.599   2.464 -0.2988 -0.6251 -1.2011
 7822TIP3    H244882   1.037   1.453   2.503 -0.9385 -0.0716  0.8600
 7823TIP3   OH244883   1.099   1.562  14.270 -0.2158  0.2423 -0.2962
 7823TIP3    H144884   1.140   1.646  14.293 -2.5819  1.2944  0.3968
 7823TIP3    H244885   1.151   1.497  14.317  0.6317  1.4897  0.5646
 7824TIP3   OH244886   1.977   1.072  11.913 -0.5473 -0.0260  0.5041
 7824TIP3    H144887   2.047   1.053  11.851  1.6375  0.3679  2.7161
 7824TIP3    H244888   1.988   1.164  11.936 -2.4107  0.3146  0.2236
 7825TIP3   OH244889   4.645   6.586   4.330  0.0801 -0.2405  0.3048
 7825TIP3    H144890   4.570   6.526   4.329 -0.4525  0.2577  2.8257
 7825TIP3    H244891   4.610   6.666   4.371  1.0087  1.4888 -2.0996
 7826TIP3   OH244892   0.989   5.412   0.880 -0.0422  0.1214  0.6319
 7826TIP3    H144893   1.040   5.427   0.960 -1.2936  1.3595  1.2374
 7826TIP3    H244894   0.949   5.497   0.861  0.2124 -0.1576 -1.3203
 7827TIP3   OH244895   5.214   4.571   1.016  0.0246  0.3199 -1.1640
 7827TIP3    H144896   5.258   4.486   1.026 -0.8296 -0.1153 -1.0392
 7827TIP3    H244897   5.215   4.588   0.922  0.5672  0.3774 -1.1516
 7828TIP3   OH244898   5.892   2.856  16.952 -0.1665  0.5052  0.2055
 7828TIP3    H144899   5.978   2.897  16.943 -0.6192  1.2509 -1.0343
 7828TIP3    H244900   5.877   2.813  16.868 -1.0509  0.4751  0.3616
 7829TIP3   OH244901   6.725   5.780   2.660 -0.1563 -0.5666  0.4350
 7829TIP3    H144902   6.800   5.763   2.717  0.5438  1.9656  0.4090
 7829TIP3    H244903   6.660   5.820   2.717 -0.0558  0.5450 -0.1869
 7830TIP3   OH244904   3.835   5.124   2.599  0.9491  0.4594 -0.3126
 7830TIP3    H144905   3.889   5.128   2.678  1.2758 -0.4191 -0.4820
 7830TIP3    H244906   3.860   5.042   2.556 -0.5414  0.0085 -0.3821
 7831TIP3   OH244907   2.954   6.608  14.202 -0.0542  0.3575  0.1282
 7831TIP3    H144908   2.894   6.619  14.275 -1.4384  0.3534 -0.9791
 7831TIP3    H244909   2.965   6.696  14.166 -2.6759 -0.0891 -2.1402
 7832TIP3   OH244910   0.659   2.896  13.921  0.0827 -0.2375 -0.3471
 7832TIP3    H144911   0.628   2.984  13.899 -0.4206 -0.0570  1.0126
 7832TIP3    H244912   0.614   2.874  14.002  0.9039 -1.3838 -0.1760
 7833TIP3   OH244913   0.826   5.022  14.727 -0.1058 -0.3851 -0.4353
 7833TIP3    H144914   0.779   5.016  14.810  1.1843 -0.7288  0.2950
 7833TIP3    H244915   0.916   5.042  14.752  0.8130 -2.6626 -1.6084
 7834TIP3   OH244916   2.070   2.552   4.362  0.3093  0.4149  0.1006
 7834TIP3    H144917   2.119   2.524   4.285 -0.1751 -1.4137  0.4057
 7834TIP3    H244918   2.135   2.590   4.420  1.2527 -1.0971  0.0917
 7835TIP3   OH244919   1.301   2.197  13.267 -0.3042  0.4261 -0.6310
 7835TIP3    H144920   1.290   2.249  13.187 -1.7191  0.7585 -0.2597
 7835TIP3    H244921   1.224   2.219  13.320  1.0463  0.9306  1.2501
 7836TIP3   OH244922   5.141   1.502  12.160 -0.0971  0.2612  0.5387
 7836TIP3    H144923   5.185   1.585  12.175  0.9027 -0.0130 -0.6749
 7836TIP3    H244924   5.069   1.523  12.101 -0.3878  0.3959  0.9385
 7837TIP3   OH244925   3.218   0.656   4.128 -0.0672 -0.4015  0.2656
 7837TIP3    H144926   3.303   0.662   4.083 -1.4059 -0.8646 -2.5494
 7837TIP3    H244927   3.206   0.563   4.143 -1.1676 -0.6451 -1.7860
 7838TIP3   OH244928   2.716   2.168   5.821  0.3142  0.2241 -0.4121
 7838TIP3    H144929   2.673   2.083   5.811  0.3068  0.1235  0.4289
 7838TIP3    H244930   2.799   2.157   5.773  0.4853 -0.3864  0.0067
 7839TIP3   OH244931   6.638   1.077   3.082  0.4367  0.2666  0.0091
 7839TIP3    H144932   6.675   0.989   3.091  0.9730  0.5510  0.6946
 7839TIP3    H244933   6.630   1.091   2.988  0.5391 -0.4334 -0.1099
 7840TIP3   OH244934   1.348   1.115  17.133 -0.1076 -0.0249 -0.6343
 7840TIP3    H144935   1.287   1.188  17.142  0.5436  0.3114  1.3842
 7840TIP3    H244936   1.298   1.038  17.159  0.4195  0.3322  1.6577
 7841TIP3   OH244937   3.089   5.322   2.554  0.6301 -0.5468 -0.2303
 7841TIP3    H144938   3.059   5.411   2.574  0.5037 -0.7584  0.5456
 7841TIP3    H244939   3.184   5.326   2.562  0.6765 -0.3246 -0.8546
 7842TIP3   OH244940   2.370   3.433  12.816 -0.0138 -0.0955 -0.1481
 7842TIP3    H144941   2.323   3.491  12.755  0.7157  0.0611 -0.5747
 7842TIP3    H244942   2.386   3.488  12.893  0.3874  0.1762 -0.4207
 7843TIP3   OH244943   0.909   4.875   3.165 -0.2807 -0.3753 -0.2129
 7843TIP3    H144944   0.860   4.940   3.215  0.1741 -0.0957 -0.1236
 7843TIP3    H244945   0.937   4.811   3.231 -0.1150 -0.2780 -0.1887
 7844TIP3   OH244946   4.980   6.743   4.884  0.3064  0.0439 -0.1383
 7844TIP3    H144947   4.912   6.706   4.827 -0.3590  2.0042 -0.7032
 7844TIP3    H244948   5.023   6.810   4.830  1.8296 -0.2517  0.6428
 7845TIP3   OH244949   3.329   2.535   0.105  0.1876 -0.0441 -0.3666
 7845TIP3    H144950   3.262   2.529   0.173 -1.6911  2.2043 -1.8560
 7845TIP3    H244951   3.283   2.512   0.024  2.5122 -3.3205 -0.9508
 7846TIP3   OH244952   0.233   3.106  12.738  0.5057  0.3204 -0.2343
 7846TIP3    H144953   0.141   3.126  12.755 -0.1354 -0.8219 -2.0795
 7846TIP3    H244954   0.265   3.068  12.819 -0.5257  1.1257  0.5723
 7847TIP3   OH244955   2.020   4.667  13.758  0.0055  0.8359  0.2704
 7847TIP3    H144956   2.057   4.671  13.670 -1.1001  0.1974 -0.2501
 7847TIP3    H244957   1.928   4.643  13.744 -0.5384  2.0316  1.5175
 7848TIP3   OH244958   0.146   0.457  11.674 -0.1145 -0.8249 -0.0508
 7848TIP3    H144959   0.088   0.454  11.598 -0.9432  1.7487  0.3910
 7848TIP3    H244960   0.089   0.483  11.747  1.1321 -0.7110  0.9215
 7849TIP3   OH244961   0.682   4.300   4.981  0.6538 -0.3882 -0.1949
 7849TIP3    H144962   0.611   4.359   4.956  0.6795 -0.8025 -1.2860
 7849TIP3    H244963   0.761   4.354   4.974  0.4612  0.1061  1.1349
 7850TIP3   OH244964   5.099   1.308  16.397 -0.1272  0.0049 -0.0227
 7850TIP3    H144965   5.036   1.314  16.469 -0.0656 -0.6509  0.0954
 7850TIP3    H244966   5.044   1.305  16.318 -0.2728 -0.8676  0.0964
 7851TIP3   OH244967   4.160   2.426   3.617 -0.4082 -0.0654 -0.2493
 7851TIP3    H144968   4.239   2.480   3.615 -0.6935  0.4787  1.4681
 7851TIP3    H244969   4.105   2.461   3.547  0.2293  0.5620 -0.4441
 7852TIP3   OH244970   3.355   2.637  10.699  0.1438  0.4541  0.1493
 7852TIP3    H144971   3.388   2.553  10.731  1.0999  0.7380 -0.0670
 7852TIP3    H244972   3.275   2.614  10.651  0.2195 -0.2896  0.3664
 7853TIP3   OH244973   6.510   3.901  11.010 -0.1649 -0.0693 -0.3452
 7853TIP3    H144974   6.602   3.904  11.038 -0.8008 -2.5904  2.4709
 7853TIP3    H244975   6.461   3.926  11.088 -1.9378 -0.1472 -1.3902
 7854TIP3   OH244976   2.304   3.553  11.369 -0.1799  0.4756  0.3240
 7854TIP3    H144977   2.221   3.508  11.384 -0.2210 -0.0962 -1.4629
 7854TIP3    H244978   2.280   3.646  11.362 -0.1547  0.8447  3.4578
 7855TIP3   OH244979   0.482   4.357  13.041 -0.0946 -0.4503  0.0607
 7855TIP3    H144980   0.452   4.431  12.988  0.1580 -0.6673 -0.3884
 7855TIP3    H244981   0.498   4.395  13.128  1.4366  0.3448 -0.5377
 7856TIP3   OH244982   0.749   4.331  11.786 -0.0802  0.3884  0.2197
 7856TIP3    H144983   0.750   4.338  11.691 -0.2582  1.9843  0.3217
 7856TIP3    H244984   0.823   4.273  11.806  0.3866  0.6055 -0.8391
 7857TIP3   OH244985   3.051   6.066   0.365 -0.3785  0.7329  0.0269
 7857TIP3    H144986   3.035   6.086   0.273  0.8014  3.1268  0.2593
 7857TIP3    H244987   2.986   6.118   0.412 -1.8593 -1.4978  0.5830
 7858TIP3   OH244988   0.097   0.202  13.410 -0.4765  0.4260  0.2298
 7858TIP3    H144989   0.102   0.268  13.478 -0.8700  1.0319 -0.3257
 7858TIP3    H244990   0.073   0.121  13.456  0.1569  0.6243  0.9260
 7859TIP3   OH244991   0.094   4.236   3.594 -0.0786  0.1829  0.5929
 7859TIP3    H144992   0.109   4.313   3.538  1.8951 -0.8572 -0.4045
 7859TIP3    H244993   0.033   4.267   3.661  1.0741  2.7884  0.5497
 7860TIP3   OH244994   4.012   0.784  16.618  0.3208  0.0224  0.6101
 7860TIP3    H144995   4.082   0.810  16.558 -0.2983  1.0219  0.2894
 7860TIP3    H244996   4.043   0.703  16.658  0.5729 -0.9261 -1.3811
 7861TIP3   OH244997   1.829   4.017  13.053  0.0865 -0.3401  0.2398
 7861TIP3    H144998   1.770   4.042  12.982 -1.0376  0.0506  1.2571
 7861TIP3    H244999   1.771   4.008  13.129  1.0149 -2.2996  0.7710
 7862TIP3   OH245000   3.106   2.967  16.469  0.7408  0.4249 -0.4633
 7862TIP3    H145001   3.163   3.013  16.407  3.6377 -0.7770  1.0897
 7862TIP3    H245002   3.125   3.007  16.554 -0.7329 -0.0728  0.1332
 7863TIP3   OH245003   2.048   2.427   0.223 -0.2472  0.2248  0.1410
 7863TIP3    H145004   2.123   2.399   0.170 -0.9312  1.3329 -1.4791
 7863TIP3    H245005   1.999   2.346   0.240  0.2495 -0.2249 -0.5074
 7864TIP3   OH245006   3.697   0.566   4.828  0.9728 -0.0514 -0.0619
 7864TIP3    H145007   3.671   0.648   4.784 -0.9334  0.1468  1.3259
 7864TIP3    H245008   3.693   0.500   4.759  0.8107  0.7207 -0.8109
 7865TIP3   OH245009   4.907   1.327  11.161  0.4140  0.7266  0.5198
 7865TIP3    H145010   4.844   1.362  11.098 -0.0252 -0.9419 -0.0144
 7865TIP3    H245011   4.939   1.247  11.121  1.1626  0.3440  1.8255
 7866TIP3   OH245012   5.647   1.307   0.417  0.1836 -0.4637  0.2944
 7866TIP3    H145013   5.573   1.247   0.420  0.0768 -0.3018  0.9068
 7866TIP3    H245014   5.691   1.295   0.501  1.2965 -1.1128 -0.3591
 7867TIP3   OH245015   6.762   0.123  12.344  0.1056 -0.0776 -0.2132
 7867TIP3    H145016   6.723   0.192  12.290  0.8141 -0.7468 -1.6489
 7867TIP3    H245017   6.710   0.046  12.326  0.1431 -0.2314  0.3332
 7868TIP3   OH245018   6.442   1.490   0.637 -0.0676  0.0974  0.8791
 7868TIP3    H145019   6.350   1.467   0.639  0.1369 -0.9992 -0.6059
 7868TIP3    H245020   6.486   1.415   0.678  0.2481  0.0841  0.5191
 7869TIP3   OH245021   0.926   4.133   0.498 -0.5316 -0.3983 -0.5876
 7869TIP3    H145022   0.959   4.084   0.574  0.8431 -0.0250 -0.9161
 7869TIP3    H245023   0.958   4.084   0.422 -1.9366 -0.7946 -0.9447
 7870TIP3   OH245024   4.599   2.966  14.692 -0.4705  0.3925  0.5532
 7870TIP3    H145025   4.617   2.923  14.775  0.6874  2.9232  1.7179
 7870TIP3    H245026   4.515   3.010  14.705 -0.6057  0.2639  0.1394
 7871TIP3   OH245027   4.991   4.858  15.993 -0.5761 -0.8367  0.2177
 7871TIP3    H145028   4.898   4.879  15.995 -0.7921 -1.7893  0.6308
 7871TIP3    H245029   4.995   4.762  15.998  0.4092 -0.8393 -0.2886
 7872TIP3   OH245030   4.918   4.083   6.628  0.3865  0.2837 -0.2267
 7872TIP3    H145031   5.002   4.094   6.673 -0.6819  0.2450  1.9256
 7872TIP3    H245032   4.890   3.995   6.651 -1.5133  1.2521  1.5003
 7873TIP3   OH245033   2.025   1.187   3.963  0.1947 -0.0454 -0.0339
 7873TIP3    H145034   1.992   1.258   4.017  1.0370  1.0598 -0.9105
 7873TIP3    H245035   1.949   1.132   3.944 -0.3647  0.3306  1.0824
 7874TIP3   OH245036   6.761   2.211  15.681 -0.0218  0.4745 -0.8274
 7874TIP3    H145037   6.768   2.115  15.675 -0.3153  0.4830 -1.2938
 7874TIP3    H245038   6.830   2.235  15.742 -2.4373 -0.4248  2.6019
 7875TIP3   OH245039   1.829   0.437  13.177 -0.8902  0.5580 -0.1371
 7875TIP3    H145040   1.756   0.379  13.199  1.1571 -1.1823  2.6803
 7875TIP3    H245041   1.899   0.379  13.149 -0.0349  2.0709 -1.3215
 7876TIP3   OH245042   3.889   4.830  11.757 -0.0164 -0.0785 -0.4060
 7876TIP3    H145043   3.829   4.765  11.721 -1.0148  0.8448 -0.4313
 7876TIP3    H245044   3.833   4.892  11.803  1.0434  0.0161  0.8223
 7877TIP3   OH245045   2.363   5.573  13.532  1.0784  0.3443 -0.0950
 7877TIP3    H145046   2.329   5.532  13.453  0.0844  0.4785  0.2458
 7877TIP3    H245047   2.428   5.636  13.501  0.5656  0.5273 -0.8147
 7878TIP3   OH245048   2.632   0.984   3.891  0.3598  0.0534 -0.1511
 7878TIP3    H145049   2.616   1.037   3.813 -0.2912  0.5354  0.3016
 7878TIP3    H245050   2.545   0.965   3.925  0.6552  1.8040  1.7590
 7879TIP3   OH245051   6.037   4.312   0.388  0.0723  0.3772 -0.7614
 7879TIP3    H145052   5.963   4.373   0.380  1.0345  1.3467 -3.1442
 7879TIP3    H245053   6.086   4.344   0.464 -1.1999  0.5384  0.0213
 7880TIP3   OH245054   2.266   0.513  12.164 -0.0825 -0.0966 -0.6171
 7880TIP3    H145055   2.280   0.453  12.237 -1.6820 -0.5227 -0.6295
 7880TIP3    H245056   2.217   0.462  12.100 -0.8287  0.9978 -0.9502
 7881TIP3   OH245057   4.366   0.257  17.198 -0.6471  0.4402  0.7472
 7881TIP3    H145058   4.322   0.186  17.152 -1.4165  0.5563  1.2861
 7881TIP3    H245059   4.348   0.241  17.290  0.5108  0.4551  0.9970
 7882TIP3   OH245060   3.145   1.410  17.238 -0.2731  0.6607  0.0310
 7882TIP3    H145061   3.067   1.441  17.285  0.1189  2.2580 -0.3190
 7882TIP3    H245062   3.195   1.362  17.304 -0.1213  2.1811  1.0940
 7883TIP3   OH245063   4.033   0.544   5.372  0.0706  0.3698  0.1912
 7883TIP3    H145064   4.027   0.545   5.467  0.8433  0.7484  0.2386
 7883TIP3    H245065   4.025   0.636   5.346 -3.1465  0.0752 -0.3370
 7884TIP3   OH245066   0.204   2.061   5.977 -0.7179  0.0576 -0.6891
 7884TIP3    H145067   0.147   2.060   5.900 -0.7132  0.5747 -0.6976
 7884TIP3    H245068   0.234   1.970   5.984  1.2193  0.4535 -2.7313
 7885TIP3   OH245069   0.523   4.936  11.758  0.0811 -0.2800 -0.2443
 7885TIP3    H145070   0.442   4.957  11.805 -0.1079 -0.7194 -0.3656
 7885TIP3    H245071   0.564   4.867  11.810  0.7437  0.4323  0.2000
 7886TIP3   OH245072   5.417   4.460  14.807 -0.4806 -0.0417  0.3321
 7886TIP3    H145073   5.339   4.435  14.757 -0.9952  2.2869 -0.1496
 7886TIP3    H245074   5.384   4.480  14.894 -0.0812 -1.0273  0.7168
 7887TIP3   OH245075   3.744   3.166  11.203  0.1825  0.4656  0.3310
 7887TIP3    H145076   3.714   3.233  11.142 -0.5370 -1.3600 -1.4470
 7887TIP3    H245077   3.840   3.166  11.195  0.1241  0.6374 -0.3601
 7888TIP3   OH245078   5.780   6.135  14.041 -0.7210 -0.6614  0.2507
 7888TIP3    H145079   5.835   6.212  14.033 -0.3798 -0.7223  1.6615
 7888TIP3    H245080   5.817   6.071  13.980 -1.1272  0.3371 -1.0671
 7889TIP3   OH245081   0.180   5.721   5.742 -0.1603 -0.0517 -0.1126
 7889TIP3    H145082   0.167   5.674   5.660  0.3784 -1.4844  0.6028
 7889TIP3    H245083   0.273   5.714   5.760 -0.1712  0.7720  0.3249
 7890TIP3   OH245084   2.508   1.599  15.187  0.9458 -0.0093  0.1490
 7890TIP3    H145085   2.580   1.575  15.244  0.7540 -0.0102  0.3931
 7890TIP3    H245086   2.440   1.533  15.204  0.3417  0.7922  0.9621
 7891TIP3   OH245087   5.560   3.726  12.230 -0.1436 -0.1925  0.4570
 7891TIP3    H145088   5.643   3.745  12.186 -0.1680 -1.9727 -0.4481
 7891TIP3    H245089   5.493   3.749  12.165 -0.2049 -1.9693 -0.1842
 7892TIP3   OH245090   6.567   1.907   2.336  0.4927 -0.1529  0.4786
 7892TIP3    H145091   6.635   1.878   2.397  0.0302 -0.5626  0.8089
 7892TIP3    H245092   6.548   1.997   2.362  1.7756  0.4021 -0.4074
 7893TIP3   OH245093   6.003   0.621  16.932 -0.0850  0.2887  0.0162
 7893TIP3    H145094   6.036   0.707  16.956  1.2018 -0.3721  0.7035
 7893TIP3    H245095   5.918   0.615  16.977  0.9872  0.2057  2.1727
 7894TIP3   OH245096   0.445   0.083  16.325 -0.7013  0.1792 -0.0580
 7894TIP3    H145097   0.436   0.083  16.420  0.1975  0.2799  0.0386
 7894TIP3    H245098   0.423   0.172  16.298 -0.5600  0.2614  0.1003
 7895TIP3   OH245099   2.177   2.671  14.267 -0.1071  0.4891  0.0162
 7895TIP3    H145100   2.205   2.580  14.260 -1.5138  0.1309 -1.2650
 7895TIP3    H245101   2.118   2.684  14.193 -2.2529  1.5870  1.8071
 7896TIP3   OH245102   0.527   3.084  16.819 -0.2171  0.0134  0.3953
 7896TIP3    H145103   0.513   3.145  16.746 -0.4790 -2.0844 -1.4108
 7896TIP3    H245104   0.619   3.096  16.843  0.4155 -0.5084 -1.5639
 7897TIP3   OH245105   6.262   5.099   3.491  0.0259 -1.1092  0.5607
 7897TIP3    H145106   6.354   5.111   3.466  0.1262 -1.9173  0.5292
 7897TIP3    H245107   6.245   5.171   3.552  0.7745 -1.1313  0.8114
 7898TIP3   OH245108   0.414   1.742   3.063 -0.2759  0.1011  0.2042
 7898TIP3    H145109   0.376   1.701   2.985  2.1734  0.7201 -1.4108
 7898TIP3    H245110   0.370   1.827   3.069  0.5066  0.6584 -1.4085
 7899TIP3   OH245111   4.667   3.991  13.551 -0.4544 -0.2034 -0.5714
 7899TIP3    H145112   4.626   3.907  13.529 -1.4833  0.1107  0.0969
 7899TIP3    H245113   4.644   4.006  13.643  1.0523  0.0611 -0.2165
 7900TIP3   OH245114   0.700   2.487  14.656  0.1988  0.3614  0.8456
 7900TIP3    H145115   0.644   2.524  14.723  0.0786  1.5846  0.0902
 7900TIP3    H245116   0.688   2.544  14.580  1.1333 -0.3755  0.1223
 7901TIP3   OH245117   4.365   3.623  13.800  0.1756 -0.4506  0.5194
 7901TIP3    H145118   4.301   3.665  13.743  0.9345  2.8307  1.8379
 7901TIP3    H245119   4.335   3.642  13.889  1.3243 -1.5692  1.1931
 7902TIP3   OH245120   0.011   1.539  10.208 -0.0135  0.2666  0.1324
 7902TIP3    H145121   0.037   1.617  10.257 -0.5218  0.8422 -0.5080
 7902TIP3    H245122  -0.046   1.571  10.139  0.7913 -0.5228 -0.9288
 7903TIP3   OH245123   1.348   2.742   2.535  0.2549 -0.5133 -0.5758
 7903TIP3    H145124   1.318   2.737   2.444 -0.2076 -1.3251 -0.3930
 7903TIP3    H245125   1.284   2.799   2.578  1.2207  0.9512 -1.0318
 7904TIP3   OH245126   2.919   0.817   4.839 -0.3174  0.3759  0.0467
 7904TIP3    H145127   2.943   0.762   4.913  3.4953  0.0579 -1.2077
 7904TIP3    H245128   2.929   0.760   4.762 -1.6747  1.3789 -0.9407
 7905TIP3   OH245129   0.155   4.064  12.673 -0.0367 -0.0385  0.4251
 7905TIP3    H145130   0.242   4.101  12.655  1.4626 -1.9393  2.9996
 7905TIP3    H245131   0.136   4.092  12.763 -1.8933 -0.1062  0.0873
 7906TIP3   OH245132   0.406   2.140   1.929  0.3285 -0.8928 -0.1575
 7906TIP3    H145133   0.322   2.148   1.975 -0.9093  1.2592 -2.5662
 7906TIP3    H245134   0.471   2.140   1.999 -1.4831  1.0871  1.6850
 7907TIP3   OH245135   5.236   0.067  14.183  0.7480 -0.3078 -0.2524
 7907TIP3    H145136   5.204   0.015  14.109 -1.7556 -0.8407  1.0968
 7907TIP3    H245137   5.327   0.041  14.194  0.5996 -1.6519 -1.9232
 7908TIP3   OH245138   3.261   6.616  15.211  0.5727 -0.3596  0.2179
 7908TIP3    H145139   3.192   6.637  15.275 -0.7470 -1.6194 -0.7236
 7908TIP3    H245140   3.261   6.521  15.206  0.2203 -0.2914 -2.0715
 7909TIP3   OH245141   0.642   1.205  15.876  0.4623  0.3096 -0.1003
 7909TIP3    H145142   0.557   1.205  15.921  0.5994 -1.1161  0.1937
 7909TIP3    H245143   0.619   1.198  15.783  0.2536 -2.2014  0.0857
 7910TIP3   OH245144   4.642   1.835   1.296  0.1072  0.2346 -0.1081
 7910TIP3    H145145   4.549   1.814   1.287  0.1041  0.8914 -1.8309
 7910TIP3    H245146   4.684   1.790   1.223  1.0957  0.3463  0.3746
 7911TIP3   OH245147   1.906   6.692  15.644  0.1200 -0.0960  0.4766
 7911TIP3    H145148   1.821   6.658  15.616  0.4029 -0.4475  0.0367
 7911TIP3    H245149   1.961   6.614  15.655  0.8954  0.2217 -0.9267
 7912TIP3   OH245150   2.291   4.195  15.734  0.0072  0.4067  0.3148
 7912TIP3    H145151   2.316   4.105  15.752  0.6224  0.4504 -0.2723
 7912TIP3    H245152   2.199   4.190  15.707 -0.0277 -0.0072  0.5037
 7913TIP3   OH245153   0.365   1.493  14.070 -0.1779 -0.2547 -0.8097
 7913TIP3    H145154   0.455   1.510  14.042  0.2062  0.3579  0.6984
 7913TIP3    H245155   0.369   1.495  14.166 -1.5740 -1.4119 -0.6915
 7914TIP3   OH245156   0.626   1.914   3.947  0.1707  0.6917  0.0884
 7914TIP3    H145157   0.555   1.975   3.966  0.4466  0.9679  0.2419
 7914TIP3    H245158   0.582   1.838   3.908  0.0053  1.7354 -1.8687
 7915TIP3   OH245159   6.220   3.083  11.132 -0.6130  0.1624 -0.1041
 7915TIP3    H145160   6.289   3.149  11.119  2.0970 -1.8075  2.7424
 7915TIP3    H245161   6.174   3.112  11.211 -0.7362 -0.3000 -0.0043
 7916TIP3   OH245162   4.189   4.384  15.176 -0.6628  0.5036 -0.2853
 7916TIP3    H145163   4.246   4.437  15.120  2.0123 -2.0178 -0.1950
 7916TIP3    H245164   4.124   4.348  15.117 -0.3025  1.0021 -0.9994
 7917TIP3   OH245165   4.389   3.747   6.302 -0.6445  0.0934 -0.3445
 7917TIP3    H145166   4.360   3.811   6.367 -1.7804 -0.0790 -0.6578
 7917TIP3    H245167   4.323   3.753   6.232 -0.4160 -0.9629 -0.6632
 7918TIP3   OH245168   4.767   6.658   5.871  0.3230  0.3925  0.2281
 7918TIP3    H145169   4.794   6.573   5.904 -1.2040 -0.6367 -1.0265
 7918TIP3    H245170   4.846   6.695   5.831  1.2664  0.0814  1.7327
 7919TIP3   OH245171   0.889   2.817  13.094 -0.5844  0.0736 -0.0051
 7919TIP3    H145172   0.826   2.802  13.024 -0.8511  0.3373  0.1760
 7919TIP3    H245173   0.857   2.895  13.139 -1.7452 -1.4071  1.8778
 7920TIP3   OH245174   1.134   3.418   1.446  0.2404  0.5927  0.3952
 7920TIP3    H145175   1.205   3.483   1.447  0.5776  0.2303  0.1291
 7920TIP3    H245176   1.178   3.334   1.449 -0.0544  0.2893 -1.7096
 7921TIP3   OH245177   3.173   4.118  14.364 -0.0271  0.6312  0.3009
 7921TIP3    H145178   3.213   4.197  14.327  0.2183  0.3685  0.0015
 7921TIP3    H245179   3.094   4.149  14.407 -0.4989  0.9028 -0.7311
 7922TIP3   OH245180   6.466   5.336  13.024  0.2803 -0.7077 -0.1408
 7922TIP3    H145181   6.557   5.329  13.053  0.8696  1.8098 -1.0941
 7922TIP3    H245182   6.431   5.247  13.033  2.6815 -1.6617  0.6667
 7923TIP3   OH245183   3.903   1.245   1.384  0.5820  0.0584  0.2893
 7923TIP3    H145184   3.879   1.303   1.312  0.5808  1.5539  1.4374
 7923TIP3    H245185   3.821   1.231   1.431  0.6735 -0.5097  0.2801
 7924TIP3   OH245186   6.420   3.483  11.381 -0.0120  0.4194  0.1929
 7924TIP3    H145187   6.486   3.480  11.312  1.1013 -0.8254  1.2622
 7924TIP3    H245188   6.469   3.476  11.463 -1.4669 -1.1479  1.0227
 7925TIP3   OH245189   5.092   4.209   3.361  0.5106  0.1546 -0.1290
 7925TIP3    H145190   5.036   4.194   3.437  1.1440 -0.3716  0.2427
 7925TIP3    H245191   5.178   4.178   3.388  0.7196 -0.1451 -1.1025
 7926TIP3   OH245192   2.103   3.192   5.848 -0.2900 -0.2928 -0.0137
 7926TIP3    H145193   2.100   3.204   5.943 -0.0145  0.4937 -0.0959
 7926TIP3    H245194   2.014   3.214   5.819  0.0382  1.0112 -0.0912
 7927TIP3   OH245195   3.016   1.012  14.761  0.4758  0.5446  0.0351
 7927TIP3    H145196   3.061   1.079  14.712 -0.6691  1.2362 -0.1092
 7927TIP3    H245197   2.926   1.014  14.728  0.7215 -2.0562 -1.0250
 7928TIP3   OH245198   3.488   0.310  13.507  0.1501  0.1770  0.5897
 7928TIP3    H145199   3.516   0.389  13.552  2.0391  0.9629 -1.7436
 7928TIP3    H245200   3.490   0.333  13.414 -1.2516 -2.0276 -0.0767
 7929TIP3   OH245201   6.691   5.759  15.961 -0.7559  0.2123  0.0146
 7929TIP3    H145202   6.759   5.785  16.024  0.6647  0.1626 -1.4421
 7929TIP3    H245203   6.640   5.838  15.947  1.1113  1.2585 -1.3926
 7930TIP3   OH245204   0.882   6.681  14.286  0.0996  0.2784 -0.2898
 7930TIP3    H145205   0.810   6.744  14.297  0.9173  1.2451 -0.3616
 7930TIP3    H245206   0.860   6.609  14.345 -1.0680  0.4301 -0.5193
 7931TIP3   OH245207   6.719   0.859  15.203  0.1241 -0.3152 -0.4886
 7931TIP3    H145208   6.804   0.829  15.169  0.4782 -0.2572  0.3285
 7931TIP3    H245209   6.655   0.818  15.146  0.4923 -3.7114  1.2744
 7932TIP3   OH245210   1.402   4.786   6.471  0.0372 -0.4537  0.3258
 7932TIP3    H145211   1.489   4.792   6.431  0.4412  0.4724  1.2982
 7932TIP3    H245212   1.381   4.877   6.495 -0.9552 -0.7518  0.6140
 7933TIP3   OH245213   2.773   1.733   1.477 -0.1243 -0.1673  0.3012
 7933TIP3    H145214   2.741   1.794   1.543 -3.2319 -2.3360  1.0236
 7933TIP3    H245215   2.758   1.778   1.393 -0.7292  0.7124  0.8629
 7934TIP3   OH245216   2.757   6.184  13.021 -0.1100  0.3960 -1.1662
 7934TIP3    H145217   2.670   6.222  13.034 -0.1029  0.2198 -0.5660
 7934TIP3    H245218   2.813   6.232  13.082  0.2073  0.4717 -1.5100
 7935TIP3   OH245219   6.497   0.805  12.526 -0.1412  0.6330 -0.1263
 7935TIP3    H145220   6.501   0.731  12.586  0.4952 -0.0006 -0.9228
 7935TIP3    H245221   6.507   0.766  12.439 -1.6458  1.4616 -0.7042
 7936TIP3   OH245222   6.606   2.312  11.319 -0.1660  0.2295  0.3850
 7936TIP3    H145223   6.614   2.235  11.376  2.2773  0.5042  0.5143
 7936TIP3    H245224   6.605   2.276  11.230 -1.1264 -0.0407  0.4952
 7937TIP3   OH245225   3.023   5.627   6.055 -0.3667  0.9301 -0.5092
 7937TIP3    H145226   2.947   5.685   6.052 -1.7479 -0.7441  0.2666
 7937TIP3    H245227   3.058   5.636   6.143 -0.7778  0.3628 -0.2847
 7938TIP3   OH245228   6.079   3.986  13.567  0.3539 -0.5549  0.4196
 7938TIP3    H145229   6.133   4.063  13.546 -0.2387  0.1976  1.5311
 7938TIP3    H245230   6.101   3.922  13.499 -2.7212  2.2251 -3.7645
 7939TIP3   OH245231   2.249   6.590   5.503 -0.0207 -0.2152  0.1763
 7939TIP3    H145232   2.282   6.502   5.517  2.7876  0.3078 -2.1703
 7939TIP3    H245233   2.234   6.625   5.591  1.5261 -2.0683  1.2442
 7940TIP3   OH245234   5.347   5.400   1.051  0.3053  0.0277 -0.3831
 7940TIP3    H145235   5.397   5.460   1.105 -0.0541  0.6642 -0.7536
 7940TIP3    H245236   5.293   5.351   1.114  0.1046  0.5552 -0.1384
 7941TIP3   OH245237   1.919   5.829  13.470 -0.5866  0.4625  0.0695
 7941TIP3    H145238   2.015   5.829  13.465 -0.4569  3.2134  0.8629
 7941TIP3    H245239   1.892   5.761  13.409  1.8684 -0.2436 -0.3458
 7942TIP3   OH245240   6.489   4.089  17.019  0.2351  0.7022  0.0148
 7942TIP3    H145241   6.476   4.019  16.955 -1.2934 -0.1331  1.1762
 7942TIP3    H245242   6.477   4.170  16.968 -0.9074  0.0623 -0.7938
 7943TIP3   OH245243   3.178   0.411   2.422  0.3536  0.0098  0.0513
 7943TIP3    H145244   3.252   0.357   2.449 -0.0437 -0.3140  0.4995
 7943TIP3    H245245   3.203   0.444   2.335  2.2908  2.2411  1.3397
 7944TIP3   OH245246   5.616   2.789  11.900 -0.6472 -0.1861 -0.0767
 7944TIP3    H145247   5.576   2.804  11.986 -1.3840 -0.5038 -0.3508
 7944TIP3    H245248   5.655   2.873  11.876  1.3528 -0.5968  1.4469
 7945TIP3   OH245249   1.164   2.397  15.946  0.7282  0.3897 -0.0719
 7945TIP3    H145250   1.194   2.369  16.032  0.5893  0.3954 -0.0205
 7945TIP3    H245251   1.115   2.478  15.962 -0.3769 -0.2687  0.0199
 7946TIP3   OH245252   2.888   2.664   0.278  0.5338  0.0830  0.7013
 7946TIP3    H145253   2.825   2.734   0.297 -0.4658 -0.7865  0.6555
 7946TIP3    H245254   2.835   2.585   0.269  1.3448 -0.2762 -1.7888
 7947TIP3   OH245255   5.133   1.196   0.158 -0.5511 -0.5552 -0.0009
 7947TIP3    H145256   5.205   1.145   0.120 -0.6108 -0.6618  0.0294
 7947TIP3    H245257   5.139   1.178   0.252  0.4888  0.8180  0.2310
 7948TIP3   OH245258   3.941   5.771  13.737  0.3703 -0.2069  0.3480
 7948TIP3    H145259   3.988   5.783  13.820 -0.5223 -0.3534  0.8848
 7948TIP3    H245260   3.920   5.860  13.709  0.7778 -0.1502  0.2119
 7949TIP3   OH245261   2.500   5.008  16.205 -0.4420 -0.2263 -0.1973
 7949TIP3    H145262   2.588   5.028  16.172  0.2645 -0.2047  1.5787
 7949TIP3    H245263   2.496   5.051  16.290 -1.1721 -2.4075  0.9681
 7950TIP3   OH245264   2.275   3.622   4.032  0.0874 -0.0802  0.1518
 7950TIP3    H145265   2.347   3.670   3.993  0.1701 -0.5451 -0.2767
 7950TIP3    H245266   2.246   3.562   3.964 -0.3724 -0.2527  0.4909
 7951TIP3   OH245267   3.805   1.114   5.100  0.2838 -0.5762  0.3887
 7951TIP3    H145268   3.891   1.130   5.138 -0.7411  0.9614  2.2642
 7951TIP3    H245269   3.746   1.168   5.152 -1.4265  0.9097 -2.7963
 7952TIP3   OH245270   6.060   4.572   4.307 -0.3554 -0.1980 -0.1455
 7952TIP3    H145271   5.970   4.582   4.276 -0.5750  0.2487  0.6241
 7952TIP3    H245272   6.052   4.562   4.402  0.3749 -0.6379 -0.1199
 7953TIP3   OH245273   5.466   6.221   1.752  0.9304  0.0310 -0.2287
 7953TIP3    H145274   5.478   6.206   1.658  1.3673  4.2615 -1.0345
 7953TIP3    H245275   5.371   6.224   1.763  0.8736 -0.5425 -0.5207
 7954TIP3   OH245276   6.729   3.148  12.452  0.0072 -0.1941 -0.3629
 7954TIP3    H145277   6.699   3.203  12.525 -1.5384  0.0026 -1.1150
 7954TIP3    H245278   6.752   3.210  12.383  1.0271 -0.3990 -0.2193
 7955TIP3   OH245279   2.303   4.039   0.823  0.1304  0.5461 -0.0538
 7955TIP3    H145280   2.308   3.996   0.909 -0.9637  1.1209  0.3293
 7955TIP3    H245281   2.209   4.044   0.805  0.3775 -0.1428 -1.5986
 7956TIP3   OH245282   6.595   4.609   0.384  0.0552  0.1595 -0.4258
 7956TIP3    H145283   6.570   4.693   0.422 -0.8928 -0.1141 -0.4221
 7956TIP3    H245284   6.665   4.630   0.322  0.4089  0.8318  0.1885
 7957TIP3   OH245285   6.668   0.195  15.177  0.0650 -0.8991 -0.0822
 7957TIP3    H145286   6.741   0.217  15.235  0.6748 -1.4376 -0.6238
 7957TIP3    H245287   6.613   0.137  15.230 -0.4601  0.2115  0.6343
 7958TIP3   OH245288   2.921   5.361   4.981 -0.4323  0.2144  0.5323
 7958TIP3    H145289   2.873   5.391   4.904  1.1621 -2.7281 -1.8264
 7958TIP3    H245290   3.004   5.408   4.978 -0.0636 -0.4553 -0.0429
 7959TIP3   OH245291   2.451   2.823  14.645 -0.4868  0.0149  0.1989
 7959TIP3    H145292   2.511   2.751  14.663 -0.5481  0.0501  0.5677
 7959TIP3    H245293   2.403   2.797  14.566 -0.0799 -0.0707 -0.0175
 7960TIP3   OH245294   1.181   5.797   3.861 -0.2431 -0.2906  0.4240
 7960TIP3    H145295   1.192   5.735   3.933 -0.5642 -1.3880 -0.4440
 7960TIP3    H245296   1.271   5.817   3.833 -0.0164  1.6312  2.3143
 7961TIP3   OH245297   1.508   4.325  12.737 -0.1816  0.1383 -0.3725
 7961TIP3    H145298   1.565   4.402  12.743  0.3571 -0.3540  1.6746
 7961TIP3    H245299   1.537   4.279  12.659  2.4378 -0.2090  0.7200
 7962TIP3   OH245300   0.456   6.294  14.592 -0.0926  0.6411 -0.1958
 7962TIP3    H145301   0.482   6.261  14.506 -1.6072  0.2137 -0.5208
 7962TIP3    H245302   0.475   6.388  14.588  1.5303  0.3314 -0.3223
 7963TIP3   OH245303   4.363   0.425   5.614 -0.1646 -0.0724  0.1828
 7963TIP3    H145304   4.416   0.410   5.535 -1.0030  3.3546 -1.2084
 7963TIP3    H245305   4.414   0.487   5.665 -1.8010  1.6432 -0.1691
 7964TIP3   OH245306   4.585   4.668  14.214 -0.1955 -0.7693  0.2393
 7964TIP3    H145307   4.523   4.738  14.194 -0.4085 -0.8034  0.7548
 7964TIP3    H245308   4.662   4.688  14.162 -1.5403 -2.1428 -2.4759
 7965TIP3   OH245309   5.782   5.840  11.634 -0.6153 -0.4853  0.0574
 7965TIP3    H145310   5.785   5.877  11.545 -0.6004 -0.6253 -0.0006
 7965TIP3    H245311   5.799   5.746  11.621 -0.3410 -0.4587  0.2388
 7966TIP3   OH245312   3.803   5.303   6.108 -0.9492  0.0419 -0.2492
 7966TIP3    H145313   3.823   5.394   6.128 -1.5105 -0.2212  1.7514
 7966TIP3    H245314   3.848   5.285   6.025  1.0603  1.4857  0.4782
 7967TIP3   OH245315   3.675   3.075  13.255  0.1591  0.4885  0.3578
 7967TIP3    H145316   3.618   3.063  13.331  0.7030 -0.7621  0.6035
 7967TIP3    H245317   3.743   3.134  13.286  0.6942 -0.4525  1.0565
 7968TIP3   OH245318   4.167   4.566   4.929 -0.3349 -0.4562  0.0716
 7968TIP3    H145319   4.245   4.619   4.945 -0.5182  0.9868 -3.1098
 7968TIP3    H245320   4.099   4.606   4.983  0.3876  0.2145  0.5087
 7969TIP3   OH245321   4.293   5.051   1.601  0.3892  0.4351  0.5169
 7969TIP3    H145322   4.219   5.046   1.662 -0.8639  0.4553 -0.9135
 7969TIP3    H245323   4.309   5.144   1.590  0.9232  0.4216  1.1555
 7970TIP3   OH245324   2.298   2.742   6.294  0.1953 -0.1154  0.1944
 7970TIP3    H145325   2.261   2.830   6.285  0.0663 -0.1347  0.4973
 7970TIP3    H245326   2.392   2.753   6.281  0.1574  0.0401  0.0556
 7971TIP3   OH245327   4.123   5.055   3.094  0.2116 -0.1675  0.1447
 7971TIP3    H145328   4.161   4.969   3.109 -2.2232 -1.3639 -0.0074
 7971TIP3    H245329   4.178   5.115   3.144  2.4775 -1.6592 -0.4396
 7972TIP3   OH245330   5.991   4.126   6.891 -0.2781 -0.2752 -0.2438
 7972TIP3    H145331   5.901   4.094   6.886 -0.8527  1.2153 -0.1305
 7972TIP3    H245332   5.987   4.213   6.850  1.2112 -0.3773 -0.6654
 7973TIP3   OH245333   5.719   5.042   4.454  0.2185 -0.7749  0.3032
 7973TIP3    H145334   5.681   5.074   4.536  1.3853 -0.9997  0.9525
 7973TIP3    H245335   5.644   5.016   4.401 -0.7771  2.1838  0.0860
 7974TIP3   OH245336   1.276   1.890  13.284  0.7353  0.4735 -0.2963
 7974TIP3    H145337   1.353   1.886  13.341 -0.3492  0.1959  1.1999
 7974TIP3    H245338   1.242   1.979  13.295 -1.2330 -0.4364  1.9962
 7975TIP3   OH245339   4.624   5.348   0.009  0.1842 -0.0685 -0.5029
 7975TIP3    H145340   4.675   5.281  -0.036  0.8556 -1.6444  2.3763
 7975TIP3    H245341   4.677   5.427   0.002  2.4683 -1.3177  1.1435
 7976TIP3   OH245342   0.286   2.742  11.329  0.6026  0.0622  0.1363
 7976TIP3    H145343   0.289   2.652  11.298  1.2194  0.3293 -0.6000
 7976TIP3    H245344   0.359   2.785  11.286  1.9092  0.3055  2.4398
 7977TIP3   OH245345   2.608   3.252   2.915  0.0283  0.4679  0.0283
 7977TIP3    H145346   2.537   3.293   2.866  0.1940 -0.1175 -0.7228
 7977TIP3    H245347   2.686   3.266   2.862  0.2346 -0.0566  0.1810
 7978TIP3   OH245348   6.571   2.868   3.129  0.2600  0.0371 -0.0503
 7978TIP3    H145349   6.497   2.807   3.139  0.8654 -0.6625  0.2582
 7978TIP3    H245350   6.633   2.841   3.196  0.4499  1.1524  0.2326
 7979TIP3   OH245351   4.519   2.260   4.853  0.5106 -0.1477  0.4727
 7979TIP3    H145352   4.437   2.243   4.806 -0.2654  0.2551  1.6215
 7979TIP3    H245353   4.572   2.182   4.839  0.6372  0.2836 -1.6882
 7980TIP3   OH245354   1.446   3.940   1.355 -0.5471  0.1487 -0.2087
 7980TIP3    H145355   1.495   4.020   1.379  0.8049 -1.2275  1.9908
 7980TIP3    H245356   1.380   3.971   1.294 -1.1965  3.3061  1.7936
 7981TIP3   OH245357   2.837   1.558  12.205  0.0461 -0.3542  0.0430
 7981TIP3    H145358   2.898   1.487  12.190 -0.4733 -0.6562 -0.7007
 7981TIP3    H245359   2.864   1.596  12.289 -0.2107 -1.9674  0.8820
 7982TIP3   OH245360   4.595   2.427   1.745 -0.0294  0.6518 -0.1480
 7982TIP3    H145361   4.536   2.365   1.786  0.5506  0.3392  0.2183
 7982TIP3    H245362   4.606   2.497   1.809  0.1140  0.6378 -0.1560
 7983TIP3   OH245363   6.211   0.177  16.957  0.2831  0.8964  0.2718
 7983TIP3    H145364   6.213   0.261  17.002  2.3893  1.4342 -0.6649
 7983TIP3    H245365   6.303   0.148  16.956 -0.5256 -2.2549  1.9822
 7984TIP3   OH245366   3.038   4.126  13.503 -0.0163 -0.0389  0.1287
 7984TIP3    H145367   2.972   4.155  13.565  1.8934  1.5898  1.5237
 7984TIP3    H245368   3.103   4.079  13.556  0.4878 -0.7208 -1.0317
 7985TIP3   OH245369   0.028   2.343  16.604  0.1938  0.6165  0.0250
 7985TIP3    H145370   0.110   2.386  16.580 -0.1529  0.7712 -0.9155
 7985TIP3    H245371  -0.038   2.385  16.549 -0.2740 -0.5766 -0.3513
 7986TIP3   OH245372   0.366   3.317   3.460 -0.5346  1.1783  0.1303
 7986TIP3    H145373   0.344   3.266   3.538 -1.6986 -0.9587 -1.5048
 7986TIP3    H245374   0.461   3.317   3.457 -0.5008 -0.0313  0.7247
 7987TIP3   OH245375   1.361   3.082  15.280  0.2853 -0.0489 -0.7022
 7987TIP3    H145376   1.437   3.139  15.289 -1.1777  2.0292 -0.7859
 7987TIP3    H245377   1.389   2.998  15.316  1.9328  1.2598  1.2778
 7988TIP3   OH245378   2.429   0.876   1.623 -0.0450 -0.2772 -0.8216
 7988TIP3    H145379   2.485   0.810   1.663 -1.0893 -0.4246  0.4524
 7988TIP3    H245380   2.488   0.927   1.568  1.7942  0.8035  1.9185
 7989TIP3   OH245381   3.883   4.914   2.257  0.5949  0.5603 -0.5163
 7989TIP3    H145382   3.965   4.946   2.296  0.3899 -0.1001  0.4900
 7989TIP3    H245383   3.819   4.918   2.328 -0.4614  1.7946 -1.4970
 7990TIP3   OH245384   0.025   5.603  14.846 -0.2749  0.2375  0.5279
 7990TIP3    H145385   0.045   5.687  14.803 -1.5214  0.8292  1.0401
 7990TIP3    H245386   0.004   5.544  14.774 -2.5110  1.2658  0.2504
 7991TIP3   OH245387   4.063   1.241  16.930 -0.0785  0.3202 -0.2564
 7991TIP3    H145388   3.983   1.286  16.903  0.1268  0.0637 -1.3041
 7991TIP3    H245389   4.124   1.313  16.952  0.7228  0.6976 -3.2439
 7992TIP3   OH245390   5.419   2.840   1.166  0.0525 -0.0444 -0.5075
 7992TIP3    H145391   5.345   2.872   1.217  0.0981 -0.0818 -0.4169
 7992TIP3    H245392   5.490   2.831   1.230  0.4253  0.9465 -0.7616
 7993TIP3   OH245393   2.128   3.469   1.790  0.7610 -0.3835  0.0146
 7993TIP3    H145394   2.201   3.436   1.737 -0.7574 -0.4479 -2.1788
 7993TIP3    H245395   2.096   3.545   1.742 -1.5823 -1.2922  0.0124
 7994TIP3   OH245396   3.139   1.987  15.633 -0.5190  0.1874  0.0777
 7994TIP3    H145397   3.166   1.896  15.617 -1.9817 -0.5750  1.7216
 7994TIP3    H245398   3.055   1.995  15.589 -1.7662 -0.1674  2.2800
 7995TIP3   OH245399   6.326   4.932   1.725  0.7353 -0.5542  0.9016
 7995TIP3    H145400   6.243   4.980   1.733  1.0082  0.1556 -0.2742
 7995TIP3    H245401   6.393   4.995   1.751  1.1256 -0.1290 -0.9847
 7996TIP3   OH245402   3.679   5.296  13.191 -0.3028  0.3267  0.1082
 7996TIP3    H145403   3.609   5.241  13.154  0.8389 -1.6544  0.7589
 7996TIP3    H245404   3.633   5.357  13.249 -1.5816 -0.4327 -0.0652
 7997TIP3   OH245405   0.657   2.389  14.932 -0.0267 -1.1276  0.3705
 7997TIP3    H145406   0.671   2.383  14.837 -0.0285  1.8091  0.0661
 7997TIP3    H245407   0.744   2.372  14.970  0.5319 -0.0665 -0.3613
 7998TIP3   OH245408   2.335   4.112   5.007  0.1211 -0.3209 -0.3052
 7998TIP3    H145409   2.283   4.041   4.968 -0.9510 -0.0674  0.6046
 7998TIP3    H245410   2.399   4.067   5.062 -0.8432 -0.6082  0.6235
 7999TIP3   OH245411   0.249   4.715  16.164  0.1139  0.0947  0.2254
 7999TIP3    H145412   0.212   4.732  16.078 -1.1362 -2.7080  0.0921
 7999TIP3    H245413   0.318   4.650  16.148  0.6456  0.3917  1.2275
 8000TIP3   OH245414   3.439   3.879  10.648 -0.0772 -0.2788 -0.1620
 8000TIP3    H145415   3.476   3.807  10.700 -0.7428  0.4168  1.3221
 8000TIP3    H245416   3.347   3.854  10.635 -0.0749 -0.1362 -0.4650
 8001TIP3   OH245417   1.542   1.800  14.412 -0.6181  0.3331  0.0066
 8001TIP3    H145418   1.540   1.756  14.497 -2.8421 -1.6131 -0.9593
 8001TIP3    H245419   1.614   1.759  14.365  0.7192  1.5208  0.9213
 8002TIP3   OH245420   5.835   1.521  12.694  0.3681 -0.1517 -0.3047
 8002TIP3    H145421   5.822   1.479  12.609 -0.0600  0.4298 -0.5349
 8002TIP3    H245422   5.747   1.545  12.723  0.2971 -1.9644  1.1704
 8003TIP3   OH245423   2.240   5.898  11.529  0.5810 -0.6422  0.2334
 8003TIP3    H145424   2.313   5.951  11.561  0.4588 -0.1160 -0.3353
 8003TIP3    H245425   2.238   5.822  11.586  2.6351 -1.5094 -0.7562
 8004TIP3   OH245426   2.750   3.158   5.407 -0.0834 -0.1052 -0.3134
 8004TIP3    H145427   2.715   3.210   5.479  0.8125 -1.5393  1.2507
 8004TIP3    H245428   2.820   3.213   5.370 -1.9234  1.5263 -1.5381
 8005TIP3   OH245429   5.928   4.380  15.118 -0.4305 -0.9753  0.0509
 8005TIP3    H145430   5.911   4.411  15.208 -1.4563 -0.9777 -0.1211
 8005TIP3    H245431   5.924   4.460  15.065 -0.5424 -1.0672 -0.0790
 8006TIP3   OH245432   6.447   1.306  16.790 -0.2621  0.6965 -0.3353
 8006TIP3    H145433   6.434   1.393  16.826 -1.4136  0.6410 -0.5858
 8006TIP3    H245434   6.519   1.316  16.727 -0.1064  1.3652 -0.0504
 8007TIP3   OH245435   4.244   4.890   2.156  0.1112 -0.2546  0.4286
 8007TIP3    H145436   4.238   4.838   2.237 -1.0293 -1.4590 -0.3829
 8007TIP3    H245437   4.181   4.849   2.097 -0.0792  1.4595 -0.6156
 8008TIP3   OH245438   3.285   1.508   2.972 -0.4945 -0.6028 -0.5986
 8008TIP3    H145439   3.322   1.593   2.948  0.3534 -1.1260 -1.2039
 8008TIP3    H245440   3.191   1.525   2.982 -0.3168  0.4370 -0.5484
 8009TIP3   OH245441   1.411   3.156  11.888  0.2872 -0.3647 -0.5107
 8009TIP3    H145442   1.355   3.122  11.819 -0.0353 -1.5851  0.3222
 8009TIP3    H245443   1.498   3.163  11.848 -0.1691  0.2436 -1.4154
 8010TIP3   OH245444   5.066   0.274   2.480  0.5917 -0.3299 -0.3959
 8010TIP3    H145445   5.151   0.237   2.505 -0.0980 -1.9624 -0.3466
 8010TIP3    H245446   5.087   0.361   2.446  2.3341 -0.8293 -0.7042
 8011TIP3   OH245447   0.580   4.376  16.949  0.5463  1.0889 -0.4365
 8011TIP3    H145448   0.575   4.320  16.871 -1.8277  0.7298 -0.0972
 8011TIP3    H245449   0.489   4.392  16.973  1.1516  0.3646  2.8751
 8012TIP3   OH245450   6.754   2.564  12.655  0.3986 -0.4042  0.3985
 8012TIP3    H145451   6.823   2.552  12.590 -0.0174 -0.4215 -0.0464
 8012TIP3    H245452   6.717   2.651  12.635  0.2181 -0.4434  0.5578
 8013TIP3   OH245453   0.352   0.031  12.967  0.0530 -0.2381 -0.0251
 8013TIP3    H145454   0.310   0.112  12.936 -0.2343 -0.4215 -0.1271
 8013TIP3    H245455   0.353   0.039  13.062 -1.5216 -0.8414  0.0830
 8014TIP3   OH245456   1.898   5.395   0.538 -0.3568  0.1587 -0.2373
 8014TIP3    H145457   1.811   5.378   0.501 -0.6950  1.5670 -0.1595
 8014TIP3    H245458   1.936   5.460   0.479  0.6744 -0.4693 -0.2864
 8015TIP3   OH245459   5.910   4.924  16.837 -1.1196 -0.2542  0.3569
 8015TIP3    H145460   5.914   4.980  16.915 -2.0553  0.5545 -0.1560
 8015TIP3    H245461   5.942   4.978  16.766  2.1083 -1.7517  0.4924
 8016TIP3   OH245462   6.169   6.391   5.727  0.2938 -0.1067  0.0287
 8016TIP3    H145463   6.132   6.466   5.680  2.1013  1.2350  0.6444
 8016TIP3    H245464   6.097   6.362   5.784 -0.5048  1.0598 -0.3358
 8017TIP3   OH245465   5.577   1.271  14.476 -0.4228  0.0288 -0.5898
 8017TIP3    H145466   5.619   1.218  14.408  0.8895 -1.2980  1.1472
 8017TIP3    H245467   5.500   1.221  14.501  0.8771 -1.2515  1.1301
 8018TIP3   OH245468   3.970   0.884  14.141 -0.2144 -0.3060  0.1856
 8018TIP3    H145469   3.991   0.971  14.107  0.6465  0.1723  1.8046
 8018TIP3    H245470   4.055   0.842  14.155 -0.4577 -0.2651  2.1344
 8019TIP3   OH245471   6.532   6.695   1.297  0.0153 -0.1367 -0.4694
 8019TIP3    H145472   6.581   6.741   1.365 -3.6292  0.3689  2.0995
 8019TIP3    H245473   6.508   6.764   1.235 -1.8742  0.7469  1.1466
 8020TIP3   OH245474   2.295   3.803  16.143  0.0840  0.6434 -0.4276
 8020TIP3    H145475   2.282   3.887  16.100 -0.9693 -0.2846 -1.9992
 8020TIP3    H245476   2.390   3.798  16.157  0.1460  2.1261 -0.1618
 8021TIP3   OH245477   3.868   4.352   2.011  0.1497 -0.0671  0.7217
 8021TIP3    H145478   3.934   4.410   1.973 -0.7115  1.7089  1.7974
 8021TIP3    H245479   3.823   4.406   2.075  0.3016 -2.3908  2.9412
 8022TIP3   OH245480   6.044   3.785  11.416 -0.1882  0.1689 -0.1880
 8022TIP3    H145481   5.969   3.756  11.363 -0.8356 -0.3437  0.9780
 8022TIP3    H245482   6.051   3.879  11.399  0.7468 -0.2491 -2.5573
 8023TIP3   OH245483   1.435   0.000  17.229  0.2321  0.3394 -0.5336
 8023TIP3    H145484   1.455  -0.045  17.147 -1.3458 -3.7264  1.0808
 8023TIP3    H245485   1.339   0.001  17.233  0.2375  2.1485  0.5052
 8024TIP3   OH245486   6.108   1.649  12.038  0.2666  0.0912 -0.3822
 8024TIP3    H145487   6.102   1.554  12.052  0.3436  0.0087 -0.9155
 8024TIP3    H245488   6.080   1.662  11.948 -2.0428  0.8200  0.3712
 8025TIP3   OH245489   3.053   3.129   2.883  0.0222  0.0097  0.1885
 8025TIP3    H145490   2.973   3.178   2.900 -0.0514 -0.2538  0.6159
 8025TIP3    H245491   3.031   3.039   2.908 -0.2501 -0.5107 -1.7427
 8026TIP3   OH245492   1.906   2.396  15.990 -0.1290 -0.0202  0.6173
 8026TIP3    H145493   1.853   2.319  16.008 -2.3789  1.3147  0.1305
 8026TIP3    H245494   1.899   2.409  15.895  0.6430  0.4916  0.6168
 8027TIP3   OH245495   1.396   3.668  14.772 -0.4129  0.3671  0.0737
 8027TIP3    H145496   1.328   3.699  14.832 -1.6993 -1.1041 -0.5707
 8027TIP3    H245497   1.387   3.573  14.772 -0.8521  0.3159 -2.8490
 8028TIP3   OH245498   5.675   0.320   5.912  0.0124 -0.3008  0.3609
 8028TIP3    H145499   5.728   0.366   5.847 -0.5650 -0.2060 -0.0521
 8028TIP3    H245500   5.648   0.239   5.868 -0.1832 -0.3495  0.5718
 8029TIP3   OH245501   3.219   3.937   0.741  0.0295  0.0478  0.6392
 8029TIP3    H145502   3.306   3.896   0.748 -0.1973 -0.6570 -0.3778
 8029TIP3    H245503   3.158   3.865   0.758 -0.3710  0.5517  1.3978
 8030TIP3   OH245504   4.521   1.379   3.150  0.7196 -0.0746  0.2163
 8030TIP3    H145505   4.564   1.388   3.235  2.2519  1.8876 -0.6860
 8030TIP3    H245506   4.591   1.351   3.091 -0.3585 -1.5924 -0.4132
 8031TIP3   OH245507   1.494   0.882   2.782  0.0115 -0.3545 -0.1759
 8031TIP3    H145508   1.516   0.829   2.858  0.2021 -1.3368 -0.8898
 8031TIP3    H245509   1.434   0.949   2.815 -0.2444 -1.0248  0.7453
 8032TIP3   OH245510   1.394   3.835   2.701  0.4252 -0.5226  0.0380
 8032TIP3    H145511   1.400   3.910   2.760  0.8247 -2.1177  2.1538
 8032TIP3    H245512   1.300   3.819   2.692  0.2982  0.6501 -1.0792
 8033TIP3   OH245513   0.260   5.821  12.464  0.3362 -0.0151 -0.4293
 8033TIP3    H145514   0.234   5.910  12.441  0.5934  0.1385 -0.1202
 8033TIP3    H245515   0.223   5.807  12.551  1.4875  0.2893  0.1211
 8034TIP3   OH245516   3.727   3.894   0.582 -0.0214  0.0147 -0.9517
 8034TIP3    H145517   3.695   3.950   0.653 -0.3707 -0.1219 -1.0009
 8034TIP3    H245518   3.818   3.876   0.606 -0.7495 -1.9252  0.6990
 8035TIP3   OH245519   6.361   4.738  10.897  0.0758  0.7079  0.1563
 8035TIP3    H145520   6.355   4.643  10.884  2.7961  0.1908  1.8671
 8035TIP3    H245521   6.416   4.769  10.826  2.2838  0.3017  1.5684
 8036TIP3   OH245522   5.113   0.081  11.388  0.0827  0.1552 -0.7816
 8036TIP3    H145523   5.205   0.081  11.362  0.7036  2.0965  1.0911
 8036TIP3    H245524   5.116   0.078  11.483 -1.8361 -0.1565 -0.7061
 8037TIP3   OH245525   3.639   4.802   0.319  0.6537  0.3964 -0.0522
 8037TIP3    H145526   3.702   4.732   0.335  0.8129  0.6042  0.2312
 8037TIP3    H245527   3.570   4.788   0.384  0.0037 -0.3047 -0.8714
 8038TIP3   OH245528   4.290   4.850  13.838  0.1366  0.1635  0.0866
 8038TIP3    H145529   4.250   4.937  13.837  1.1651  0.7617 -3.5249
 8038TIP3    H245530   4.218   4.790  13.818  0.2115  0.8109 -2.4293
 8039TIP3   OH245531   3.052   4.958   6.099 -0.2513 -0.3917  0.0853
 8039TIP3    H145532   3.093   4.913   6.172  2.6283  0.2523 -0.9976
 8039TIP3    H245533   2.965   4.919   6.093 -0.9819  0.1435  4.3200
 8040TIP3   OH245534   6.020   0.889   2.057  0.4829  0.1659  0.1200
 8040TIP3    H145535   5.978   0.814   2.099  1.8395 -0.9666 -0.4834
 8040TIP3    H245536   5.976   0.965   2.095 -0.7510 -0.9103  0.9371
 8041TIP3   OH245537   5.663   3.044  11.885 -0.0920  0.1581  0.0370
 8041TIP3    H145538   5.646   3.112  11.950 -2.3764  0.2013 -0.5279
 8041TIP3    H245539   5.633   3.082  11.802 -0.0987 -1.0167 -0.5212
 8042TIP3   OH245540   2.555   1.134  15.485  0.0278  0.1264  0.0138
 8042TIP3    H145541   2.582   1.217  15.525  1.2850 -0.0226 -0.4761
 8042TIP3    H245542   2.462   1.146  15.466  0.3565  1.7729 -0.8004
 8043TIP3   OH245543   5.489   6.255  17.253 -0.1249 -0.3473  0.1876
 8043TIP3    H145544   5.481   6.164  17.225 -2.4593 -0.0322 -0.3166
 8043TIP3    H245545   5.446   6.306  17.185 -0.7032  0.9629  1.4626
 8044TIP3   OH245546   2.000   4.007  11.315 -0.1776  0.2163 -0.3517
 8044TIP3    H145547   2.060   4.048  11.252  0.7856  1.2326  1.1661
 8044TIP3    H245548   1.923   3.984  11.263  0.2153  1.8154 -1.7298
 8045TIP3   OH245549   2.857   4.313  11.386  0.3767  0.4609  0.5216
 8045TIP3    H145550   2.851   4.382  11.321  1.5212 -0.2528 -0.3961
 8045TIP3    H245551   2.771   4.272  11.387  0.0374  1.1669  0.2351
 8046TIP3   OH245552   0.963   5.268   5.601  0.5284  0.3150 -0.5200
 8046TIP3    H145553   0.895   5.252   5.667  0.9444 -0.5568 -0.2905
 8046TIP3    H245554   0.936   5.215   5.526  1.1501 -0.3528 -0.2848
 8047TIP3   OH245555   3.674   2.553   5.644  0.0642  0.1660  0.5523
 8047TIP3    H145556   3.736   2.482   5.626  0.7767  0.6374  1.0904
 8047TIP3    H245557   3.714   2.602   5.715 -2.2308 -1.1643  2.9546
 8048TIP3   OH245558   2.837   5.549  14.967  0.2005 -0.4352  0.1119
 8048TIP3    H145559   2.857   5.480  15.030  2.8265 -0.4410 -0.5999
 8048TIP3    H245560   2.783   5.507  14.900  2.4883 -2.1737 -0.7939
 8049TIP3   OH245561   2.904   3.331  15.791 -0.0734 -0.1233  0.2810
 8049TIP3    H145562   2.858   3.384  15.725 -1.7028 -1.4027  0.3202
 8049TIP3    H245563   2.859   3.351  15.873  0.1044 -0.6282  0.5066
 8050TIP3   OH245564   4.305   3.990   2.472  0.2949 -0.1015 -0.3877
 8050TIP3    H145565   4.232   3.959   2.525 -0.4906 -0.7569 -1.7805
 8050TIP3    H245566   4.264   4.024   2.393  1.4685  0.0297 -0.9667
 8051TIP3   OH245567   6.097   4.029   4.838 -0.1710 -0.5492  0.5928
 8051TIP3    H145568   6.186   4.058   4.818 -0.7853  0.1123 -1.3654
 8051TIP3    H245569   6.103   3.934   4.845  0.4747 -0.6214 -0.7661
 8052TIP3   OH245570   3.728   3.370   2.830 -0.1785 -0.6666 -0.5064
 8052TIP3    H145571   3.737   3.407   2.918  1.4970 -1.7506 -0.1871
 8052TIP3    H245572   3.636   3.386   2.807  0.0000  2.0135  0.3293
 8053TIP3   OH245573   2.096   3.229   4.279  0.4093  0.7513 -0.0884
 8053TIP3    H145574   2.188   3.220   4.301  0.5784 -0.7814 -1.1943
 8053TIP3    H245575   2.049   3.201   4.357  0.9448 -1.1332 -0.3952
 8054TIP3   OH245576   5.181   3.319   1.931  0.2909 -0.5521  0.2425
 8054TIP3    H145577   5.191   3.288   2.021  1.6759  1.7608  0.9585
 8054TIP3    H245578   5.171   3.414   1.939  0.9746 -0.2237 -2.0797
 8055TIP3   OH245579   2.573   0.706  13.741 -0.2479 -0.0858 -0.0205
 8055TIP3    H145580   2.632   0.754  13.799 -0.2576 -1.1177  0.8877
 8055TIP3    H245581   2.590   0.743  13.654  1.2323  0.1368  0.3225
 8056TIP3   OH245582   1.048   0.021  14.057 -0.1014  0.1964 -0.0746
 8056TIP3    H145583   1.007  -0.039  14.119 -0.5580  1.3561  0.7827
 8056TIP3    H245584   1.003   0.004  13.974 -0.6493 -0.2156  0.2970
 8057TIP3   OH245585   2.027   2.723   6.292  0.1849  0.0965 -0.1439
 8057TIP3    H145586   2.001   2.631   6.296 -0.1235  0.2176  1.0607
 8057TIP3    H245587   2.120   2.723   6.311 -0.3727  0.2394  3.2246
 8058TIP3   OH245588   3.807   1.714  11.245 -0.0113 -0.3179 -0.4161
 8058TIP3    H145589   3.857   1.687  11.168 -0.4031 -0.6863 -0.5441
 8058TIP3    H245590   3.815   1.641  11.306  0.3207 -0.0164 -0.0900
 8059TIP3   OH245591   3.442   2.918   5.096 -0.2523 -0.0142  0.7601
 8059TIP3    H145592   3.449   2.838   5.043 -2.3552  0.7260 -0.7461
 8059TIP3    H245593   3.439   2.887   5.186 -0.8526 -1.6403  0.2174
 8060TIP3   OH245594   2.616   3.145  15.757  0.0626  0.4522  0.3003
 8060TIP3    H145595   2.706   3.177  15.765  0.7663 -1.4857  0.8847
 8060TIP3    H245596   2.600   3.100  15.841  0.2550 -3.0728 -1.3493
 8061TIP3   OH245597   2.372   5.631  16.237  0.2037 -0.0434  0.0428
 8061TIP3    H145598   2.365   5.536  16.232 -1.0143 -0.0640  1.4237
 8061TIP3    H245599   2.339   5.653  16.325 -1.1872  1.7869 -0.8609
 8062TIP3   OH245600   1.662   3.297   3.393 -0.2898  0.2799 -0.0378
 8062TIP3    H145601   1.692   3.366   3.452 -0.0543  0.5569 -0.4796
 8062TIP3    H245602   1.697   3.216   3.431  1.1949  0.6078 -0.6407
 8063TIP3   OH245603   2.035   0.526   5.815  0.2012 -0.3649  0.0104
 8063TIP3    H145604   1.999   0.546   5.902  1.4499 -0.0000  0.4561
 8063TIP3    H245605   2.027   0.431   5.807 -0.9977 -0.2818  0.0221
 8064TIP3   OH245606   2.168   2.060   3.247 -0.3769 -0.5555  0.0114
 8064TIP3    H145607   2.257   2.046   3.280 -0.5708 -1.5932  0.1216
 8064TIP3    H245608   2.113   2.002   3.301 -1.2608  0.7621  0.5931
 8065TIP3   OH245609   1.067   6.219  11.419  0.3688  0.2371  0.1299
 8065TIP3    H145610   0.995   6.248  11.363 -1.2743 -2.1637  0.8739
 8065TIP3    H245611   1.045   6.130  11.443  2.8940 -0.0836  1.6204
 8066TIP3   OH245612   2.711   4.184   3.100 -0.6333 -0.1942 -0.3277
 8066TIP3    H145613   2.759   4.156   3.022  0.0634 -0.5710  0.2216
 8066TIP3    H245614   2.620   4.188   3.073 -0.7250 -2.6345 -0.5416
 8067TIP3   OH245615   4.190   2.142   1.370  0.3915  0.4078 -0.1789
 8067TIP3    H145616   4.261   2.205   1.381 -0.4309  1.1705  0.9250
 8067TIP3    H245617   4.234   2.059   1.352  1.5205  1.0597 -0.4976
 8068TIP3   OH245618   5.399   4.146   2.724  0.0587  0.2083  0.3300
 8068TIP3    H145619   5.312   4.133   2.685 -0.4424  1.0135  1.1590
 8068TIP3    H245620   5.392   4.228   2.772  1.4917  0.6296 -0.1407
 8069TIP3   OH245621   0.471   5.670  15.952  0.1405 -0.6260 -0.3246
 8069TIP3    H145622   0.463   5.663  15.857  0.4857  2.6574 -0.7376
 8069TIP3    H245623   0.382   5.687  15.982  0.1500 -0.8135 -0.1972
 8070TIP3   OH245624   2.938   5.216  12.268 -0.0204 -0.0150  0.4058
 8070TIP3    H145625   2.922   5.311  12.263  0.3786 -0.0249 -2.6936
 8070TIP3    H245626   2.874   5.178  12.209  0.5622 -1.5937  0.7540
 8071TIP3   OH245627   4.388   2.343   1.887  0.1794 -0.1991  0.4435
 8071TIP3    H145628   4.329   2.387   1.826  0.3151 -0.1078  0.3772
 8071TIP3    H245629   4.377   2.389   1.970  0.9059  0.4673  0.1731
 8072TIP3   OH245630   0.621   1.824   3.468  0.1058 -0.1769 -0.3034
 8072TIP3    H145631   0.557   1.762   3.505 -0.2245 -1.0767 -2.2253
 8072TIP3    H245632   0.571   1.904   3.454 -0.1586 -0.3276 -0.2321
 8073TIP3   OH245633   5.537   5.710   5.841  0.3858 -0.2481 -0.2164
 8073TIP3    H145634   5.501   5.652   5.907  1.0142  0.1463  0.4842
 8073TIP3    H245635   5.546   5.655   5.763  0.6483 -0.9943  0.3338
 8074TIP3   OH245636   2.260   2.453   6.280 -0.7395 -0.0768  0.1809
 8074TIP3    H145637   2.293   2.433   6.368 -0.0509 -0.1704 -0.0899
 8074TIP3    H245638   2.282   2.545   6.266  1.0653 -0.5919 -0.6868
 8075TIP3   OH245639   0.720   3.015  15.433 -0.2364 -0.1294 -0.0425
 8075TIP3    H145640   0.737   3.057  15.349  0.4189  0.8877  0.5765
 8075TIP3    H245641   0.747   2.924  15.421  1.6785  0.4457 -0.3705
 8076TIP3   OH245642   2.959   3.450   2.749  0.0163  0.1560  0.4611
 8076TIP3    H145643   3.050   3.454   2.777 -0.1821 -0.4798  1.2394
 8076TIP3    H245644   2.951   3.517   2.681  0.9542  0.5020  0.6847
 8077TIP3   OH245645   2.080   6.274   3.592  0.0528  0.5278 -0.1395
 8077TIP3    H145646   2.059   6.222   3.669  0.1325  0.0418 -0.4445
 8077TIP3    H245647   2.041   6.360   3.610  1.1337  0.8192  0.9816
 8078TIP3   OH245648   5.364   4.767  14.629 -0.3250 -0.3124 -0.3782
 8078TIP3    H145649   5.288   4.709  14.636 -0.5401 -0.1114 -0.9833
 8078TIP3    H245650   5.329   4.848  14.591  0.1460 -0.1318 -0.4343
 8079TIP3   OH245651   6.547   4.448   2.889  0.0534 -0.3695 -0.3467
 8079TIP3    H145652   6.516   4.535   2.916 -1.2633 -0.8426 -0.2669
 8079TIP3    H245653   6.540   4.395   2.968 -0.2210 -0.8243 -0.6750
 8080TIP3   OH245654   4.252   4.091  11.645 -0.6560  0.0268  0.1640
 8080TIP3    H145655   4.303   4.167  11.616 -0.4467 -0.5918 -1.1739
 8080TIP3    H245656   4.252   4.097  11.741  0.5229  0.9495  0.1291
 8081TIP3   OH245657   2.530   3.868  16.577  0.9304  0.1420  0.5841
 8081TIP3    H145658   2.606   3.863  16.518  0.7854 -0.2642  0.4250
 8081TIP3    H245659   2.519   3.779  16.609  1.6415  0.5425  2.0497
 8082TIP3   OH245660   3.149   1.735  11.833 -0.1988  0.6271 -0.5890
 8082TIP3    H145661   3.217   1.734  11.766 -2.0935  1.3698 -2.6313
 8082TIP3    H245662   3.106   1.650  11.826 -1.5389  1.3435 -1.6318
 8083TIP3   OH245663   5.073   3.454  16.534  0.6659  0.6359  0.0040
 8083TIP3    H145664   4.993   3.457  16.588  0.3114 -1.6636 -0.2840
 8083TIP3    H245665   5.117   3.537  16.552 -1.0477  1.3276  1.3314
 8084TIP3   OH245666   2.591   1.390  17.142 -0.3492  0.1488 -0.0108
 8084TIP3    H145667   2.631   1.307  17.116 -1.5555 -0.5293  0.2269
 8084TIP3    H245668   2.660   1.436  17.191  0.0863 -1.0383  0.5186
 8085TIP3   OH245669   0.864   3.757  11.918  0.0007 -0.4185 -0.2808
 8085TIP3    H145670   0.842   3.851  11.922  0.1450 -0.3757 -0.4558
 8085TIP3    H245671   0.784   3.713  11.948  0.1212 -0.2235  0.3369
 8086TIP3   OH245672   1.263   5.586   3.303 -0.4642  0.0557  0.1266
 8086TIP3    H145673   1.277   5.677   3.276 -3.2966  0.9120  1.2002
 8086TIP3    H245674   1.254   5.538   3.221  3.9924  0.0170 -0.5839
 8087TIP3   OH245675   1.664   2.752  17.192 -0.1520 -0.3735  0.1802
 8087TIP3    H145676   1.729   2.758  17.122 -2.4977 -0.7558 -2.1792
 8087TIP3    H245677   1.703   2.692  17.256  1.6498 -0.9231 -1.3451
 8088TIP3   OH245678   3.250   0.193   2.841  0.8759  0.0229 -0.5118
 8088TIP3    H145679   3.176   0.134   2.823  0.2240  0.5734  0.2681
 8088TIP3    H245680   3.288   0.159   2.922  0.8523  0.3278 -0.3708
 8089TIP3   OH245681   3.346   5.628  12.995  0.9517  0.0796 -0.9188
 8089TIP3    H145682   3.325   5.568  12.923  0.9109  0.1696 -0.9820
 8089TIP3    H245683   3.289   5.601  13.067  0.7016  0.2459 -1.0505
 8090TIP3   OH245684   2.370   3.320   2.752 -0.0907 -0.4784 -0.5379
 8090TIP3    H145685   2.281   3.286   2.741 -0.3491  0.4515 -1.5731
 8090TIP3    H245686   2.413   3.302   2.669  0.4334 -0.1878 -0.3345
 8091TIP3   OH245687   4.674   1.703  17.219  0.0215 -0.0178  0.3140
 8091TIP3    H145688   4.649   1.717  17.310 -2.2048 -1.9254  0.0996
 8091TIP3    H245689   4.649   1.784  17.174 -0.8383  0.1389  1.0598
 8092TIP3   OH245690   1.863   4.854  14.051  0.5202 -0.1092 -0.2499
 8092TIP3    H145691   1.946   4.900  14.069  0.3793  0.2796 -0.5763
 8092TIP3    H245692   1.810   4.919  14.006 -0.2976 -0.0661  0.7535
 8093TIP3   OH245693   2.572   5.545   2.148  0.1243 -0.0201 -0.1155
 8093TIP3    H145694   2.506   5.482   2.118  0.3135  0.8471 -2.5934
 8093TIP3    H245695   2.522   5.612   2.194 -0.5527 -0.0808 -0.7442
 8094TIP3   OH245696   0.902   4.828  13.863 -0.2222 -0.1826  0.2963
 8094TIP3    H145697   0.884   4.915  13.899 -1.6990 -1.0699  1.8304
 8094TIP3    H245698   0.951   4.784  13.933 -0.1386 -0.8432 -0.1755
 8095TIP3   OH245699   4.479   4.408  16.192 -0.4680 -0.6387  0.0604
 8095TIP3    H145700   4.478   4.447  16.104 -0.1294 -0.2863  0.2135
 8095TIP3    H245701   4.546   4.456  16.240 -1.4681 -0.0172  0.8806
 8096TIP3   OH245702   4.436   3.006   2.414  0.4242  0.5883 -0.7585
 8096TIP3    H145703   4.389   2.974   2.337  0.2479 -0.5407 -0.2044
 8096TIP3    H245704   4.375   2.993   2.487  0.3126  2.2868 -0.4989
 8097TIP3   OH245705   2.521   6.287  15.041  0.1844  0.3015  0.3893
 8097TIP3    H145706   2.469   6.215  15.003  0.0273  0.7786 -0.3307
 8097TIP3    H245707   2.477   6.307  15.123  0.6436 -0.8920  0.9583
 8098TIP3   OH245708   6.253   1.118  12.853 -0.8199  0.1832 -0.0886
 8098TIP3    H145709   6.328   1.162  12.812 -0.4896 -2.0219 -2.0613
 8098TIP3    H245710   6.293   1.053  12.911 -1.1575 -1.0480 -1.1969
 8099TIP3   OH245711   3.241   4.476  14.201 -0.3763  0.3072 -0.3024
 8099TIP3    H145712   3.205   4.528  14.129 -0.7287  1.6250  0.7798
 8099TIP3    H245713   3.178   4.404  14.212 -1.1609  0.9869 -0.2844
 8100TIP3   OH245714   4.110   6.223   4.984 -0.3489 -0.3694 -0.0629
 8100TIP3    H145715   4.094   6.295   5.046 -0.8084 -2.1659  2.0517
 8100TIP3    H245716   4.025   6.207   4.944 -0.5210 -0.4667  0.3319
 8101TIP3   OH245717   4.001   5.807   5.447 -0.8502  0.3269 -0.0558
 8101TIP3    H145718   3.916   5.815   5.404 -0.7465 -0.3680 -0.3994
 8101TIP3    H245719   4.062   5.856   5.392 -0.9128  0.3187 -0.1316
 8102TIP3   OH245720   4.634   3.864   5.586  0.4391 -0.0651  0.2743
 8102TIP3    H145721   4.556   3.867   5.530  0.8899  1.1268 -0.3304
 8102TIP3    H245722   4.614   3.798   5.652 -1.3569  0.7008  0.5478
 8103TIP3   OH245723   0.750   3.336   3.918 -0.3343 -0.6054 -0.1460
 8103TIP3    H145724   0.766   3.344   4.012  1.1507 -2.0307 -0.2134
 8103TIP3    H245725   0.660   3.365   3.905 -0.9107 -1.3499  1.8733
 8104TIP3   OH245726   5.600   3.177  13.738 -0.6169  0.3487 -0.1871
 8104TIP3    H145727   5.672   3.117  13.716 -1.3162  0.3370 -2.8515
 8104TIP3    H245728   5.521   3.126  13.721 -1.2514  0.9614  0.8596
 8105TIP3   OH245729   2.054   5.902  12.166  0.1093 -0.1739 -0.6457
 8105TIP3    H145730   2.077   5.994  12.151 -1.1218  0.2203 -0.2195
 8105TIP3    H245731   2.084   5.858  12.086 -1.9955  1.1090 -2.2696
 8106TIP3   OH245732   4.001   6.762  15.045  0.0917 -0.4361  0.7529
 8106TIP3    H145733   3.911   6.749  15.016  0.2663 -1.5008  0.6392
 8106TIP3    H245734   4.038   6.674  15.050  1.1109 -0.0239  0.8571
 8107TIP3   OH245735   1.656   4.630  12.313  0.5285 -0.2869 -0.0565
 8107TIP3    H145736   1.639   4.722  12.333  0.5840 -0.0570 -0.9946
 8107TIP3    H245737   1.593   4.609  12.244  0.7430 -0.8553 -0.0817
 8108TIP3   OH245738   5.980   5.166   4.376 -0.5611  0.2008 -0.0385
 8108TIP3    H145739   5.975   5.214   4.293 -0.5947  0.0739 -0.1107
 8108TIP3    H245740   5.890   5.137   4.392 -0.3480 -0.7912 -0.5663
 8109TIP3   OH245741   1.514   5.561  15.587  0.4485 -0.1038 -0.3985
 8109TIP3    H145742   1.586   5.591  15.531  1.7424 -0.9610  0.7313
 8109TIP3    H245743   1.438   5.610  15.557  1.8089  1.9640 -0.6311
 8110TIP3   OH245744   3.624   3.700   4.181 -0.3592  0.0454 -0.2582
 8110TIP3    H145745   3.536   3.739   4.181 -0.1603  0.5627 -1.7494
 8110TIP3    H245746   3.614   3.617   4.226 -1.7896 -0.2276 -1.0234
 8111TIP3   OH245747   2.136   4.267   0.343  0.5576 -0.3555 -0.0300
 8111TIP3    H145748   2.050   4.230   0.366  0.5703 -0.3924 -0.0416
 8111TIP3    H245749   2.115   4.348   0.297  0.5449  0.0306  0.6475
 8112TIP3   OH245750   1.986   0.610  16.029 -0.3430 -0.1269 -0.3389
 8112TIP3    H145751   2.012   0.671  15.960 -0.5220  2.3009  1.6357
 8112TIP3    H245752   2.062   0.607  16.088 -1.0679 -0.2897  0.6005
 8113TIP3   OH245753   4.648   3.228   2.960 -0.1317 -0.0393 -0.1543
 8113TIP3    H145754   4.601   3.208   2.879 -2.0017  1.4312  0.4982
 8113TIP3    H245755   4.660   3.144   3.003 -1.5119 -0.5493 -0.7164
 8114TIP3   OH245756   3.748   2.400  13.581  0.0167  0.6221 -0.1143
 8114TIP3    H145757   3.826   2.411  13.527 -1.0049 -0.4859 -1.9081
 8114TIP3    H245758   3.685   2.461  13.544 -0.4745  0.3685  0.2982
 8115TIP3   OH245759   3.866   1.658  13.767 -0.0709  0.0804 -0.4240
 8115TIP3    H145760   3.858   1.725  13.698  1.8319  0.7442 -0.0620
 8115TIP3    H245761   3.902   1.706  13.842  0.0835 -1.0951  0.2664
 8116TIP3   OH245762   3.320   5.454   2.306  0.4788  0.3664 -0.0453
 8116TIP3    H145763   3.384   5.409   2.361 -1.7637 -1.2063  1.4517
 8116TIP3    H245764   3.289   5.388   2.245  1.5063  1.5958 -2.0304
 8117TIP3   OH245765   0.133   0.678   4.179 -0.1510  0.2134 -0.3788
 8117TIP3    H145766   0.188   0.747   4.142 -1.5278  1.1234 -0.7819
 8117TIP3    H245767   0.190   0.601   4.182  1.7547  1.5803  1.0265
 8118TIP3   OH245768   1.443   0.112  14.492  0.6409 -0.2936  0.6122
 8118TIP3    H145769   1.493   0.107  14.573  1.2218 -0.2702  0.2653
 8118TIP3    H245770   1.507   0.088  14.424  0.8509  2.0751 -0.1087
 8119TIP3   OH245771   0.728   2.231   1.984  0.4076 -0.1644  0.2721
 8119TIP3    H145772   0.768   2.151   1.951  1.5072 -0.6905  2.6759
 8119TIP3    H245773   0.801   2.293   1.991  0.0483  0.1928  0.9156
 8120TIP3   OH245774   4.952   1.330   3.534  0.1014 -0.4341  0.2686
 8120TIP3    H145775   4.934   1.241   3.563 -0.1842 -0.1788  0.8860
 8120TIP3    H245776   5.034   1.322   3.484  0.6494 -0.8751  1.2088
 8121TIP3   OH245777   1.203   1.469   5.032  0.2953 -0.0120  0.6297
 8121TIP3    H145778   1.218   1.477   4.937  1.4354 -0.1947  0.7778
 8121TIP3    H245779   1.165   1.382   5.044  2.1149 -0.8633  0.5297
 8122TIP3   OH245780   5.822   6.716  10.549  0.1773 -0.0851 -0.2837
 8122TIP3    H145781   5.839   6.808  10.527 -3.5286  0.7207 -0.4720
 8122TIP3    H245782   5.873   6.666  10.486  2.9034  1.7244  0.2927
 8123TIP3   OH245783   5.620   4.685  14.748 -0.3579  0.0159 -0.2206
 8123TIP3    H145784   5.551   4.724  14.694 -0.0344 -2.5210 -2.6827
 8123TIP3    H245785   5.576   4.612  14.793  0.1218  0.1235  0.4326
 8124TIP3   OH245786   0.611   4.666   4.243  0.4354 -0.4843  0.0558
 8124TIP3    H145787   0.552   4.741   4.239  1.0708  0.3611  3.6102
 8124TIP3    H245788   0.555   4.590   4.231 -0.9053  0.3954  0.6083
 8125TIP3   OH245789   1.455   5.952   5.808  0.3417 -0.0600  0.7631
 8125TIP3    H145790   1.396   5.954   5.733  0.1435  0.3542  0.9281
 8125TIP3    H245791   1.397   5.943   5.884  0.5710 -1.1914  0.8327
 8126TIP3   OH245792   5.506   0.031  12.682 -0.0097  0.4840 -0.5851
 8126TIP3    H145793   5.500   0.119  12.643 -3.5322 -0.0845 -1.6926
 8126TIP3    H245794   5.427  -0.014  12.651  1.4335 -2.9741  0.3019
 8127TIP3   OH245795   5.400   0.366  15.790 -0.0686  0.5572  0.0463
 8127TIP3    H145796   5.431   0.331  15.874  1.0465  2.1300  0.3419
 8127TIP3    H245797   5.402   0.461  15.802  0.8858  0.8429 -2.0169
 8128TIP3   OH245798   6.607   3.328  12.644 -0.1001  0.2188 -0.0407
 8128TIP3    H145799   6.602   3.392  12.573  0.5936 -0.1139 -0.4041
 8128TIP3    H245800   6.628   3.379  12.722 -1.2791  0.6426  0.0275
 8129TIP3   OH245801   3.124   2.739  11.455 -0.6098  0.0917  0.2651
 8129TIP3    H145802   3.204   2.784  11.481  0.3529 -1.4139  0.0664
 8129TIP3    H245803   3.116   2.756  11.361  0.1098 -0.6440  0.0563
 8130TIP3   OH245804   6.057   5.883  16.453 -0.4897  0.0014 -0.0828
 8130TIP3    H145805   5.965   5.888  16.428 -0.1559  1.5020 -1.1584
 8130TIP3    H245806   6.059   5.820  16.525 -2.6235  1.2466  1.1940
 8131TIP3   OH245807   5.397   2.868   0.590  0.5400  0.1133  0.4718
 8131TIP3    H145808   5.352   2.935   0.538  0.7111 -1.0787 -1.2876
 8131TIP3    H245809   5.471   2.915   0.629 -0.9602  1.5978  1.6958
 8132TIP3   OH245810   3.807   2.748   5.810 -0.1081  0.5014  0.3877
 8132TIP3    H145811   3.860   2.819   5.845 -0.4933  1.7626 -1.4491
 8132TIP3    H245812   3.741   2.791   5.756 -0.5196 -1.2232 -0.5658
 8133TIP3   OH245813   0.268   5.641  15.011 -0.0159 -0.3679  0.5639
 8133TIP3    H145814   0.259   5.706  15.081 -1.2977  1.0135 -0.8117
 8133TIP3    H245815   0.185   5.645  14.964 -0.3204 -3.3294  0.6408
 8134TIP3   OH245816   0.571   0.380  12.034 -0.2165  0.0762  0.4388
 8134TIP3    H145817   0.611   0.453  11.988 -1.9807  0.6400 -0.3023
 8134TIP3    H245818   0.549   0.317  11.965  0.3530 -0.7175  0.9558
 8135TIP3   OH245819   0.469   2.226  11.544 -0.2379 -0.0506  0.2402
 8135TIP3    H145820   0.516   2.231  11.627 -0.0586 -0.7255  0.1835
 8135TIP3    H245821   0.485   2.137  11.513  2.0437  1.0253 -1.9188
 8136TIP3   OH245822   1.893   4.229   5.911  0.2581  0.1094  0.2254
 8136TIP3    H145823   1.980   4.208   5.943  0.0466 -1.7797 -0.3411
 8136TIP3    H245824   1.838   4.157   5.941 -1.4180  1.8557  1.6278
 8137TIP3   OH245825   6.227   6.661  16.237  0.9449 -0.2988 -0.1373
 8137TIP3    H145826   6.149   6.641  16.287  1.6158  1.7244  1.8885
 8137TIP3    H245827   6.198   6.724  16.171  0.8217  0.2846  0.4720
 8138TIP3   OH245828   3.001   3.237   5.127  0.1066 -0.1507  0.3681
 8138TIP3    H145829   3.083   3.188   5.137  0.4910  0.4742  0.3365
 8138TIP3    H245830   2.958   3.196   5.052  0.9686  0.2961 -0.3865
 8139TIP3   OH245831   2.659   1.492  15.387  0.2782 -0.3479  0.2637
 8139TIP3    H145832   2.651   1.419  15.449  1.0196 -0.4656  0.2327
 8139TIP3    H245833   2.753   1.500  15.373  0.1987  0.6335  0.2790
 8140TIP3   OH245834   5.244   0.430   0.839 -0.2756 -0.7931 -0.0816
 8140TIP3    H145835   5.240   0.473   0.924 -1.5796  0.4162 -0.7141
 8140TIP3    H245836   5.336   0.437   0.812 -0.1258  0.0443  0.6218
 8141TIP3   OH245837   1.827   6.227  16.692  0.1050 -0.3114  0.1670
 8141TIP3    H145838   1.732   6.224  16.686  0.1474  0.7732 -2.4297
 8141TIP3    H245839   1.849   6.319  16.678  1.6217 -1.1055 -4.4273
 8142TIP3   OH245840   4.002   5.819  14.375 -0.0740 -0.2552  0.1535
 8142TIP3    H145841   3.996   5.731  14.337 -1.8178 -0.5921  1.0897
 8142TIP3    H245842   4.023   5.875  14.300  1.2673 -1.4612 -0.4298
 8143TIP3   OH245843   4.698   5.699  14.907 -0.0051 -0.2943  0.3865
 8143TIP3    H145844   4.680   5.620  14.856  0.1345  0.4000 -0.7727
 8143TIP3    H245845   4.781   5.680  14.951  1.0943 -0.0759 -1.4813
 8144TIP3   OH245846   6.685   0.129   4.054  0.1520  0.0959 -0.5337
 8144TIP3    H145847   6.607   0.077   4.071  0.7493 -0.8753 -0.6615
 8144TIP3    H245848   6.693   0.185   4.131 -0.3268 -0.2326 -0.2379
 8145TIP3   OH245849   0.872   0.585   6.502  0.8770 -0.0681 -0.0497
 8145TIP3    H145850   0.924   0.641   6.561 -0.6034  0.2085  1.0697
 8145TIP3    H245851   0.809   0.646   6.462  0.9540 -0.5045 -0.8380
 8146TIP3   OH245852   0.733   5.061  14.988 -0.0637 -0.2148  0.0700
 8146TIP3    H145853   0.683   4.999  15.041 -0.3353 -1.4149 -1.5105
 8146TIP3    H245854   0.691   5.145  15.003  1.3337  0.0143  3.5687
 8147TIP3   OH245855   6.254   6.180   2.682  0.2606 -0.1570  0.1014
 8147TIP3    H145856   6.221   6.266   2.655  1.7779 -0.1693 -2.0317
 8147TIP3    H245857   6.349   6.188   2.676  0.4399 -1.9629 -0.0659
 8148TIP3   OH245858   3.697   5.001  14.663  0.0990  0.5080 -0.0149
 8148TIP3    H145859   3.696   4.981  14.569 -1.9117  0.0913  0.0612
 8148TIP3    H245860   3.655   4.926  14.704  1.9923  0.1266  1.3933
 8149TIP3   OH245861   3.963   5.778   2.288  0.2566  0.2327  0.1501
 8149TIP3    H145862   4.019   5.716   2.242  0.2319  0.5805 -0.3570
 8149TIP3    H245863   3.921   5.829   2.219 -1.7006 -0.8667  0.4523
 8150TIP3   OH245864   3.355   6.770  12.473  0.1719  0.5533 -0.0558
 8150TIP3    H145865   3.422   6.746  12.537 -0.4259  0.1384  0.4259
 8150TIP3    H245866   3.345   6.865  12.483  1.3581  0.7785 -0.8025
 8151TIP3   OH245867   3.435   0.838   0.736  0.3633 -0.6241 -0.5068
 8151TIP3    H145868   3.476   0.775   0.795  0.5106 -0.3775 -0.3461
 8151TIP3    H245869   3.500   0.853   0.667  0.6307 -0.0690 -0.1360
 8152TIP3   OH245870   2.577   2.268  14.969 -0.0110  0.0293  0.0505
 8152TIP3    H145871   2.532   2.237  15.048 -0.3210  0.1719 -0.0667
 8152TIP3    H245872   2.508   2.273  14.903  0.0264  1.0122  0.0772
 8153TIP3   OH245873   5.118   5.765  14.087  0.3932  0.3506  0.1137
 8153TIP3    H145874   5.094   5.796  14.000  1.7226  0.8328 -0.1083
 8153TIP3    H245875   5.161   5.840  14.128  1.8563 -0.5478  0.3065
 8154TIP3   OH245876   3.458   0.800   5.722 -0.3948 -0.4461 -0.4509
 8154TIP3    H145877   3.480   0.779   5.631  0.8881  1.1308 -0.5347
 8154TIP3    H245878   3.503   0.882   5.740 -2.7399  0.6564  0.8158
 8155TIP3   OH245879   1.150   2.856  14.019 -0.0277  0.0531 -0.0756
 8155TIP3    H145880   1.113   2.786  14.072 -1.4125  0.7805 -0.0355
 8155TIP3    H245881   1.078   2.884  13.963  1.3925 -0.7540 -2.4675
 8156TIP3   OH245882   2.033   1.950  13.729 -0.5535 -0.6788  0.3542
 8156TIP3    H145883   2.124   1.966  13.705 -0.2345 -2.4976  0.2533
 8156TIP3    H245884   1.989   2.033  13.709  0.7580 -0.2792 -1.1617
 8157TIP3   OH245885   4.721   4.939  11.057 -0.1353 -0.0478 -0.5834
 8157TIP3    H145886   4.649   4.913  11.115  0.4176 -0.8761 -0.2488
 8157TIP3    H245887   4.698   4.900  10.972  0.7214 -1.7662 -0.0678
 8158TIP3   OH245888   3.170   6.534   0.106 -0.4129 -0.1975  0.2030
 8158TIP3    H145889   3.187   6.440   0.095 -1.6325 -0.4467  0.3821
 8158TIP3    H245890   3.192   6.571   0.020 -0.7794 -0.7758 -0.1537
 8159TIP3   OH245891   6.532   4.844   0.513  0.6461  0.3999 -0.5306
 8159TIP3    H145892   6.462   4.820   0.573 -1.3379  1.0169 -2.4515
 8159TIP3    H245893   6.559   4.931   0.541  0.5964  0.1961  0.1776
 8160TIP3   OH245894   3.527   1.990   0.969 -0.3038  0.2065  0.3637
 8160TIP3    H145895   3.621   1.975   0.982 -0.4277 -1.2784 -0.3258
 8160TIP3    H245896   3.518   2.009   0.875 -0.9277 -1.9412 -0.0664
 8161TIP3   OH245897   2.465   2.816   5.372 -0.2970 -0.3166 -0.2506
 8161TIP3    H145898   2.387   2.818   5.427 -1.4067 -0.6796 -1.7703
 8161TIP3    H245899   2.500   2.728   5.382 -0.3340 -0.2977  0.0634
 8162TIP3   OH245900   1.972   3.129  14.706  0.2659 -0.3463 -0.2084
 8162TIP3    H145901   1.919   3.200  14.743  0.8426 -0.9802  1.9397
 8162TIP3    H245902   1.948   3.128  14.613 -1.1141  1.4411  0.0642
 8163TIP3   OH245903   5.712   3.484  11.948 -0.2034 -0.0287  0.3050
 8163TIP3    H145904   5.630   3.456  11.990 -0.4564  1.3408  0.7792
 8163TIP3    H245905   5.759   3.531  12.016  0.6344 -0.1337 -0.1900
 8164TIP3   OH245906   0.617   6.170  15.071  0.0681 -0.0452  0.4232
 8164TIP3    H145907   0.655   6.090  15.034  0.0156  0.1943 -0.1659
 8164TIP3    H245908   0.523   6.157  15.065  0.0492 -0.3325  1.2106
 8165TIP3   OH245909   1.854   5.323  13.515 -0.7113  0.0392 -0.4179
 8165TIP3    H145910   1.944   5.355  13.519 -0.1086 -1.6599  1.2761
 8165TIP3    H245911   1.847   5.279  13.431 -0.1601  0.6535 -0.8000
 8166TIP3   OH245912   5.324   3.061  11.179  0.2368 -0.2402 -0.0746
 8166TIP3    H145913   5.410   3.079  11.140  0.2994 -0.1018  0.1231
 8166TIP3    H245914   5.262   3.075  11.107  0.3023  0.5775  0.0148
 8167TIP3   OH245915   2.667   3.403   6.031  0.1932 -0.1346  0.5319
 8167TIP3    H145916   2.726   3.466   6.072 -0.7885  1.1561  0.0349
 8167TIP3    H245917   2.580   3.424   6.065 -0.3445 -0.3486 -0.6432
 8168TIP3   OH245918   3.807   2.275   3.506 -0.0155  0.2373 -0.1619
 8168TIP3    H145919   3.812   2.261   3.601 -2.9098  0.0601  0.0401
 8168TIP3    H245920   3.792   2.187   3.470 -2.7275  0.6934 -0.3463
 8169TIP3   OH245921   3.552   1.128  14.153 -0.2978 -0.2857 -0.1083
 8169TIP3    H145922   3.464   1.141  14.117 -0.1781  0.5632 -0.1110
 8169TIP3    H245923   3.611   1.164  14.086 -0.1561  3.5384  1.8462
 8170TIP3   OH245924   4.727   0.201  12.527 -0.8223  0.2266  0.2155
 8170TIP3    H145925   4.709   0.227  12.437  0.1917 -0.2783 -0.1487
 8170TIP3    H245926   4.784   0.270  12.560  0.3931 -0.5653 -0.1704
 8171TIP3   OH245927   2.878   1.036   3.670 -0.4278  0.4479 -0.1672
 8171TIP3    H145928   2.957   1.053   3.617 -0.7588  0.5626 -0.6298
 8171TIP3    H245929   2.874   0.941   3.677  0.6566  0.4762  1.2472
 8172TIP3   OH245930   6.024   6.344  15.807  0.4576  0.0607 -0.5041
 8172TIP3    H145931   6.095   6.390  15.853 -0.3945  0.5097  0.4122
 8172TIP3    H245932   5.997   6.275  15.868  0.9642 -0.9511 -1.3968
 8173TIP3   OH245933   1.385   3.535   1.421  0.2396 -0.3026  0.7866
 8173TIP3    H145934   1.366   3.623   1.454 -0.4423 -1.1971  2.9629
 8173TIP3    H245935   1.394   3.546   1.326 -0.0709  2.0531  0.9777
 8174TIP3   OH245936   2.289   3.651   0.360  0.3177 -0.4627 -1.1885
 8174TIP3    H145937   2.250   3.700   0.288 -0.5571 -1.0934 -1.1618
 8174TIP3    H245938   2.269   3.559   0.340  0.2850 -0.6649 -0.2819
 8175TIP3   OH245939   6.492   3.778   1.396 -0.7928  0.1302 -0.6682
 8175TIP3    H145940   6.501   3.754   1.489  0.5875 -3.3474 -1.5295
 8175TIP3    H245941   6.531   3.865   1.390  0.6309 -0.2436  1.7608
 8176TIP3   OH245942   6.487   2.251  16.295  0.1631  0.5597 -0.4687
 8176TIP3    H145943   6.525   2.189  16.232  0.0456 -0.5867  0.5678
 8176TIP3    H245944   6.405   2.279  16.254 -1.0477 -1.8978  0.1059
 8177TIP3   OH245945   3.262   5.842  14.129 -0.3901  0.3638  0.6413
 8177TIP3    H145946   3.246   5.788  14.207 -1.0817  0.5917  0.6689
 8177TIP3    H245947   3.357   5.852  14.126 -0.1169 -1.8446 -0.0563
 8178TIP3   OH245948   4.429   1.024   0.885  0.5117  0.2807 -0.8235
 8178TIP3    H145949   4.422   0.961   0.813  1.4057 -1.6731  0.6793
 8178TIP3    H245950   4.380   0.983   0.957  2.0881  0.6858  0.5528
 8179TIP3   OH245951   4.689   3.636   2.700  0.1012  0.0796  0.0516
 8179TIP3    H145952   4.658   3.709   2.646 -0.3266  0.1822  0.4346
 8179TIP3    H245953   4.611   3.586   2.721  0.5342 -1.1873 -1.2001
 8180TIP3   OH245954   1.888   1.258  11.495  0.1095 -0.1074  0.6901
 8180TIP3    H145955   1.878   1.174  11.539  1.6735 -0.9329 -0.4123
 8180TIP3    H245956   1.902   1.236  11.403 -0.8976  1.4508  0.1211
 8181TIP3   OH245957   5.108   2.590   1.658  0.5093  0.0891 -0.2597
 8181TIP3    H145958   5.189   2.574   1.706 -0.6075 -0.9503  1.3648
 8181TIP3    H245959   5.054   2.641   1.719 -0.1070  0.6669 -1.2694
 8182TIP3   OH245960   4.036   1.239   0.755 -0.1805  0.5865 -0.1030
 8182TIP3    H145961   4.084   1.322   0.757  1.6650 -0.4489  1.5208
 8182TIP3    H245962   4.104   1.172   0.749 -1.2855 -0.9899  2.8993
 8183TIP3   OH245963   6.292   0.193  11.157 -0.3974  0.6657 -0.1994
 8183TIP3    H145964   6.273   0.281  11.126 -2.1227 -0.3039 -2.0614
 8183TIP3    H245965   6.255   0.135  11.091 -0.1870 -1.4911  1.4669
 8184TIP3   OH245966   2.297   6.328  11.407  0.8586 -0.1261 -0.0315
 8184TIP3    H145967   2.324   6.278  11.330  0.6317 -0.8050  0.3237
 8184TIP3    H245968   2.345   6.411  11.400  0.0282  0.2823 -1.4800
 8185TIP3   OH245969   3.745   0.146  12.190 -0.3991 -0.0240 -0.1382
 8185TIP3    H145970   3.831   0.123  12.226 -0.5421  2.3677  1.9606
 8185TIP3    H245971   3.683   0.092  12.239 -0.2721 -0.0158  0.0322
 8186TIP3   OH245972   5.375   4.622  16.288  0.5460  0.0548  0.0756
 8186TIP3    H145973   5.390   4.635  16.194  4.0826  0.4512  0.5572
 8186TIP3    H245974   5.280   4.620  16.297  0.0696  0.4862 -3.4302
 8187TIP3   OH245975   0.875   5.958  13.347 -0.0724  0.1267 -0.5162
 8187TIP3    H145976   0.843   5.895  13.283  1.2310 -0.2558 -0.8117
 8187TIP3    H245977   0.970   5.956  13.338  0.2548 -0.8182  2.2457
 8188TIP3   OH245978   1.189   1.804  13.637 -0.2377  0.0918 -0.0049
 8188TIP3    H145979   1.251   1.834  13.703 -0.1856  1.4021 -0.6225
 8188TIP3    H245980   1.167   1.883  13.587 -0.6527 -0.7756 -1.2400
 8189TIP3   OH245981   3.006   2.417  13.703  0.0044  0.4112  0.2807
 8189TIP3    H145982   2.972   2.347  13.648  1.4715  0.4130 -0.6753
 8189TIP3    H245983   2.998   2.496  13.649  1.0098  0.4922  0.2289
 8190TIP3   OH245984   0.548   4.455  13.282  0.4714  1.2538 -0.6205
 8190TIP3    H145985   0.577   4.370  13.315 -2.6847 -0.6803 -2.2767
 8190TIP3    H245986   0.466   4.472  13.327  0.0555  2.4499 -1.7418
 8191TIP3   OH245987   4.808   4.590  11.915  0.0956  0.8391  0.0951
 8191TIP3    H145988   4.861   4.532  11.971 -0.3308  0.6615  0.3231
 8191TIP3    H245989   4.821   4.557  11.827  1.8290  1.9306 -0.0988
 8192TIP3   OH245990   6.362   5.005   2.807 -0.5683  0.5609 -0.0813
 8192TIP3    H145991   6.450   5.020   2.773 -0.4236 -0.4652 -0.1822
 8192TIP3    H245992   6.374   4.997   2.902 -0.6668  1.1665 -0.0102
 8193TIP3   OH245993   0.465   5.126  13.700 -0.1631  0.1538 -0.2741
 8193TIP3    H145994   0.540   5.148  13.646 -0.7773  2.6304 -0.2671
 8193TIP3    H245995   0.501   5.114  13.788  0.3596  0.2585 -0.4749
 8194TIP3   OH245996   1.100   4.155  17.007  0.3080  0.0332  0.4301
 8194TIP3    H145997   1.155   4.152  17.085 -0.7808 -2.0057  1.1744
 8194TIP3    H245998   1.141   4.094  16.946 -0.4710 -0.6442  0.5651
 8195TIP3   OH245999   6.590   2.593   3.045 -0.2978 -0.2834  0.7642
 8195TIP3    H146000   6.656   2.571   2.979 -1.3151 -0.3803 -0.2431
 8195TIP3    H246001   6.514   2.540   3.022 -1.5915  1.6111  0.4124
 8196TIP3   OH246002   1.067   6.635   0.820 -0.5846 -0.4383  0.3177
 8196TIP3    H146003   1.110   6.690   0.754 -1.5239  1.4326  1.1711
 8196TIP3    H246004   1.091   6.546   0.797 -1.6444  0.0350 -3.1156
 8197TIP3   OH246005   3.145   4.436   2.227  0.1569 -0.2444 -0.0796
 8197TIP3    H146006   3.173   4.387   2.150  2.0344  0.1987  0.2715
 8197TIP3    H246007   3.204   4.511   2.231  0.8336 -0.8118  2.3655
 8198TIP3   OH246008   6.286   5.086  15.983 -0.1291  0.4123 -0.3829
 8198TIP3    H146009   6.343   5.148  16.029  0.2055  0.1755 -0.4720
 8198TIP3    H246010   6.218   5.064  16.048 -0.0175  0.5599 -0.2152
 8199TIP3   OH246011   1.767   3.882   0.338  0.3464 -0.2523  0.1065
 8199TIP3    H146012   1.735   3.792   0.341 -0.7779  0.0516 -1.6425
 8199TIP3    H246013   1.693   3.935   0.364  0.0131  0.3198 -1.8210
 8200TIP3   OH246014   6.017   2.069  11.604 -0.1721  0.2764  0.3432
 8200TIP3    H146015   5.997   2.044  11.694  1.7001 -0.1618  0.6771
 8200TIP3    H246016   6.028   2.164  11.607  0.2553  0.2185  0.6566
 8201TIP3   OH246017   3.025   4.285  15.738  0.1718 -0.2378 -0.1325
 8201TIP3    H146018   3.095   4.297  15.803  1.5999 -1.9383 -1.2407
 8201TIP3    H246019   3.001   4.374  15.712 -0.7981  0.5531  2.9717
 8202TIP3   OH246020   5.236   5.630  10.810 -0.1645  0.0079 -0.4168
 8202TIP3    H146021   5.232   5.548  10.859 -0.2438 -0.4413 -1.1747
 8202TIP3    H246022   5.311   5.676  10.848 -0.7566  0.0746  0.7443
 8203TIP3   OH246023   0.615   0.025  14.334  0.0623  0.5625 -0.8781
 8203TIP3    H146024   0.614   0.108  14.287 -2.1173  1.3648  0.4744
 8203TIP3    H246025   0.524   0.008  14.356  0.5800 -1.6564 -0.1533
 8204TIP3   OH246026   0.297   3.431  10.285 -0.5802 -0.3183 -0.0491
 8204TIP3    H146027   0.311   3.495  10.355  1.0233  0.2327 -0.8235
 8204TIP3    H246028   0.233   3.370  10.321  0.2804 -0.1227  1.9308
 8205TIP3   OH246029   5.490   3.750   2.229 -0.1515 -0.1228  0.3425
 8205TIP3    H146030   5.537   3.749   2.146 -1.1783  0.7211 -0.2765
 8205TIP3    H246031   5.542   3.695   2.287  0.9557 -0.1598 -0.6525
 8206TIP3   OH246032   6.397   4.136  16.051 -0.3239  0.0087  0.7180
 8206TIP3    H146033   6.408   4.078  16.127  1.6266  0.2557  0.6805
 8206TIP3    H246034   6.368   4.078  15.981 -1.9072 -0.2649  1.5587
 8207TIP3   OH246035   6.093   0.949  13.964  0.2064 -0.5508 -0.0173
 8207TIP3    H146036   6.163   0.935  14.028  0.6729  0.2546 -0.3439
 8207TIP3    H246037   6.132   1.006  13.898 -0.7026 -0.2621 -0.3084
 8208TIP3   OH246038   6.368   0.024   5.565  0.6077  0.1486  0.2767
 8208TIP3    H146039   6.401  -0.054   5.520 -2.6947 -0.5634 -1.2101
 8208TIP3    H246040   6.356  -0.004   5.655  1.8257 -0.2423  0.3353
 8209TIP3   OH246041   5.180   4.451   6.252  0.4362 -1.0665  0.2759
 8209TIP3    H146042   5.237   4.399   6.196 -0.6699 -0.2670 -1.7246
 8209TIP3    H246043   5.092   4.426   6.227 -0.1491 -1.4529  2.4932
 8210TIP3   OH246044   0.240   6.234  14.729  0.1974 -0.3350  0.2605
 8210TIP3    H146045   0.171   6.254  14.666  0.7557  2.9490  0.5153
 8210TIP3    H246046   0.322   6.251  14.681  1.0460 -4.5971 -0.1933
 8211TIP3   OH246047   2.279   4.906   1.338  0.7938  0.3378 -0.4912
 8211TIP3    H146048   2.210   4.846   1.308  1.3420 -0.2601 -0.5877
 8211TIP3    H246049   2.358   4.852   1.339  0.9495  0.5511  1.2767
 8212TIP3   OH246050   0.823   6.109  13.950 -0.8416 -0.0793 -0.2000
 8212TIP3    H146051   0.758   6.177  13.931 -0.7776 -0.1634 -0.7414
 8212TIP3    H246052   0.791   6.032  13.902 -0.7798 -0.3582  0.2047
 8213TIP3   OH246053   3.381   5.446   5.048  0.5801 -0.1119  0.6486
 8213TIP3    H146054   3.450   5.439   4.982  1.8721  0.9707  1.8088
 8213TIP3    H246055   3.420   5.410   5.127 -0.0097  0.9231  1.4345
 8214TIP3   OH246056   3.626   4.032  14.131  0.0332  0.3441 -0.0082
 8214TIP3    H146057   3.583   3.956  14.092  0.7436  0.2796 -0.6919
 8214TIP3    H246058   3.696   4.055  14.069 -0.2063  1.5912  0.1450
 8215TIP3   OH246059   3.954   1.564   3.771 -0.1702  0.3665 -0.1398
 8215TIP3    H146060   3.978   1.497   3.836  1.9856 -2.5312 -3.4835
 8215TIP3    H246061   3.872   1.532   3.733 -0.7069  1.2881  0.2367
 8216TIP3   OH246062   4.019   6.701   1.655 -0.5318  0.2020  0.4557
 8216TIP3    H146063   3.954   6.711   1.724 -0.8200  0.0816  0.2055
 8216TIP3    H246064   3.977   6.738   1.577  0.5745  2.2892  0.7806
 8217TIP3   OH246065   2.414   3.974  14.936 -0.5661  0.3967  0.0692
 8217TIP3    H146066   2.357   3.915  14.986 -1.0460  1.5076  0.8842
 8217TIP3    H246067   2.355   4.042  14.904  0.1942  1.2291  0.3901
 8218TIP3   OH246068   5.538   1.214   3.967  0.0834 -0.4038  0.3883
 8218TIP3    H146069   5.613   1.239   4.020  1.6270 -1.9284 -0.9847
 8218TIP3    H246070   5.500   1.298   3.939  3.5622  0.6134 -1.9824
 8219TIP3   OH246071   2.656   4.822  12.007  0.2044 -0.2628 -0.7435
 8219TIP3    H146072   2.699   4.857  11.928  1.7831 -1.0857 -0.2889
 8219TIP3    H246073   2.728   4.794  12.063 -0.8175  1.1686  1.4562
 8220TIP3   OH246074   1.193   3.840  11.187  0.1237 -0.6021  0.0617
 8220TIP3    H146075   1.260   3.865  11.124 -0.0674 -0.7893 -0.2160
 8220TIP3    H246076   1.127   3.909  11.181 -0.4592 -1.2213 -0.7871
 8221TIP3   OH246077   4.368   6.330  16.228 -0.1611 -0.0151 -0.0782
 8221TIP3    H146078   4.440   6.380  16.190  0.0831 -2.1867 -2.8294
 8221TIP3    H246079   4.405   6.244  16.245 -1.4065 -0.3165  1.2632
 8222TIP3   OH246080   4.558   6.639   6.201 -0.2833  0.0582 -0.3886
 8222TIP3    H146081   4.499   6.690   6.257  0.6897  0.1503  0.5915
 8222TIP3    H246082   4.589   6.701   6.136 -1.1645  0.0379 -0.8434
 8223TIP3   OH246083   2.382   0.949   3.990  0.4148  0.8890 -0.0868
 8223TIP3    H146084   2.321   0.951   3.916 -0.4475 -1.3572  0.4988
 8223TIP3    H246085   2.325   0.945   4.067  1.2468 -1.5639  0.4616
 8224TIP3   OH246086   0.399   1.227  14.555  0.0661 -0.6911  0.1947
 8224TIP3    H146087   0.454   1.200  14.628 -0.4865  1.8710  1.6885
 8224TIP3    H246088   0.330   1.280  14.595 -0.2425  0.8618 -2.1723
 8225TIP3   OH246089   0.657   3.357   1.025 -0.0803  0.2104 -0.0319
 8225TIP3    H146090   0.659   3.392   1.114 -2.2531  1.1577 -0.2904
 8225TIP3    H246091   0.722   3.287   1.025  1.4334  1.5242  1.7059
 8226TIP3   OH246092   4.991   5.001   2.768  0.0745  0.0684  0.4901
 8226TIP3    H146093   4.998   4.914   2.809 -1.9876 -1.1959 -1.5621
 8226TIP3    H246094   4.923   5.046   2.818 -0.4423 -0.3962  0.2249
 8227TIP3   OH246095   4.011   3.697  17.158  0.0282  0.6074 -0.2213
 8227TIP3    H146096   4.069   3.636  17.113 -1.1053  0.0654 -0.9716
 8227TIP3    H246097   4.011   3.775  17.103  0.0156  0.5947 -0.2386
 8228TIP3   OH246098   2.426   1.568  10.693 -0.0956  0.3213 -0.1009
 8228TIP3    H146099   2.429   1.659  10.724  0.8669  0.6165 -1.0168
 8228TIP3    H246100   2.508   1.555  10.646 -0.7985 -0.5994 -1.1518
 8229TIP3   OH246101   1.809   0.200  16.077 -0.6452 -0.3781  0.0533
 8229TIP3    H146102   1.789   0.179  15.985  0.5067  0.5476 -0.4231
 8229TIP3    H246103   1.804   0.295  16.082 -1.2300 -0.4488  1.0970
 8230TIP3   OH246104   0.478   4.419   2.927 -0.2882  0.0815 -0.3478
 8230TIP3    H146105   0.524   4.441   2.847 -0.4971  1.4620 -0.1156
 8230TIP3    H246106   0.464   4.503   2.971 -0.6859 -0.5818  0.8549
 8231TIP3   OH246107   5.818   4.555  12.055  0.3504 -0.0383  0.0137
 8231TIP3    H146108   5.790   4.506  12.132  1.6354 -1.2794 -0.2796
 8231TIP3    H246109   5.896   4.603  12.084  1.5202 -1.3867 -0.7515
 8232TIP3   OH246110   3.672   5.176   5.411  0.4092  0.1240  0.5236
 8232TIP3    H146111   3.722   5.097   5.433  0.0466 -0.4683 -0.6305
 8232TIP3    H246112   3.736   5.236   5.374  0.7455  0.5186  1.7144
 8233TIP3   OH246113   1.799   6.030  12.482  0.0284  0.0293  0.3608
 8233TIP3    H146114   1.736   5.972  12.440  0.3251 -0.0441  0.0131
 8233TIP3    H246115   1.816   6.099  12.418  0.2286  0.1011  0.4904
 8234TIP3   OH246116   3.386   6.273   0.426 -0.3488  0.2545  0.1971
 8234TIP3    H146117   3.439   6.262   0.347  0.9010  0.7903  0.9192
 8234TIP3    H246118   3.413   6.201   0.483  0.9484  1.5047  1.2531
 8235TIP3   OH246119   6.366   4.785   3.524  0.4452  0.0573  0.0699
 8235TIP3    H146120   6.290   4.726   3.521  0.6972 -0.3388  1.1273
 8235TIP3    H246121   6.332   4.869   3.494 -0.6904  0.1586  1.5230
 8236TIP3   OH246122   0.810   4.950  12.403  0.1314  0.5585 -0.1974
 8236TIP3    H146123   0.799   4.929  12.496  0.5874 -0.9773 -0.4558
 8236TIP3    H246124   0.867   4.880  12.370  0.2744  1.2922 -1.5512
 8237TIP3   OH246125   4.820   5.443  13.046 -0.1970  0.2458  0.1259
 8237TIP3    H146126   4.849   5.397  13.125  1.3749 -1.7767 -1.5011
 8237TIP3    H246127   4.805   5.533  13.074  1.0999 -0.2174  2.5373
 8238TIP3   OH246128   3.761   6.117   1.843  0.3998  0.0505  0.5834
 8238TIP3    H146129   3.855   6.132   1.839  0.4867 -0.6139  0.0437
 8238TIP3    H246130   3.723   6.189   1.792  0.7252 -0.6466 -0.6723
 8239TIP3   OH246131   1.063   6.183   2.980  0.1826 -0.1251  0.4103
 8239TIP3    H146132   1.090   6.196   2.889  2.2327  1.6988  1.1661
 8239TIP3    H246133   0.969   6.167   2.975  0.0825  0.7149 -1.9675
 8240TIP3   OH246134   3.844   0.925  13.218  0.1425  0.0113  0.5295
 8240TIP3    H146135   3.934   0.909  13.190 -0.6564 -2.4142 -0.9037
 8240TIP3    H246136   3.811   0.990  13.157  0.4692 -0.2468  0.0681
 8241TIP3   OH246137   2.992   5.848  14.716 -0.0719 -0.6736  0.6749
 8241TIP3    H146138   3.074   5.846  14.764 -0.1073 -0.5865  0.7396
 8241TIP3    H246139   2.954   5.934  14.736  0.2677 -0.3319 -0.1001
 8242TIP3   OH246140   2.820   0.648  14.647 -0.1327  0.1102  0.0075
 8242TIP3    H146141   2.837   0.682  14.735 -0.0316 -0.8610  0.3753
 8242TIP3    H246142   2.794   0.557  14.661 -0.9244  0.1767 -0.9102
 8243TIP3   OH246143   4.694   2.150  16.491  0.3526 -0.6620  0.2429
 8243TIP3    H146144   4.630   2.109  16.434  0.2652 -0.1385 -0.0484
 8243TIP3    H246145   4.696   2.242  16.463  3.1988 -1.1655 -1.6305
 8244TIP3   OH246146   0.545   1.150  12.118  0.5239  0.1643 -0.0945
 8244TIP3    H146147   0.597   1.090  12.065 -0.1126 -0.1518 -0.3801
 8244TIP3    H246148   0.566   1.126  12.209 -1.2670 -1.9590 -0.1529
 8245TIP3   OH246149   0.585   3.283   4.475  0.1680 -0.5136 -0.1418
 8245TIP3    H146150   0.514   3.219   4.485 -0.6788  0.4394  0.0099
 8245TIP3    H246151   0.652   3.253   4.537  0.7060 -2.4516 -1.5364
 8246TIP3   OH246152   1.475   3.251  11.427 -0.2203 -0.1641 -0.6295
 8246TIP3    H146153   1.537   3.308  11.473  1.5367 -1.4563 -1.2976
 8246TIP3    H246154   1.421   3.312  11.377  1.1423  0.9911 -0.7848
 8247TIP3   OH246155   4.512   6.527   3.790  0.1859 -0.3393 -0.0334
 8247TIP3    H146156   4.607   6.533   3.796  0.0951  0.6087  0.7056
 8247TIP3    H246157   4.489   6.580   3.714  0.3237 -1.5469 -0.9428
 8248TIP3   OH246158   5.980   5.349   6.268 -0.2501 -0.4453  0.1693
 8248TIP3    H146159   6.055   5.385   6.222  0.1806 -1.0680  0.3748
 8248TIP3    H246160   5.963   5.411   6.340 -0.9963  0.5915 -0.8612
 8249TIP3   OH246161   2.227   0.138  13.146  0.0898  0.1261 -0.0618
 8249TIP3    H146162   2.179   0.057  13.162 -1.4609  1.0014  0.0049
 8249TIP3    H246163   2.315   0.110  13.122  0.2120 -1.5150  1.9420
 8250TIP3   OH246164   4.516   5.879  12.429  0.2262  0.2580  0.7627
 8250TIP3    H146165   4.469   5.929  12.362  0.7702  1.5951  1.3454
 8250TIP3    H246166   4.447   5.829  12.474 -0.2269 -0.1171 -0.3096
 8251TIP3   OH246167   6.061   0.253  13.279  0.3100 -0.3337 -0.2812
 8251TIP3    H146168   6.147   0.297  13.285 -0.2317  0.7979 -0.4791
 8251TIP3    H246169   5.998   0.323  13.294 -0.6289 -0.8063 -1.8582
 8252TIP3   OH246170   4.604   0.344  11.606  0.1477  0.4167 -0.1003
 8252TIP3    H146171   4.511   0.324  11.604  0.5438 -1.8094  0.7416
 8252TIP3    H246172   4.609   0.437  11.631 -1.8235  0.7729 -0.9081
 8253TIP3   OH246173   2.934   6.245   1.949  0.1641 -0.0230 -0.3795
 8253TIP3    H146174   3.009   6.303   1.937  0.0522  0.9354  2.6681
 8253TIP3    H246175   2.860   6.305   1.960 -0.6972 -0.9038 -1.2251
 8254TIP3   OH246176   2.206   2.863  11.258  0.2182  0.3047  0.1856
 8254TIP3    H146177   2.171   2.947  11.288  0.4836  0.3468  0.3752
 8254TIP3    H246178   2.212   2.873  11.163 -0.6083  0.1770  0.1118
 8255TIP3   OH246179   5.934   4.431   0.049  0.6155 -0.1570  0.1053
 8255TIP3    H146180   5.872   4.503   0.038  1.0265  0.1199 -0.4470
 8255TIP3    H246181   5.934   4.386  -0.035  1.6667  0.2510 -0.1330
 8256TIP3   OH246182   0.080   2.785  12.805  0.2278  0.5600 -0.0542
 8256TIP3    H146183   0.074   2.690  12.810 -2.5945  0.6477 -0.1213
 8256TIP3    H246184   0.063   2.805  12.713 -2.2211  1.1780  0.4547
 8257TIP3   OH246185   2.955   2.766  13.177  0.8587 -0.2023  0.8193
 8257TIP3    H146186   2.967   2.698  13.111  0.9529 -1.0966  1.7396
 8257TIP3    H246187   2.894   2.728  13.240  0.9010  0.5707  1.3472
 8258TIP3   OH246188   6.565   1.628   3.104  1.0266  0.2879  0.2226
 8258TIP3    H146189   6.523   1.658   3.185 -0.0315 -0.9633  0.1743
 8258TIP3    H246190   6.557   1.532   3.107  1.1268  0.2049 -1.2728
 8259TIP3   OH246191   3.863   0.627  15.487 -0.2760  0.3477 -0.3267
 8259TIP3    H146192   3.920   0.629  15.410  0.0596  0.1441 -0.0916
 8259TIP3    H246193   3.843   0.718  15.505  2.2255  0.6880  1.2085
 8260TIP3   OH246194   2.538   3.036   5.207  0.1825  0.5535  0.0645
 8260TIP3    H146195   2.528   2.978   5.283  0.1781 -0.2358 -0.5207
 8260TIP3    H246196   2.618   3.006   5.164  0.9398  1.8852  0.4929
 8261TIP3   OH246197   5.516   5.326   2.311  0.5659 -0.6367  0.3768
 8261TIP3    H146198   5.499   5.407   2.264 -0.1632 -0.5837  0.7094
 8261TIP3    H246199   5.597   5.292   2.273  0.3031 -0.3034 -0.5103
 8262TIP3   OH246200   6.058   5.815  13.222 -0.6812 -0.5261  0.1249
 8262TIP3    H146201   6.047   5.901  13.262  1.5248 -0.7787  1.4351
 8262TIP3    H246202   6.112   5.832  13.145  0.2676 -0.7704  0.7172
 8263TIP3   OH246203   5.634   4.694   6.257 -0.2308 -0.0668 -0.1915
 8263TIP3    H146204   5.635   4.673   6.350 -1.8835 -0.8180 -0.2999
 8263TIP3    H246205   5.577   4.770   6.250  1.2923  1.0950 -0.4301
 8264TIP3   OH246206   4.525   4.287  13.926 -0.7805 -0.1997 -0.5449
 8264TIP3    H146207   4.541   4.379  13.908 -0.8945  0.0481  0.5517
 8264TIP3    H246208   4.518   4.282  14.021 -3.4397 -0.8816 -0.6791
 8265TIP3   OH246209   3.013   5.291   0.486 -0.4535  0.4582 -0.2698
 8265TIP3    H146210   2.957   5.301   0.563 -0.0727  1.2636 -0.0864
 8265TIP3    H246211   3.102   5.300   0.520 -0.1315 -1.8810 -0.3867
 8266TIP3   OH246212   6.178   2.153   3.438  0.1109 -0.2658  0.3340
 8266TIP3    H146213   6.222   2.129   3.520 -1.5936  1.6753  1.9119
 8266TIP3    H246214   6.163   2.247   3.445 -0.7160 -0.1675 -1.9264
 8267TIP3   OH246215   4.532   2.104  13.439 -0.1463 -0.1724  0.1938
 8267TIP3    H146216   4.486   2.169  13.492 -0.7831  0.5199 -1.1347
 8267TIP3    H246217   4.620   2.138  13.429 -0.1144 -0.1524  0.5619
 8268TIP3   OH246218   4.675   4.737   0.176  0.9150  0.2021  0.0240
 8268TIP3    H146219   4.648   4.677   0.245 -3.9683  1.5036 -0.4295
 8268TIP3    H246220   4.711   4.813   0.222  0.2686 -0.0488  0.9653
 8269TIP3   OH246221   1.435   6.090   3.884  0.5356 -0.2865  0.1304
 8269TIP3    H146222   1.372   6.157   3.858 -0.6853 -1.1547  0.7798
 8269TIP3    H246223   1.433   6.026   3.813 -0.0188 -0.7793  0.5830
 8270TIP3   OH246224   0.223   2.810   2.229  0.1746  0.0652  0.4852
 8270TIP3    H146225   0.243   2.751   2.301  0.6938  0.9767  1.1124
 8270TIP3    H246226   0.236   2.898   2.266  1.4554  0.5480 -0.9938
 8271TIP3   OH246227   2.460   4.787  16.017 -0.0715 -0.7228 -0.3217
 8271TIP3    H146228   2.508   4.829  16.088  2.4114  0.0776 -2.3108
 8271TIP3    H246229   2.497   4.699  16.010  0.7113 -0.3341 -1.4354
 8272TIP3   OH246230   6.243   0.032   5.012 -0.6301  0.5444  0.0329
 8272TIP3    H146231   6.261   0.125   4.998 -1.8938  1.0852  1.7090
 8272TIP3    H246232   6.330  -0.007   5.025 -0.1452  1.6863  0.3415
 8273TIP3   OH246233   5.320   4.375  16.513  0.0880  0.4886 -0.6808
 8273TIP3    H146234   5.384   4.343  16.578  0.1871  1.4938 -0.2690
 8273TIP3    H246235   5.372   4.391  16.435 -0.0722 -0.9737 -1.1294
 8274TIP3   OH246236   1.156   6.298  10.598  0.3718  0.2161 -0.4775
 8274TIP3    H146237   1.205   6.220  10.575  0.6667 -0.4017  1.9356
 8274TIP3    H246238   1.159   6.301  10.694 -2.5598  1.2660 -0.2930
 8275TIP3   OH246239   3.007   0.864  13.472 -0.6300  0.2035 -0.7337
 8275TIP3    H146240   2.912   0.857  13.472 -0.8133  2.1909 -1.1025
 8275TIP3    H246241   3.028   0.913  13.551  0.0523  0.2062 -0.9106
 8276TIP3   OH246242   5.837   4.908   2.045  0.2493  0.1073  0.4034
 8276TIP3    H146243   5.819   5.002   2.049  0.5877  0.3499 -2.2026
 8276TIP3    H246244   5.754   4.869   2.018  0.8506  0.0349 -1.4292
 8277TIP3   OH246245   1.196   3.403   0.985 -0.0105 -0.2278  0.0381
 8277TIP3    H146246   1.106   3.386   1.013  0.2476  1.3544  2.0595
 8277TIP3    H246247   1.187   3.467   0.914 -0.5432 -1.8805 -1.4350
 8278TIP3   OH246248   1.110   1.215   4.972 -0.3364  0.2913 -0.0808
 8278TIP3    H146249   1.044   1.161   4.928 -2.0164 -0.1470  2.7858
 8278TIP3    H246250   1.133   1.167   5.051  0.6857  2.1920  0.8645
 8279TIP3   OH246251   4.156   5.162   6.434 -0.2850 -0.4965 -0.2903
 8279TIP3    H146252   4.251   5.161   6.420 -0.5645 -0.5407 -2.5241
 8279TIP3    H246253   4.129   5.251   6.412 -0.7723 -0.4868  0.3331
 8280TIP3   OH246254   4.682   5.100   2.302 -0.9415 -0.9901 -0.3131
 8280TIP3    H146255   4.601   5.051   2.313 -0.8187 -1.0567  0.3472
 8280TIP3    H246256   4.748   5.034   2.281 -0.5283 -1.3052  1.7482
 8281TIP3   OH246257   3.424   4.832  15.533 -0.2516 -0.1958 -0.0791
 8281TIP3    H146258   3.384   4.918  15.543 -0.0311 -0.2096  1.0399
 8281TIP3    H246259   3.362   4.783  15.479  0.0073  0.8980 -1.4237
 8282TIP3   OH246260   6.198   4.520   4.822  0.0267 -0.0145  0.5555
 8282TIP3    H146261   6.134   4.572   4.870  0.1111  0.4291  0.1910
 8282TIP3    H246262   6.269   4.505   4.885 -0.3269 -0.3229  0.8918
 8283TIP3   OH246263   3.561   6.324  13.112 -0.2047 -0.1547 -0.2625
 8283TIP3    H146264   3.642   6.331  13.062  0.5079 -0.1018  0.8700
 8283TIP3    H246265   3.587   6.284  13.195 -1.5002 -1.0664 -0.2526
 8284TIP3   OH246266   4.551   5.981  13.753 -0.3526  0.2153 -0.1583
 8284TIP3    H146267   4.637   5.977  13.712 -0.4639  1.7695 -0.5959
 8284TIP3    H246268   4.489   5.980  13.680 -0.7104 -0.5464  0.1405
 8285TIP3   OH246269   2.540   0.694  14.083  0.2858 -0.1830  0.3830
 8285TIP3    H146270   2.561   0.612  14.038 -0.1993 -0.4452  0.6394
 8285TIP3    H246271   2.448   0.709  14.064  0.7971  1.2539 -1.1954
 8286TIP3   OH246272   1.453   4.510  11.876 -0.8149  0.6424 -0.2581
 8286TIP3    H146273   1.456   4.414  11.874  0.1482  0.6715 -0.6674
 8286TIP3    H246274   1.359   4.531  11.876 -1.0614 -0.3175  1.3257
 8287TIP3   OH246275   3.690   3.048  15.864 -0.7593 -0.1268  0.3003
 8287TIP3    H146276   3.771   3.095  15.880 -0.8297  0.4145 -0.9033
 8287TIP3    H246277   3.702   2.964  15.909  0.4943 -0.0882  0.0665
 8288TIP3   OH246278   1.635   6.063  13.836 -0.0590  0.1666 -0.0442
 8288TIP3    H146279   1.671   5.976  13.818  1.1385  0.6547 -0.1506
 8288TIP3    H246280   1.658   6.080  13.927 -1.8642 -0.3405  0.5275
 8289TIP3   OH246281   2.096   0.625   4.781 -0.0678 -0.0197  0.4502
 8289TIP3    H146282   2.069   0.604   4.691  0.2605 -1.6964  0.6982
 8289TIP3    H246283   2.154   0.701   4.771  2.8059 -2.1965 -1.2881
 8290TIP3   OH246284   4.849   5.784   4.570 -0.1463  0.5421 -0.0948
 8290TIP3    H146285   4.769   5.754   4.528  0.2128 -0.9244  0.2131
 8290TIP3    H246286   4.843   5.753   4.660  0.5871  0.7609  0.0422
 8291TIP3   OH246287   4.874   3.981  13.371  0.3565 -0.3926  0.4747
 8291TIP3    H146288   4.843   3.892  13.355 -1.1186  0.2309 -0.3272
 8291TIP3    H246289   4.818   4.014  13.441  0.3309  0.1881  0.1876
 8292TIP3   OH246290   4.503   2.974   1.932  0.8407  0.2911 -0.0542
 8292TIP3    H146291   4.451   2.997   2.009 -0.5133  0.8222 -1.0801
 8292TIP3    H246292   4.550   3.054   1.909  1.9144 -0.1058  0.6977
 8293TIP3   OH246293   0.721   1.078   2.400 -0.7558  0.0565  0.7403
 8293TIP3    H146294   0.725   1.162   2.446 -0.0825 -0.3646  1.4875
 8293TIP3    H246295   0.747   1.098   2.310  1.9217  0.2768  1.4859
 8294TIP3   OH246296   4.644   5.395   3.965 -0.4061 -0.1560 -0.2816
 8294TIP3    H146297   4.558   5.401   3.923  0.1180  1.9915 -1.1691
 8294TIP3    H246298   4.694   5.467   3.927  0.5336  1.1506  3.1051
 8295TIP3   OH246299   5.489   1.436  11.720  0.4783  0.0383  0.3939
 8295TIP3    H146300   5.502   1.436  11.625 -2.0730  0.9144 -0.0331
 8295TIP3    H246301   5.464   1.346  11.741 -0.1630  0.1101 -0.0071
 8296TIP3   OH246302   0.873   4.025   1.942  1.1667 -0.0478 -0.3127
 8296TIP3    H146303   0.850   3.989   2.028 -2.0759  1.1135 -0.5397
 8296TIP3    H246304   0.881   3.948   1.885 -2.0194 -0.7270 -0.0358
 8297TIP3   OH246305   2.226   5.924   0.818 -0.3171 -0.5499 -0.3515
 8297TIP3    H146306   2.250   5.832   0.807 -0.8998 -0.6471 -0.8386
 8297TIP3    H246307   2.248   5.966   0.735 -0.0510 -0.2464 -0.1314
 8298TIP3   OH246308   6.032   4.513   4.599 -0.1430 -0.4058  0.5029
 8298TIP3    H146309   5.950   4.551   4.632  0.2243  0.5494  0.3544
 8298TIP3    H246310   6.096   4.531   4.668  0.0265 -0.8315  0.4602
 8299TIP3   OH246311   1.645   2.969  15.327  0.6085 -0.1679 -0.0772
 8299TIP3    H146312   1.604   2.886  15.303  0.6249 -0.3744  0.5813
 8299TIP3    H246313   1.689   2.998  15.248 -0.9733  0.1622 -0.8693
 8300TIP3   OH246314   0.799   4.677   0.381  0.8749 -0.3859  0.1375
 8300TIP3    H146315   0.748   4.690   0.301 -2.1582  0.3166  2.0068
 8300TIP3    H246316   0.839   4.762   0.398  1.1608 -0.4157 -0.3517
 8301TIP3   OH246317   2.189   6.193  11.631 -0.6820  0.7275 -0.2370
 8301TIP3    H146318   2.224   6.239  11.555 -0.2727  0.7665 -0.0283
 8301TIP3    H246319   2.254   6.126  11.651 -1.2971  0.0255 -0.5664
 8302TIP3   OH246320   0.487   3.877  16.770 -0.1426  0.2604 -0.0872
 8302TIP3    H146321   0.523   3.907  16.854  0.7840 -0.3141 -0.2746
 8302TIP3    H246322   0.456   3.957  16.728  1.7561  0.9166 -0.3182
 8303TIP3   OH246323   5.886   0.060  16.151 -0.0068  0.4340 -0.4181
 8303TIP3    H146324   5.874  -0.035  16.138 -1.2650  0.4485  0.4766
 8303TIP3    H246325   5.924   0.067  16.239  0.0809  0.7662 -0.4835
 8304TIP3   OH246326   5.774   2.680   0.563 -0.5215  0.0089 -0.5510
 8304TIP3    H146327   5.755   2.612   0.498  1.2152  0.1685 -1.2750
 8304TIP3    H246328   5.843   2.643   0.617 -1.0737  0.3748  0.4231
 8305TIP3   OH246329   4.435   3.911   5.972  0.0038  0.6131  0.4139
 8305TIP3    H146330   4.439   3.992   5.921 -0.6960  0.6501  0.4164
 8305TIP3    H246331   4.343   3.885   5.969  0.3484 -0.5798 -0.2026
 8306TIP3   OH246332   5.039   1.184   4.645  0.1697 -0.3582 -0.7287
 8306TIP3    H146333   5.072   1.116   4.703 -2.3383 -0.6319  0.4817
 8306TIP3    H246334   5.001   1.250   4.703 -2.0066 -0.4085 -1.9814
 8307TIP3   OH246335   0.395   6.723   3.243 -0.5112  0.4864  0.2699
 8307TIP3    H146336   0.334   6.710   3.316  0.4323 -0.3706  0.9424
 8307TIP3    H246337   0.479   6.739   3.285 -0.1341  0.9748 -0.6446
 8308TIP3   OH246338   0.332   5.301  16.822 -0.1173  0.0342 -0.0248
 8308TIP3    H146339   0.357   5.376  16.767  1.3473 -0.7890 -0.5291
 8308TIP3    H246340   0.357   5.327  16.910  1.7960 -0.4125 -0.3992
 8309TIP3   OH246341   3.572   2.854  11.234 -0.4908  0.2498  0.2349
 8309TIP3    H146342   3.596   2.762  11.241  3.1007  0.8288 -1.7486
 8309TIP3    H246343   3.521   2.860  11.154 -0.6757  0.0076  0.3340
 8310TIP3   OH246344   2.160   5.867  16.048  0.2036  0.2092  0.0454
 8310TIP3    H146345   2.237   5.911  16.083 -0.0603  0.3142  0.4960
 8310TIP3    H246346   2.139   5.916  15.968  0.6049  0.1715 -0.0881
 8311TIP3   OH246347   3.220   2.342   2.798  0.0500  0.0724  0.0479
 8311TIP3    H146348   3.307   2.309   2.822  0.2683  0.2656 -0.4512
 8311TIP3    H246349   3.159   2.285   2.844  0.4361 -0.3980 -0.0147
 8312TIP3   OH246350   4.467   4.826  12.870  0.1031  0.3097  0.4666
 8312TIP3    H146351   4.563   4.821  12.868  0.1113 -0.2371  1.5105
 8312TIP3    H246352   4.442   4.777  12.948 -0.9629  1.6440  0.9996
 8313TIP3   OH246353   1.212   2.863  16.973 -0.1520  0.2891  0.0982
 8313TIP3    H146354   1.279   2.930  16.988 -0.2355  0.3396  0.2531
 8313TIP3    H246355   1.161   2.895  16.899  0.2770  0.0312 -0.3101
 8314TIP3   OH246356   4.929   0.859  15.919  0.1368 -0.4149 -0.0986
 8314TIP3    H146357   4.951   0.937  15.970  0.7346 -0.4840 -0.2482
 8314TIP3    H246358   4.851   0.885  15.870  0.2619  0.0533 -0.0611
 8315TIP3   OH246359   1.564   3.017  13.332 -0.9119  0.6401 -0.0317
 8315TIP3    H146360   1.555   3.110  13.311 -0.5495  0.7183  0.1380
 8315TIP3    H246361   1.479   2.992  13.370 -0.2705  1.5124  2.1788
 8316TIP3   OH246362   3.834   0.923  11.751  0.4931 -0.1742  0.4096
 8316TIP3    H146363   3.783   0.973  11.815  1.2161  1.3788 -0.1981
 8316TIP3    H246364   3.917   0.905  11.795  0.6746  0.1658  0.2037
 8317TIP3   OH246365   2.974   3.113  13.469  0.4097 -0.2938 -0.1318
 8317TIP3    H146366   3.043   3.160  13.517  0.3401 -1.0908  0.7644
 8317TIP3    H246367   3.012   3.028  13.449  0.0311 -0.3767 -0.5251
 8318TIP3   OH246368   2.131   0.089   0.353 -0.0038 -0.3522 -0.1457
 8318TIP3    H146369   2.082   0.096   0.272  0.1812  1.1006 -0.1620
 8318TIP3    H246370   2.070   0.116   0.421  0.0631 -0.8621  0.1278
 8319TIP3   OH246371   0.988   5.622   2.456 -0.3341 -0.3750 -0.0757
 8319TIP3    H146372   0.893   5.622   2.443 -0.2355 -0.7605 -0.8504
 8319TIP3    H246373   1.000   5.599   2.548 -0.9384 -2.6403 -0.5189
 8320TIP3   OH246374   4.898   5.253   1.312  0.0669  0.0836 -0.3974
 8320TIP3    H146375   4.821   5.237   1.257  0.4826 -0.4678 -0.8407
 8320TIP3    H246376   4.895   5.184   1.379 -0.2963  0.5945  0.1168
 8321TIP3   OH246377   6.387   5.465  10.347 -0.6729 -0.1057  0.1737
 8321TIP3    H146378   6.433   5.382  10.341 -1.5279 -0.5931  0.2779
 8321TIP3    H246379   6.444   5.527  10.301  0.2189 -0.6328  0.5502
 8322TIP3   OH246380   6.152   3.374   3.958 -0.5064 -0.0219  0.0513
 8322TIP3    H146381   6.232   3.357   3.909 -0.0777  0.3973  0.5951
 8322TIP3    H246382   6.165   3.329   4.042 -1.2531 -0.7758 -0.2203
 8323TIP3   OH246383   2.138   0.769  11.052 -0.4974  0.8182 -0.0616
 8323TIP3    H146384   2.074   0.728  10.994 -0.0903  0.4576 -0.2545
 8323TIP3    H246385   2.097   0.852  11.077 -1.9573 -0.2944  1.4558
 8324TIP3   OH246386   4.185   1.765  16.396  1.1273  0.5973 -0.4793
 8324TIP3    H146387   4.168   1.679  16.357  0.5269  0.7681 -0.6058
 8324TIP3    H246388   4.280   1.771  16.401  1.2874  1.0457 -2.9769
 8325TIP3   OH246389   2.701   0.059  14.244 -0.2665  0.0457  0.6042
 8325TIP3    H146390   2.732   0.145  14.274 -1.1534 -0.1010  2.0077
 8325TIP3    H246391   2.707   0.064  14.148 -0.3665  1.7029  0.6490
 8326TIP3   OH246392   1.535   4.027   3.839 -0.1079 -0.6535  0.2119
 8326TIP3    H146393   1.507   4.026   3.748 -2.1709 -1.2701  0.7888
 8326TIP3    H246394   1.503   4.111   3.873  0.7857 -0.3566  0.3561
 8327TIP3   OH246395   6.639   0.893   2.253  0.4012 -0.4803  0.2416
 8327TIP3    H146396   6.718   0.892   2.306  0.4408  2.0405  0.3804
 8327TIP3    H246397   6.627   0.803   2.224  1.3867 -1.5864  3.0269
 8328TIP3   OH246398   6.101   2.233   2.229 -0.3643  0.0393  0.1759
 8328TIP3    H146399   6.087   2.177   2.305  0.2854 -2.6067 -1.5028
 8328TIP3    H246400   6.066   2.318   2.254  1.2174 -0.2568  3.9390
 8329TIP3   OH246401   5.141   3.056   4.517 -0.0053 -0.4382 -0.4713
 8329TIP3    H146402   5.220   3.003   4.519 -1.0959 -2.2028 -1.4476
 8329TIP3    H246403   5.141   3.098   4.431 -0.1920 -0.5824 -0.5446
 8330TIP3   OH246404   2.437   3.588   5.496  0.4145  0.1896  0.4949
 8330TIP3    H146405   2.373   3.614   5.429  1.7495  2.5768  0.0229
 8330TIP3    H246406   2.476   3.508   5.462 -1.3044 -0.5501  0.1322
 8331TIP3   OH246407   4.239   5.028  11.924  0.3598 -0.4491  0.2042
 8331TIP3    H146408   4.175   5.044  11.855  0.3592 -0.0677  0.2951
 8331TIP3    H246409   4.315   5.079  11.900  1.2425 -2.1217 -0.7424
 8332TIP3   OH246410   6.601   6.014  12.591  0.3384 -0.1401 -0.1764
 8332TIP3    H146411   6.577   6.004  12.684 -2.1127 -2.4912 -0.9521
 8332TIP3    H246412   6.551   6.091  12.563 -0.8057 -0.8271 -0.0791
 8333TIP3   OH246413   2.087   5.306  16.809  0.1082 -0.2482  0.0310
 8333TIP3    H146414   2.073   5.386  16.758  0.3885  0.6037  1.2456
 8333TIP3    H246415   2.018   5.308  16.876 -0.3598 -1.4324 -0.3995
 8334TIP3   OH246416   0.509   5.902   5.265 -0.5208  0.5525 -0.4885
 8334TIP3    H146417   0.545   5.829   5.314 -0.7803  0.5972 -0.2299
 8334TIP3    H246418   0.581   5.965   5.260 -0.2798  0.2523 -0.7672
 8335TIP3   OH246419   2.110   2.680   1.344  0.3210  0.2890  0.0132
 8335TIP3    H146420   2.189   2.637   1.310  0.8403 -0.1149  1.6219
 8335TIP3    H246421   2.115   2.769   1.310  0.4793 -0.2421 -1.4276
 8336TIP3   OH246422   5.054   5.187  10.952  0.4894  0.1055  0.1305
 8336TIP3    H146423   5.106   5.129  11.007  0.1916 -0.4501 -0.1699
 8336TIP3    H246424   5.100   5.271  10.955  0.7288 -0.0452  0.8523
 8337TIP3   OH246425   0.756   2.886   0.898 -0.0227 -0.4734  0.1977
 8337TIP3    H146426   0.849   2.866   0.908  0.3985  1.3354  0.3917
 8337TIP3    H246427   0.725   2.827   0.830  1.1539 -1.4291  0.4705
 8338TIP3   OH246428   3.439   5.517   1.486  1.0307  0.6513 -0.2976
 8338TIP3    H146429   3.438   5.546   1.395 -1.3568 -0.5637 -0.7628
 8338TIP3    H246430   3.351   5.537   1.518  1.8203  1.0771  1.7799
 8339TIP3   OH246431   4.650   3.111  11.656  0.3891 -0.3014 -0.0484
 8339TIP3    H146432   4.690   3.031  11.690 -0.2255 -0.2606  0.8253
 8339TIP3    H246433   4.602   3.147  11.731 -0.0639  0.4198 -0.6669
 8340TIP3   OH246434   3.292   0.957   2.351  0.4741 -0.1625  0.4385
 8340TIP3    H146435   3.276   0.946   2.257  1.1718  1.1894  0.1412
 8340TIP3    H246436   3.378   0.917   2.365  0.5047 -0.0915  0.4512
 8341TIP3   OH246437   6.663   2.416   4.938  0.4271 -0.4561  0.1204
 8341TIP3    H146438   6.640   2.441   5.027  0.4658  0.0609 -0.0134
 8341TIP3    H246439   6.684   2.322   4.944 -1.3715 -0.8836  0.3098
 8342TIP3   OH246440   0.226   1.994   0.508 -0.1357  0.4261  0.7318
 8342TIP3    H146441   0.177   2.001   0.589  1.2271 -0.9330  1.7301
 8342TIP3    H246442   0.284   2.071   0.508 -0.3921  0.6184  0.8655
 8343TIP3   OH246443   6.594   0.428  13.242  0.2079 -1.0858  0.4025
 8343TIP3    H146444   6.656   0.501  13.241 -2.3591  1.2774  0.6301
 8343TIP3    H246445   6.643   0.354  13.207  2.8649  0.8429 -0.2459
 8344TIP3   OH246446   0.201   4.326   2.677 -0.1361 -0.4285  0.0753
 8344TIP3    H146447   0.197   4.269   2.753  1.4403 -1.1199 -0.3249
 8344TIP3    H246448   0.260   4.397   2.703 -1.7223  0.8362  0.4111
 8345TIP3   OH246449   3.033   3.599  17.104 -0.0471  0.3088  0.1139
 8345TIP3    H146450   2.986   3.527  17.145 -0.6809 -0.5059 -1.8892
 8345TIP3    H246451   2.969   3.640  17.047  0.5408  1.9486  0.5823
 8346TIP3   OH246452   6.043   0.902  16.062 -0.3392 -0.0196 -0.6774
 8346TIP3    H146453   5.979   0.882  15.994 -1.9096 -2.6616  1.3980
 8346TIP3    H246454   6.015   0.987  16.097 -3.6297 -1.6129  0.9839
 8347TIP3   OH246455   5.523   0.348   3.305  0.2516  0.3463 -0.6856
 8347TIP3    H146456   5.476   0.431   3.312 -0.2460  0.0890 -0.9798
 8347TIP3    H246457   5.540   0.337   3.212  1.4512  0.7418 -0.5264
 8348TIP3   OH246458   2.261   4.959  13.783 -0.3435 -0.4694  0.0457
 8348TIP3    H146459   2.171   4.927  13.783 -0.8030  0.6544  2.2473
 8348TIP3    H246460   2.309   4.896  13.838  0.0128 -0.5064 -0.2974
 8349TIP3   OH246461   0.975   3.918   0.095  0.1736 -0.0229  0.1221
 8349TIP3    H146462   1.011   3.838   0.057  1.4945 -0.2730  1.7648
 8349TIP3    H246463   0.892   3.891   0.135 -0.2540 -0.1682 -0.8461
 8350TIP3   OH246464   3.386   3.449   0.788  0.3050  0.2912  0.0524
 8350TIP3    H146465   3.464   3.499   0.765 -0.1250  0.6453 -0.6483
 8350TIP3    H246466   3.348   3.498   0.861  1.3497 -0.5147  1.1765
 8351TIP3   OH246467   5.159   3.165  13.790  0.7742 -0.5260 -0.4092
 8351TIP3    H146468   5.144   3.089  13.846  2.4034 -0.4896  0.1371
 8351TIP3    H246469   5.173   3.237  13.852  2.2787 -0.4188 -0.8417
 8352TIP3   OH246470   6.187   6.088  11.830 -0.0422 -0.0896 -0.4374
 8352TIP3    H146471   6.203   6.182  11.838  2.1517 -0.3961 -0.5186
 8352TIP3    H246472   6.192   6.054  11.919  1.5079 -0.4184 -0.6294
 8353TIP3   OH246473   0.337   4.782  13.390 -0.1218 -0.2869  0.6786
 8353TIP3    H146474   0.362   4.717  13.455  3.1112 -1.0599 -1.0983
 8353TIP3    H246475   0.399   4.854  13.403 -0.4575  0.2461 -0.4973
 8354TIP3   OH246476   1.828   6.298   2.037 -0.6546  0.1850  0.1914
 8354TIP3    H146477   1.755   6.236   2.031 -0.4774 -0.0366  0.3209
 8354TIP3    H246478   1.903   6.244   2.061 -0.2139  0.2515 -0.9698
 8355TIP3   OH246479   5.419   5.220  14.700  0.0919  0.0023  0.4675
 8355TIP3    H146480   5.460   5.277  14.765 -2.1881  2.3065  0.0749
 8355TIP3    H246481   5.371   5.155  14.751  0.6903 -0.0428  0.9868
 8356TIP3   OH246482   5.644   0.607   4.152  0.3891 -0.6239 -0.2359
 8356TIP3    H146483   5.594   0.547   4.207 -1.3558 -1.0991 -2.2090
 8356TIP3    H246484   5.735   0.593   4.179 -0.3528 -0.6358  2.6301
 8357TIP3   OH246485   0.151   6.753   5.770 -0.7129  0.2233 -0.1970
 8357TIP3    H146486   0.073   6.720   5.728 -0.5289  0.1958 -0.5204
 8357TIP3    H246487   0.218   6.687   5.753 -1.1492 -0.8915  1.9900
 8358TIP3   OH246488   5.785   4.470   5.624  0.2738  0.7263  0.1680
 8358TIP3    H146489   5.715   4.423   5.669  0.7556  0.8808  1.0968
 8358TIP3    H246490   5.767   4.563   5.642 -1.8125  1.1791 -3.2607
 8359TIP3   OH246491   6.461   2.152   5.701 -0.4593 -0.2752 -0.3036
 8359TIP3    H146492   6.466   2.106   5.784 -0.2710 -0.2753 -0.3147
 8359TIP3    H246493   6.474   2.084   5.635  2.1245  0.0834 -0.2919
 8360TIP3   OH246494   0.708   1.479  15.942  1.2066  0.1926  0.6187
 8360TIP3    H146495   0.767   1.542  15.899 -0.3112  1.0140 -0.3538
 8360TIP3    H246496   0.726   1.396  15.898  0.1105  0.8911 -1.2783
 8361TIP3   OH246497   3.294   5.806  14.738  0.2570  0.9472 -0.2561
 8361TIP3    H146498   3.332   5.850  14.814 -2.1052  1.3137  0.8016
 8361TIP3    H246499   3.303   5.713  14.758 -0.4525  1.0414  0.5697
 8362TIP3   OH246500   4.473   6.650  14.472 -0.2559  0.2673  0.3470
 8362TIP3    H146501   4.441   6.562  14.449  0.8807 -0.5992  1.8749
 8362TIP3    H246502   4.414   6.679  14.541 -0.2401  0.4158  0.2971
 8363TIP3   OH246503   1.856   6.199  15.246  0.2385 -0.4870 -0.4156
 8363TIP3    H146504   1.879   6.118  15.291 -0.4982  0.0110  0.9155
 8363TIP3    H246505   1.854   6.265  15.316 -1.3444  0.2330 -1.0920
 8364TIP3   OH246506   0.949   5.591   5.044 -0.0933 -0.0579  0.2947
 8364TIP3    H146507   1.030   5.541   5.045  0.4018  0.7188  0.6926
 8364TIP3    H246508   0.972   5.672   4.997 -0.8467 -0.1687 -0.2744
 8365TIP3   OH246509   3.595   3.959   5.800 -0.5411  0.4779 -0.0205
 8365TIP3    H146510   3.630   4.048   5.794  1.9814 -0.4937 -1.5910
 8365TIP3    H246511   3.505   3.966   5.769  0.2527  2.1921 -2.1870
 8366TIP3   OH246512   3.365   4.385   4.340 -0.1396  0.2962 -0.2754
 8366TIP3    H146513   3.375   4.398   4.246 -0.2553  1.7914 -0.1070
 8366TIP3    H246514   3.384   4.292   4.354  2.2929  0.5517 -1.4382
 8367TIP3   OH246515   5.424   5.570   6.045  0.1149  0.6440 -0.2826
 8367TIP3    H146516   5.340   5.545   6.081  0.5596  0.5316  0.7001
 8367TIP3    H246517   5.489   5.525   6.100  0.8154 -1.5917 -2.6819
 8368TIP3   OH246518   1.809   4.779   5.162 -0.1201 -0.4844 -0.5945
 8368TIP3    H146519   1.769   4.692   5.168 -0.0974 -0.4436  0.2868
 8368TIP3    H246520   1.754   4.825   5.098 -0.3495 -1.0237 -0.8006
 8369TIP3   OH246521   6.170   3.501   0.090  0.2565 -0.0140  0.0035
 8369TIP3    H146522   6.146   3.419   0.047 -0.9930 -0.9908  2.3852
 8369TIP3    H246523   6.224   3.475   0.164  1.8668  1.5591 -0.5495
 8370TIP3   OH246524   5.516   5.887   6.081  0.0765 -0.4659  0.0910
 8370TIP3    H146525   5.503   5.833   6.159 -0.5231 -1.0051 -0.3666
 8370TIP3    H246526   5.508   5.825   6.008  4.4705 -0.8130 -0.3620
 8371TIP3   OH246527   3.599   0.070   3.416 -0.1588  0.1743  0.1552
 8371TIP3    H146528   3.565   0.125   3.487 -0.9357  0.7178 -0.6081
 8371TIP3    H246529   3.539  -0.005   3.414 -0.4728  0.4338 -0.2784
 8372TIP3   OH246530   6.679   6.646  10.971  0.1769  0.6567  0.4667
 8372TIP3    H146531   6.624   6.714  11.009  1.4084  1.6301  0.5711
 8372TIP3    H246532   6.618   6.575  10.951 -1.0003  1.4110  1.2130
 8373TIP3   OH246533   2.790   0.842  11.165 -0.5560  0.0024 -0.7281
 8373TIP3    H146534   2.876   0.824  11.202 -0.2263 -0.6171 -1.7407
 8373TIP3    H246535   2.801   0.829  11.071 -2.1835 -2.0161 -0.7233
 8374TIP3   OH246536   4.664   6.311   4.515  0.3544  0.0669  0.4613
 8374TIP3    H146537   4.660   6.224   4.554  2.8856 -0.0305  0.6086
 8374TIP3    H246538   4.687   6.296   4.424  0.1253  0.5606  0.3205
 8375TIP3   OH246539   1.892   5.780   5.908  0.3774 -0.1492  0.2523
 8375TIP3    H146540   1.875   5.833   5.986 -1.0106  1.2721 -0.9488
 8375TIP3    H246541   1.805   5.756   5.876  0.9449 -3.1216  0.6526
 8376TIP3   OH246542   6.526   5.308   5.547 -0.4824  0.5302  0.1330
 8376TIP3    H146543   6.565   5.395   5.555 -1.5024  1.0256 -0.1072
 8376TIP3    H246544   6.564   5.258   5.619 -0.9389  1.5981  1.1538
 8377TIP3   OH246545   1.470   5.020   5.987 -0.3179 -0.0420  0.3754
 8377TIP3    H146546   1.410   5.062   5.925 -2.4282 -0.2023  2.1770
 8377TIP3    H246547   1.533   5.088   6.010 -1.1807  0.8615  0.1383
 8378TIP3   OH246548   4.650   4.793   0.974 -0.4441 -0.1492 -0.2773
 8378TIP3    H146549   4.653   4.730   0.902 -1.7284 -0.7984  0.2174
 8378TIP3    H246550   4.691   4.747   1.047 -0.2576  0.0665 -0.2415
 8379TIP3   OH246551   1.232   0.657   6.594 -0.2738  0.6663  0.6478
 8379TIP3    H146552   1.269   0.726   6.539 -0.1718 -0.8718 -1.3603
 8379TIP3    H246553   1.138   0.672   6.591 -0.2550  0.7168  0.2008
 8380TIP3   OH246554   6.158   0.430  17.051  0.5834 -0.4397  0.2745
 8380TIP3    H146555   6.087   0.468  16.999 -0.6913 -0.6152  1.7980
 8380TIP3    H246556   6.185   0.502  17.109  1.1463 -0.5967  0.2101
 8381TIP3   OH246557   1.147   0.496   6.165  0.0836  0.7023  0.2168
 8381TIP3    H146558   1.158   0.568   6.104  2.5668  0.1427 -0.0633
 8381TIP3    H246559   1.094   0.432   6.118  0.0020  1.2630 -0.4649
 8382TIP3   OH246560   6.446   2.932   0.824  0.2152  0.9153  0.0199
 8382TIP3    H146561   6.362   2.939   0.868  0.7698 -0.9147  1.4670
 8382TIP3    H246562   6.495   2.867   0.874  1.4422 -0.2000 -2.4603
 8383TIP3   OH246563   0.947   4.659  17.074 -0.5630 -0.6326  0.0528
 8383TIP3    H146564   1.020   4.707  17.036 -1.1754  0.0203 -0.3348
 8383TIP3    H246565   0.982   4.573  17.095  0.3274 -0.3067 -0.0669
 8384TIP3   OH246566   1.901   5.228   5.806 -0.7205 -0.1012 -0.2360
 8384TIP3    H146567   1.950   5.290   5.860 -0.3972  0.2463 -0.9028
 8384TIP3    H246568   1.956   5.217   5.728 -0.4054 -1.8094  0.1791
 8385TIP3   OH246569   4.665   1.356   0.725 -0.1195 -0.4923 -0.5718
 8385TIP3    H146570   4.647   1.336   0.816  1.0695 -1.6831 -0.5748
 8385TIP3    H246571   4.653   1.451   0.719  0.2748 -0.3222  0.9381
 8386TIP3   OH246572   4.803   1.777  16.809 -0.0285  0.5922  0.1371
 8386TIP3    H146573   4.884   1.810  16.769  0.5797 -0.4696  0.4649
 8386TIP3    H246574   4.826   1.691  16.842 -1.2913  0.3018  0.2945
 8387TIP3   OH246575   5.736   6.694  15.664 -0.2161 -0.3573  0.4588
 8387TIP3    H146576   5.731   6.650  15.749 -0.8831 -3.5720 -1.0648
 8387TIP3    H246577   5.659   6.663  15.617  0.3142  1.0511 -1.4550
 8388TIP3   OH246578   2.230   2.316  15.931  0.1058  0.5171 -0.3476
 8388TIP3    H146579   2.291   2.304  16.004  0.4472  0.8926 -0.5655
 8388TIP3    H246580   2.144   2.299  15.969  0.4202 -1.1341 -0.2935
 8389TIP3   OH246581   4.554   1.849  12.889  0.0800 -0.1615 -0.4548
 8389TIP3    H146582   4.512   1.922  12.935 -2.0926 -1.4923 -0.2002
 8389TIP3    H246583   4.502   1.772  12.913  2.0756 -1.7583 -1.0044
 8390TIP3   OH246584   5.427   4.939   4.640  0.5001  0.0178  0.3792
 8390TIP3    H146585   5.422   4.881   4.715  1.0606  1.4597  1.5797
 8390TIP3    H246586   5.344   4.988   4.642  0.0042 -0.7477 -0.6545
 8391TIP3   OH246587   4.352   0.265  10.317 -0.4797  0.0791  0.4440
 8391TIP3    H146588   4.432   0.246  10.365  0.9718 -0.6881 -2.1344
 8391TIP3    H246589   4.362   0.356  10.289  0.6187 -0.6766 -1.7951
 8392TIP3   OH246590   4.339   1.906  10.826  0.2716 -0.1542  0.0175
 8392TIP3    H146591   4.338   1.977  10.761  1.2092 -1.0522 -1.0174
 8392TIP3    H246592   4.413   1.927  10.883 -1.2666  1.2908  1.6377
 8393TIP3   OH246593   6.591   3.357  16.157 -0.0274  0.0153  0.0760
 8393TIP3    H146594   6.556   3.433  16.203 -0.6113  0.4045 -0.9804
 8393TIP3    H246595   6.680   3.382  16.133  0.1557 -0.0556  0.6823
 8394TIP3   OH246596   4.998   6.473  14.663  0.4978 -0.0938 -0.7383
 8394TIP3    H146597   4.917   6.516  14.635 -1.0481 -1.9400  0.5674
 8394TIP3    H246598   4.976   6.380  14.662  2.9648 -0.7479 -1.2768
 8395TIP3   OH246599   2.188   0.497  17.049  0.7175 -0.5889  0.3593
 8395TIP3    H146600   2.205   0.591  17.044  1.0903 -0.5861  1.4729
 8395TIP3    H246601   2.269   0.457  17.021  0.5366 -0.5865 -0.1805
 8396TIP3   OH246602   6.748   4.591   4.185  0.1164  0.2954  0.1859
 8396TIP3    H146603   6.821   4.576   4.125  0.2019  1.1125  0.0735
 8396TIP3    H246604   6.729   4.684   4.176 -1.4842 -0.0536 -0.4288
 8397TIP3   OH246605   6.692   4.843   4.135  0.0127  0.5205 -0.2703
 8397TIP3    H146606   6.665   4.921   4.184 -0.7339  0.3911 -0.4773
 8397TIP3    H246607   6.746   4.878   4.064 -0.6940  0.8959 -0.6327
 8398TIP3   OH246608   6.187   4.563  15.959 -0.4973 -0.0012 -0.1028
 8398TIP3    H146609   6.197   4.513  15.878  0.2107 -0.1517  0.0662
 8398TIP3    H246610   6.224   4.506  16.027  2.0183  1.4442 -0.1563
 8399TIP3   OH246611   5.916   2.928  10.970  0.1277  0.0350 -0.0636
 8399TIP3    H146612   5.862   2.888  11.038  0.4080 -0.2184  0.0097
 8399TIP3    H246613   5.900   3.022  10.979 -0.1135 -0.0223  0.1171
 8400TIP3   OH246614   0.567   4.312   3.568 -0.2226  0.7081 -0.6965
 8400TIP3    H146615   0.513   4.244   3.609 -0.2672  0.1128 -1.7216
 8400TIP3    H246616   0.521   4.393   3.586  0.7181  0.7363  2.0694
 8401TIP3   OH246617   6.073   3.687   3.683  0.1264 -0.4382 -0.2935
 8401TIP3    H146618   6.066   3.604   3.729 -0.8905  0.5020  1.3422
 8401TIP3    H246619   6.155   3.725   3.715 -1.1293  0.7363  1.8015
 8402TIP3   OH246620   4.457   4.393  14.607 -0.3435 -0.3011  0.0322
 8402TIP3    H146621   4.365   4.419  14.611 -0.0724  0.6174  0.8918
 8402TIP3    H246622   4.503   4.473  14.582  0.3149 -0.4881  0.6186
 8403TIP3   OH246623   4.152   3.744   3.037 -0.3874 -0.4879 -0.3707
 8403TIP3    H146624   4.056   3.741   3.042 -0.5062  0.3731 -1.7343
 8403TIP3    H246625   4.177   3.655   3.011 -0.7017 -1.0447  1.1064
 8404TIP3   OH246626   2.720   1.654  13.266 -0.7734 -0.3203  0.3631
 8404TIP3    H146627   2.792   1.714  13.246 -0.4645 -0.9863 -0.6301
 8404TIP3    H246628   2.641   1.707  13.256 -0.4196  0.7269  2.6021
 8405TIP3   OH246629   5.447   0.683   1.276  0.6491 -0.0528  0.3334
 8405TIP3    H146630   5.488   0.633   1.346 -1.9508 -0.5971  1.5975
 8405TIP3    H246631   5.388   0.744   1.320  0.8275  1.4104 -1.3247
 8406TIP3   OH246632   5.716   3.809  13.643 -0.0502 -0.4066 -0.3066
 8406TIP3    H146633   5.626   3.779  13.653 -0.0109 -0.5319 -0.3202
 8406TIP3    H246634   5.748   3.761  13.566 -0.2641  0.3414 -0.8711
 8407TIP3   OH246635   5.446   1.741  13.746 -0.0454  0.5703 -0.2708
 8407TIP3    H146636   5.515   1.763  13.808  0.8454 -0.3037 -0.9146
 8407TIP3    H246637   5.406   1.661  13.782  1.8128 -1.1330 -1.7769
 8408TIP3   OH246638   0.006   6.232   1.722 -0.3101  0.4667  0.2116
 8408TIP3    H146639   0.007   6.137   1.712 -1.8973  0.3335  0.9643
 8408TIP3    H246640  -0.076   6.250   1.768 -0.5522  2.3022 -0.8411
 8409TIP3   OH246641   3.551   6.405  14.258  0.1536  0.2274  0.6516
 8409TIP3    H146642   3.619   6.458  14.300  1.0769 -0.4099  0.0289
 8409TIP3    H246643   3.562   6.317  14.296  0.1147 -0.0301  0.0817
 8410TIP3   OH246644   5.127   0.205  12.435 -0.0718 -0.0135 -0.1288
 8410TIP3    H146645   5.170   0.179  12.516  1.1077  2.8952  0.3332
 8410TIP3    H246646   5.197   0.246  12.384 -1.2186  0.0003 -1.7564
 8411TIP3   OH246647   2.284   2.034   4.588 -0.0251 -0.6280  0.0165
 8411TIP3    H146648   2.361   2.051   4.642 -1.5746 -0.1107  2.1809
 8411TIP3    H246649   2.313   2.053   4.498  1.8291  1.4179  0.9576
 8412TIP3   OH246650   1.431   1.920   1.217 -0.1857  0.4055 -0.3771
 8412TIP3    H146651   1.461   2.001   1.258 -2.1211  0.2053  1.5957
 8412TIP3    H246652   1.501   1.857   1.234  0.3315  1.0824  0.0532
 8413TIP3   OH246653   5.786   1.278   1.137 -0.2087 -0.0510  0.6400
 8413TIP3    H146654   5.805   1.196   1.183  0.9159  1.1071  2.3684
 8413TIP3    H246655   5.820   1.346   1.195  0.1878  1.5809 -1.3995
 8414TIP3   OH246656   4.743   5.628   0.917  0.5026 -0.4435 -0.1578
 8414TIP3    H146657   4.721   5.536   0.932 -0.4627 -0.1396  0.3818
 8414TIP3    H246658   4.809   5.626   0.847  0.0062 -1.5114 -0.6139
 8415TIP3   OH246659   4.195   2.392  14.907  0.1126  0.5385  0.4085
 8415TIP3    H146660   4.210   2.298  14.899 -2.5317 -0.3105  3.4192
 8415TIP3    H246661   4.257   2.421  14.974  0.2898  0.7529  0.1542
 8416TIP3   OH246662   4.217   3.025   5.469 -0.8465 -0.1066  0.3554
 8416TIP3    H146663   4.311   3.020   5.489 -0.1882  1.1871 -2.0195
 8416TIP3    H246664   4.191   3.112   5.498 -0.6195  0.5539 -1.2593
 8417TIP3   OH246665   6.065   3.673   1.709 -0.1579  0.1424 -0.2990
 8417TIP3    H146666   6.120   3.740   1.750 -0.7481  0.5758 -0.2107
 8417TIP3    H246667   6.066   3.695   1.616  1.0100 -0.7186 -0.5236
 8418TIP3   OH246668   2.883   3.334  12.972  0.4556 -0.0227 -0.5072
 8418TIP3    H146669   2.796   3.354  12.937  0.8709  1.9219 -0.5021
 8418TIP3    H246670   2.867   3.312  13.064  0.1098  2.0710 -0.0171
 8419TIP3   OH246671   2.902   4.213   3.688  0.5909 -0.0177  0.0177
 8419TIP3    H146672   2.809   4.229   3.672  0.9940 -0.1713 -2.8451
 8419TIP3    H246673   2.921   4.265   3.766 -1.8092  0.2465  0.5096
 8420TIP3   OH246674   5.672   3.004   4.633  0.4637 -0.1094 -0.2832
 8420TIP3    H146675   5.655   3.041   4.720  0.8005 -0.1323 -0.2049
 8420TIP3    H246676   5.759   3.038   4.610  0.6434 -0.6055 -0.3432
 8421TIP3   OH246677   6.620   0.900   1.939  0.0929  0.5256 -0.4547
 8421TIP3    H146678   6.707   0.887   1.977  0.5349 -0.2472 -1.6917
 8421TIP3    H246679   6.561   0.894   2.014  0.9502 -0.8855  0.1399
 8422TIP3   OH246680   4.354   4.874   0.948 -0.0590  0.6629  0.1435
 8422TIP3    H146681   4.265   4.880   0.983  0.0739  0.2451  0.5578
 8422TIP3    H246682   4.410   4.868   1.025  0.3179  0.7521 -0.1199
 8423TIP3   OH246683   6.047   2.825   2.476  0.0380  0.1600  0.2686
 8423TIP3    H146684   5.962   2.799   2.439 -0.2109 -0.1666  1.0566
 8423TIP3    H246685   6.110   2.764   2.436 -0.1352  0.2169 -0.0958
 8424TIP3   OH246686   1.420   0.155  12.768 -0.6913  0.1552 -0.1151
 8424TIP3    H146687   1.391   0.068  12.798 -0.3212 -0.5477 -1.6910
 8424TIP3    H246688   1.381   0.165  12.682  2.4806 -0.2370 -1.7295
 8425TIP3   OH246689   4.480   0.692   6.063  0.1193  0.1167 -0.0187
 8425TIP3    H146690   4.564   0.652   6.084 -0.0436 -0.2733 -0.0848
 8425TIP3    H246691   4.462   0.751   6.136 -0.1019 -0.6785  0.5894
 8426TIP3   OH246692   6.261   5.419  16.857 -0.4005  0.1015 -0.4364
 8426TIP3    H146693   6.305   5.389  16.937  0.3945  0.9462 -0.5347
 8426TIP3    H246694   6.258   5.341  16.801 -0.0219 -0.2412  0.0094
 8427TIP3   OH246695   0.173   2.094  17.166 -0.0408  0.1155 -0.1100
 8427TIP3    H146696   0.257   2.100  17.120  0.8450 -0.3242  1.3793
 8427TIP3    H246697   0.197   2.077  17.257 -1.7135  1.2141  0.5905
 8428TIP3   OH246698   3.111   6.103  10.960 -0.2035  0.2981  0.4675
 8428TIP3    H146699   3.184   6.105  11.022  0.3182 -0.8743 -0.0765
 8428TIP3    H246700   3.152   6.087  10.875 -1.0592 -0.0517  0.1053
 8429TIP3   OH246701   4.627   1.365  15.741 -0.6738  0.0179  0.7671
 8429TIP3    H146702   4.561   1.358  15.811 -1.2885 -0.1733  0.1834
 8429TIP3    H246703   4.582   1.332  15.663  0.0438  0.1154  0.3051
 8430TIP3   OH246704   1.721   5.261  14.908 -0.0552 -0.2167 -0.4547
 8430TIP3    H146705   1.702   5.190  14.847  0.9391  0.0319 -1.0620
 8430TIP3    H246706   1.743   5.217  14.990 -0.0867 -0.5854 -0.6411
 8431TIP3   OH246707   0.392   4.151   3.693 -0.0789 -0.0107  0.3257
 8431TIP3    H146708   0.370   4.060   3.711 -1.1138  0.1862  0.1056
 8431TIP3    H246709   0.308   4.197   3.693  0.4756  1.0503  0.9870
 8432TIP3   OH246710   0.806   6.320  12.936  0.2957 -0.3877  0.5192
 8432TIP3    H146711   0.871   6.390  12.930 -0.7088  0.6468  1.2005
 8432TIP3    H246712   0.737   6.345  12.874  0.5151 -1.4526 -0.1759
 8433TIP3   OH246713   4.071   3.879   5.176 -0.6650  0.1233  0.2543
 8433TIP3    H146714   4.150   3.834   5.149 -0.2517  0.1353  1.3898
 8433TIP3    H246715   4.005   3.852   5.112 -0.0491 -0.8463  0.0036
 8434TIP3   OH246716   4.199   5.732   3.443  0.6565 -0.1807 -0.5785
 8434TIP3    H146717   4.124   5.716   3.500  0.0322  0.7123 -1.1284
 8434TIP3    H246718   4.249   5.801   3.487 -0.8382  1.9235 -1.9350
 8435TIP3   OH246719   0.852   4.723  13.430 -0.6271 -0.2759 -0.6422
 8435TIP3    H146720   0.871   4.631  13.414  0.6987  0.2055 -2.0607
 8435TIP3    H246721   0.842   4.761  13.343  1.0645  1.3380 -0.2085
 8436TIP3   OH246722   5.703   3.343   5.255  0.6842 -0.4647 -0.1849
 8436TIP3    H146723   5.685   3.437   5.257 -0.1647 -0.6184 -0.1664
 8436TIP3    H246724   5.742   3.327   5.169 -0.7864 -0.3614 -0.9033
 8437TIP3   OH246725   3.636   4.494   3.610 -0.2177  0.0531 -0.7893
 8437TIP3    H146726   3.671   4.406   3.621 -0.0583  0.1839 -0.2464
 8437TIP3    H246727   3.700   4.539   3.555 -0.4073 -0.2316 -1.2496
 8438TIP3   OH246728   2.880   4.816   5.726 -0.5897  0.4611  0.2442
 8438TIP3    H146729   2.957   4.820   5.782 -1.1302  1.2617  0.9437
 8438TIP3    H246730   2.858   4.723   5.721 -0.4949  0.3749  1.3026
 8439TIP3   OH246731   6.310   5.208  16.696  0.7249  0.4716 -0.7202
 8439TIP3    H146732   6.398   5.187  16.729  0.4747 -0.7419 -0.8092
 8439TIP3    H246733   6.278   5.127  16.659 -1.4084  0.1878  1.4914
 8440TIP3   OH246734   4.803   6.308  12.985 -0.5387  0.0384  0.5121
 8440TIP3    H146735   4.881   6.362  13.001 -0.8165  0.7768 -0.5226
 8440TIP3    H246736   4.820   6.227  13.033 -0.0094  0.9465  1.9233
 8441TIP3   OH246737   1.617   2.311  14.263  0.1690 -0.4449 -0.1024
 8441TIP3    H146738   1.695   2.259  14.279 -0.4324 -1.3888 -0.1451
 8441TIP3    H246739   1.572   2.266  14.192 -1.9274 -1.6835  1.8812
 8442TIP3   OH246740   4.945   1.738  11.674  0.2032  0.0330 -0.0139
 8442TIP3    H146741   5.038   1.751  11.691  0.6714 -0.6055 -1.8185
 8442TIP3    H246742   4.918   1.818  11.627 -0.2007  0.2687  0.6043
 8443TIP3   OH246743   0.881   0.799  15.979  0.2109 -0.2086  0.4634
 8443TIP3    H146744   0.901   0.889  16.007 -1.8971  0.8787 -1.2862
 8443TIP3    H246745   0.790   0.786  16.004 -0.2879 -0.9079 -1.5585
 8444TIP3   OH246746   6.219   1.061   2.612  0.2579 -0.1459  0.2305
 8444TIP3    H146747   6.234   1.101   2.697  0.5938  0.1436  0.0407
 8444TIP3    H246748   6.253   0.972   2.620  2.0361  0.4475 -0.1449
 8445TIP3   OH246749   5.447   5.946   3.783 -0.1913  0.6705  0.0608
 8445TIP3    H146750   5.470   5.957   3.875 -1.9816  1.8995  0.4108
 8445TIP3    H246751   5.481   5.859   3.760 -0.1972  0.1046  2.0249
 8446TIP3   OH246752   1.923   2.054   5.783  0.0742  0.4665  0.2655
 8446TIP3    H146753   1.937   1.969   5.825 -0.1944  0.2295 -0.1251
 8446TIP3    H246754   1.845   2.089   5.825  0.6762  0.9038  1.0337
 8447TIP3   OH246755   3.721   1.479  12.500 -0.4982 -0.1316 -0.2882
 8447TIP3    H146756   3.643   1.522  12.463 -1.6449 -0.4123  1.6367
 8447TIP3    H246757   3.779   1.552  12.522 -1.9755  0.4876  1.9513
 8448TIP3   OH246758   2.154   2.747  11.548 -0.7639  0.0469  0.2987
 8448TIP3    H146759   2.160   2.738  11.453 -3.0014 -0.3239  0.1412
 8448TIP3    H246760   2.135   2.840  11.562 -0.0201  0.1856  0.4302
 8449TIP3   OH246761   0.546   4.280   6.560  0.1413 -0.0654 -0.9503
 8449TIP3    H146762   0.634   4.303   6.529  0.3354 -0.8225 -0.9752
 8449TIP3    H246763   0.551   4.291   6.655  0.2561 -0.0877 -0.9534
 8450TIP3   OH246764   3.160   3.739  10.708 -0.3693 -0.4568 -0.0998
 8450TIP3    H146765   3.076   3.775  10.678  0.7542  1.6241 -0.8877
 8450TIP3    H246766   3.172   3.661  10.654 -0.0105  1.3562 -2.8588
 8451TIP3   OH246767   5.420   6.161  15.817  0.3078  0.2391 -0.9240
 8451TIP3    H146768   5.512   6.134  15.814  0.6815  1.0127  1.5143
 8451TIP3    H246769   5.385   6.116  15.894 -1.3659 -0.0360 -1.8203
 8452TIP3   OH246770   6.467   0.092  16.960 -0.0248  0.2214  0.1929
 8452TIP3    H146771   6.512   0.059  16.882 -1.4855  0.0184 -0.5953
 8452TIP3    H246772   6.476   0.021  17.024  0.0143 -0.1794 -0.2492
 8453TIP3   OH246773   5.802   6.439   1.168 -0.1735 -0.2296 -0.4471
 8453TIP3    H146774   5.743   6.502   1.210  0.1468 -0.2678  0.0613
 8453TIP3    H246775   5.871   6.424   1.232 -0.2853 -1.1619 -0.5317
 8454TIP3   OH246776   0.827   6.291  12.429  0.2703 -0.6098  0.3570
 8454TIP3    H146777   0.773   6.287  12.350  0.0026  0.1782  0.4910
 8454TIP3    H246778   0.875   6.208  12.430 -0.0559 -0.8127 -0.3941
 8455TIP3   OH246779   6.119   4.329  14.066 -0.4767 -0.1013 -0.2215
 8455TIP3    H146780   6.118   4.413  14.020 -0.1231 -0.6405 -1.2405
 8455TIP3    H246781   6.210   4.319  14.094 -0.1600 -0.8193 -1.4180
 8456TIP3   OH246782   1.083   4.716  12.315 -0.7025  0.0915  0.5769
 8456TIP3    H146783   1.097   4.625  12.290 -0.7196  0.2681 -0.0808
 8456TIP3    H246784   1.107   4.767  12.238 -0.0771  0.6868  1.1526
 8457TIP3   OH246785   2.099   6.271  16.817 -0.5100 -0.6281 -0.4097
 8457TIP3    H146786   2.152   6.307  16.746  0.1584 -1.6924 -0.4892
 8457TIP3    H246787   2.027   6.226  16.773 -0.8116 -0.1910 -0.3585
 8458TIP3   OH246788   0.477   2.825  11.117 -0.1826  0.0612 -0.8995
 8458TIP3    H146789   0.491   2.795  11.027  0.8152  0.0722 -0.7545
 8458TIP3    H246790   0.543   2.893  11.131 -0.5920  0.3487 -0.2873
 8459TIP3   OH246791   1.378   0.047  11.255  0.3584  0.3920  0.1583
 8459TIP3    H146792   1.328   0.059  11.336 -0.2218  1.6127 -0.3574
 8459TIP3    H246793   1.401   0.135  11.228 -0.9084  0.1636 -1.8994
 8460TIP3   OH246794   6.532   5.199  11.710  0.1725  0.5118 -0.4487
 8460TIP3    H146795   6.523   5.138  11.783  1.6559 -1.9219 -2.1520
 8460TIP3    H246796   6.442   5.218  11.683 -0.3778 -2.2825 -0.8541
 8461TIP3   OH246797   3.788   0.866  14.503 -0.7445 -0.5576  0.4425
 8461TIP3    H146798   3.705   0.821  14.486 -0.7345 -1.0560  1.6126
 8461TIP3    H246799   3.855   0.808  14.467 -0.8803 -0.3288 -0.1806
 8462TIP3   OH246800   6.386   1.847   1.080 -0.2030 -0.0964 -0.4567
 8462TIP3    H146801   6.378   1.808   0.993 -0.0781 -0.6391 -0.2272
 8462TIP3    H246802   6.350   1.935   1.070 -0.8482 -0.4026 -0.8898
 8463TIP3   OH246803   1.273   5.581   4.453  0.0660 -0.0169 -0.1655
 8463TIP3    H146804   1.195   5.573   4.398  0.2680  1.5197 -0.7332
 8463TIP3    H246805   1.346   5.584   4.391  0.2927  1.8386  0.1271
 8464TIP3   OH246806   6.022   2.482   2.257 -1.0964  0.6412 -0.5883
 8464TIP3    H146807   5.938   2.528   2.265 -0.8592  0.8091  1.6627
 8464TIP3    H246808   6.087   2.545   2.287 -0.4392 -0.2211 -0.1503
 8465TIP3   OH246809   6.417   2.143  15.590  0.8424 -0.2104  0.2022
 8465TIP3    H146810   6.420   2.054  15.625 -0.2397 -0.4776 -0.3417
 8465TIP3    H246811   6.394   2.132  15.498 -2.1682  0.7119  0.7255
 8466TIP3   OH246812   2.526   1.913  15.295 -0.3869  0.2599 -0.3049
 8466TIP3    H146813   2.461   1.874  15.235 -1.4986  0.3700  0.7791
 8466TIP3    H246814   2.545   1.843  15.357  1.5045 -0.1763 -1.3103
 8467TIP3   OH246815   6.149   4.452  14.629  0.3820  0.0994  0.2433
 8467TIP3    H146816   6.096   4.521  14.670  0.2821  1.1782 -1.5869
 8467TIP3    H246817   6.160   4.481  14.539  1.2415 -1.7976 -0.3080
 8468TIP3   OH246818   3.130   0.536  14.696 -0.2918 -0.2277 -0.4029
 8468TIP3    H146819   3.067   0.590  14.744  0.4004  0.0922  0.1629
 8468TIP3    H246820   3.140   0.580  14.612 -0.6353 -0.1397 -0.3996
 8469TIP3   OH246821   1.272   5.180  14.005 -0.5125  0.0614  0.5550
 8469TIP3    H146822   1.350   5.212  14.050 -1.2968  1.8197  0.7638
 8469TIP3    H246823   1.228   5.260  13.975 -0.3075 -0.9475 -2.8891
 8470TIP3   OH246824   0.967   2.827   3.448 -0.0894 -0.6613 -0.3145
 8470TIP3    H146825   0.925   2.835   3.534  2.3966 -0.2720  0.9677
 8470TIP3    H246826   1.019   2.747   3.454  3.1020  1.2213  0.1071
 8471TIP3   OH246827   5.888   4.411   1.054  0.2038  0.8292  0.0794
 8471TIP3    H146828   5.955   4.466   1.013 -1.0721  1.5400 -1.1559
 8471TIP3    H246829   5.847   4.467   1.119 -0.5822  1.1207 -0.6454
 8472TIP3   OH246830   5.108   5.248  16.006 -1.0180 -0.6402  0.0906
 8472TIP3    H146831   5.113   5.260  16.101  3.2947  2.1243 -0.2014
 8472TIP3    H246832   5.164   5.172  15.988 -0.2036  0.0309 -0.2941
 8473TIP3   OH246833   5.294   5.588   3.780  0.0035  0.7791 -0.0409
 8473TIP3    H146834   5.281   5.499   3.747  1.1320  0.4950  0.2441
 8473TIP3    H246835   5.298   5.578   3.875  0.4428  1.0970 -0.0254
 8474TIP3   OH246836   5.431   3.016   1.521 -0.0097  0.7823  0.5388
 8474TIP3    H146837   5.441   2.951   1.590 -0.6883 -1.2197 -1.1464
 8474TIP3    H246838   5.337   3.015   1.500  0.2135  1.1349 -0.5598
 8475TIP3   OH246839   3.567   6.616   5.040  0.2607  0.0841  0.3258
 8475TIP3    H146840   3.610   6.609   5.125  1.5426  2.1617 -0.0721
 8475TIP3    H246841   3.599   6.699   5.004 -2.4511  0.6868 -0.9523
 8476TIP3   OH246842   3.516   4.545   5.499  0.0254  0.4954  0.6752
 8476TIP3    H146843   3.523   4.622   5.555 -1.3067  0.6444  0.6840
 8476TIP3    H246844   3.567   4.478   5.544  2.4479  1.7302 -0.0806
 8477TIP3   OH246845   2.179   0.692   1.392 -0.3659 -0.4330  0.0500
 8477TIP3    H146846   2.115   0.733   1.334 -0.5276 -0.2660  0.3448
 8477TIP3    H246847   2.178   0.599   1.368  0.7541 -0.1124 -1.3330
 8478TIP3   OH246848   2.146   6.754  14.750 -0.6787  0.1891 -0.1850
 8478TIP3    H146849   2.051   6.743  14.741 -0.5478 -0.3804 -1.0266
 8478TIP3    H246850   2.183   6.690  14.689  0.2444  0.5518 -0.0198
 8479TIP3   OH246851   1.461   0.291   0.485 -0.5774 -0.5015  0.4598
 8479TIP3    H146852   1.452   0.356   0.415 -2.1328 -1.1263  0.0389
 8479TIP3    H246853   1.417   0.331   0.560 -2.0912 -1.2905  0.0205
 8480TIP3   OH246854   4.089   2.230  12.896 -0.2198  0.0806  0.4504
 8480TIP3    H146855   4.045   2.261  12.975  0.2625 -0.4640  0.9355
 8480TIP3    H246856   4.064   2.294  12.829 -1.1746  0.1782  0.8761
 8481TIP3   OH246857   3.101   0.365   5.210  0.0437  0.0787  0.3009
 8481TIP3    H146858   3.038   0.311   5.257 -0.8777  1.7810  1.0974
 8481TIP3    H246859   3.173   0.377   5.273  0.6353 -0.8677 -0.1744
 8482TIP3   OH246860   6.428   2.814  11.153 -0.3423 -0.5168 -0.1027
 8482TIP3    H146861   6.345   2.859  11.145  0.2738  0.5954 -0.4102
 8482TIP3    H246862   6.491   2.882  11.178  0.6209 -1.1825 -0.6274
 8483TIP3   OH246863   5.070   3.124   2.798  0.6920  0.1061  0.1852
 8483TIP3    H146864   5.102   3.210   2.772 -0.1279  0.4825  0.4008
 8483TIP3    H246865   4.996   3.142   2.856  0.0407 -0.7325 -0.3511
 8484TIP3   OH246866   6.125   5.667  13.884  0.2227 -0.0665  0.4482
 8484TIP3    H146867   6.060   5.730  13.916  0.0355 -1.7099  3.6998
 8484TIP3    H246868   6.195   5.668  13.949  1.3293 -1.5759 -0.6177
 8485TIP3   OH246869   2.651   2.759   6.437 -0.5552 -0.0415  0.3573
 8485TIP3    H146870   2.702   2.692   6.483  0.3333 -0.0022 -0.5254
 8485TIP3    H246871   2.630   2.824   6.503 -0.6748 -0.7628  1.0424
 8486TIP3   OH246872   3.367   2.410  12.029  0.2092 -0.4226 -0.2554
 8486TIP3    H146873   3.279   2.372  12.039  0.0006 -0.3950 -1.6570
 8486TIP3    H246874   3.371   2.433  11.936  0.9573  1.4527  0.2139
 8487TIP3   OH246875   1.042   4.867   0.236 -0.1601  0.1231  0.2230
 8487TIP3    H146876   1.102   4.910   0.297 -0.4161  1.2471 -0.3128
 8487TIP3    H246877   1.071   4.895   0.150  0.2530 -1.5335 -0.2169
 8488TIP3   OH246878   1.126   1.493  12.714 -0.5786 -0.1228  0.0349
 8488TIP3    H146879   1.166   1.477  12.800  2.6141  0.8397 -1.1166
 8488TIP3    H246880   1.135   1.409  12.668 -1.0352 -0.2567  0.1902
 8489TIP3   OH246881   0.736   6.176   1.683 -0.0481  0.3809  0.7585
 8489TIP3    H146882   0.663   6.153   1.741 -0.1216 -2.4382 -0.3056
 8489TIP3    H246883   0.790   6.097   1.680  0.4774  0.7457 -2.2289
 8490TIP3   OH246884   3.000   3.479   4.248 -0.0540 -0.2115  0.2044
 8490TIP3    H146885   2.939   3.441   4.185 -1.1780 -1.2246  1.7966
 8490TIP3    H246886   3.062   3.528   4.196 -1.4884 -0.2149 -1.6038
 8491TIP3   OH246887   0.242   3.734  13.819  0.2499  0.0971  0.5426
 8491TIP3    H146888   0.197   3.659  13.858  0.1570  0.3820  0.9973
 8491TIP3    H246889   0.177   3.805  13.823  0.2881  0.1720 -0.0085
 8492TIP3   OH246890   5.121   0.423  11.390  0.2663  0.5452 -0.2836
 8492TIP3    H146891   5.034   0.383  11.398  0.3951  0.6190  2.5836
 8492TIP3    H246892   5.108   0.496  11.329 -1.5086  0.1047 -0.4952
 8493TIP3   OH246893   6.011   4.312  16.541  0.1595 -0.2671  0.4415
 8493TIP3    H146894   5.940   4.252  16.520 -0.1556  0.9427 -2.5116
 8493TIP3    H246895   6.090   4.258  16.535 -0.3453 -1.2265  1.9407
 8494TIP3   OH246896   2.869   4.263   3.314 -0.0559 -0.2835  0.1140
 8494TIP3    H146897   2.825   4.248   3.230 -0.0301 -3.5946  0.5771
 8494TIP3    H246898   2.815   4.217   3.378  0.0391  2.0069  1.9580
 8495TIP3   OH246899   6.049   0.151   2.376  0.0947 -0.6112  0.0436
 8495TIP3    H146900   6.054   0.160   2.472  1.3465 -0.4559 -0.0203
 8495TIP3    H246901   6.087   0.232   2.342 -0.9781 -0.3591 -0.6061
 8496TIP3   OH246902   2.485   6.237   3.228 -0.3023  0.1151  0.6531
 8496TIP3    H146903   2.453   6.311   3.175  0.4493  1.3572  1.8496
 8496TIP3    H246904   2.571   6.217   3.191  0.0092  0.6527  1.0714
 8497TIP3   OH246905   2.452   4.576   4.183  0.3884 -0.4452  0.2305
 8497TIP3    H146906   2.435   4.588   4.276  0.4466 -0.0427  0.1887
 8497TIP3    H246907   2.547   4.576   4.175  0.4037  1.8197 -0.1157
 8498TIP3   OH246908   6.080   4.337   6.644 -0.1742 -0.0628  0.6303
 8498TIP3    H146909   6.078   4.431   6.662 -1.1261  0.0607 -0.0301
 8498TIP3    H246910   5.992   4.317   6.611  0.8014 -0.6281 -1.8884
 8499TIP3   OH246911   1.812   1.412   6.150  0.0616 -0.1712  0.0533
 8499TIP3    H146912   1.867   1.340   6.180 -0.0076  0.0805  0.7908
 8499TIP3    H246913   1.757   1.434   6.225  0.3127  0.8682 -0.0499
 8500TIP3   OH246914   5.972   3.731  17.080 -0.0084  0.5028 -0.3089
 8500TIP3    H146915   6.002   3.644  17.056  1.5490  0.7414  0.6540
 8500TIP3    H246916   5.877   3.726  17.073  0.1154 -0.9027 -1.4430
 8501TIP3   OH246917   3.748   1.887   5.661 -0.0555 -0.5418 -0.1195
 8501TIP3    H146918   3.705   1.884   5.747 -0.0190  2.8328  0.1480
 8501TIP3    H246919   3.838   1.915   5.681  0.5273 -1.5576 -1.1780
 8502TIP3   OH246920   1.660   1.461  14.087  0.1718 -0.3888 -0.4579
 8502TIP3    H146921   1.590   1.404  14.057  0.4479 -0.5698 -0.7636
 8502TIP3    H246922   1.714   1.476  14.010  0.0140  0.4233 -0.4296
 8503TIP3   OH246923   2.608   3.100   5.690  0.5661  0.3565 -0.7649
 8503TIP3    H146924   2.680   3.039   5.673  0.6689 -0.3465  1.7710
 8503TIP3    H246925   2.649   3.186   5.694  1.2702 -0.0150  0.4290
 8504TIP3   OH246926   4.680   1.755   4.366 -0.8062  0.0243 -0.0168
 8504TIP3    H146927   4.712   1.671   4.332  1.1188  0.9438 -0.5898
 8504TIP3    H246928   4.599   1.732   4.411 -0.3207 -2.1596 -0.1152
 8505TIP3   OH246929   4.166   5.569   4.537 -0.2875  0.0102 -0.4435
 8505TIP3    H146930   4.233   5.504   4.558 -0.8169 -0.4763 -0.2489
 8505TIP3    H246931   4.215   5.641   4.496  0.4671  0.0503  0.4922
 8506TIP3   OH246932   2.255   3.557  12.471 -0.4385 -0.0158 -0.2988
 8506TIP3    H146933   2.285   3.645  12.497 -0.0148 -0.6803  1.6503
 8506TIP3    H246934   2.160   3.563  12.474 -0.4267 -0.0605  1.6595
 8507TIP3   OH246935   5.377   4.560   0.781  0.3977 -0.3929  0.0228
 8507TIP3    H146936   5.408   4.578   0.869 -0.5648  0.7308  0.1537
 8507TIP3    H246937   5.449   4.587   0.724 -0.1511  1.9159  0.3379
 8508TIP3   OH246938   4.995   4.293  15.919 -0.1659  0.5622  0.1776
 8508TIP3    H146939   4.987   4.302  15.824 -2.1749  0.6886  0.3167
 8508TIP3    H246940   4.959   4.207  15.938 -1.0573  1.0883  0.9458
 8509TIP3   OH246941   1.998   0.260  13.076  0.4749 -0.2771  0.3650
 8509TIP3    H146942   2.025   0.188  13.134  1.5430  1.8778  2.7039
 8509TIP3    H246943   2.080   0.296  13.043  0.0217  0.6699  0.2514
 8510TIP3   OH246944   2.454   4.470  11.328 -0.6647  1.2120  0.0709
 8510TIP3    H146945   2.469   4.486  11.235 -3.0630 -1.6326 -0.9799
 8510TIP3    H246946   2.493   4.384  11.343  2.0771  2.7305  2.4970
 8511TIP3   OH246947   4.970   4.481  13.770  0.0895  0.4846  0.3429
 8511TIP3    H146948   5.025   4.475  13.849 -2.4138  2.1614  2.3639
 8511TIP3    H246949   5.030   4.509  13.701  2.2961 -0.5838  1.7074
 8512TIP3   OH246950   0.951   5.655   5.357  0.1280  0.5001  0.5857
 8512TIP3    H146951   1.039   5.684   5.378  0.2148 -0.5719  1.7720
 8512TIP3    H246952   0.960   5.604   5.276  0.5260  0.6885  0.5106
 8513TIP3   OH246953   3.590   2.501   4.395 -0.2281  0.6180 -0.5031
 8513TIP3    H146954   3.622   2.584   4.359 -0.1925  0.0923 -1.7466
 8513TIP3    H246955   3.511   2.524   4.443  1.7100  1.9048  2.3368
 8514TIP3   OH246956   5.394   2.976  11.563 -0.0504 -0.1257  0.2224
 8514TIP3    H146957   5.439   2.893  11.581  0.1669  0.1270  0.8683
 8514TIP3    H246958   5.447   3.042  11.607 -0.2321  0.3588 -0.2802
 8515TIP3   OH246959   5.934   5.917  13.633  0.1652 -0.4757  0.3373
 8515TIP3    H146960   6.008   5.941  13.577  1.2928 -1.8386  1.1609
 8515TIP3    H246961   5.929   5.822  13.626 -2.1295 -0.3569 -0.3984
 8516TIP3   OH246962   2.134   0.288  11.001 -0.3680 -0.4840 -0.1925
 8516TIP3    H146963   2.185   0.337  10.936 -0.3119 -1.3542 -0.8184
 8516TIP3    H246964   2.043   0.298  10.972 -0.4781  0.2444  0.3675
 8517TIP3   OH246965   4.581   5.154   3.510  0.5965 -0.1920 -0.7998
 8517TIP3    H146966   4.622   5.197   3.585 -0.4843  0.0645 -0.3428
 8517TIP3    H246967   4.558   5.067   3.541 -0.9108  0.3006 -0.4306
 8518TIP3   OH246968   4.623   6.322   1.826  0.0292  0.7529  0.3324
 8518TIP3    H146969   4.714   6.297   1.812 -0.1247 -0.1724  0.9224
 8518TIP3    H246970   4.604   6.384   1.755  1.5364  2.0853  1.0092
 8519TIP3   OH246971   0.774   4.959   5.721 -0.0399  0.2152 -0.1988
 8519TIP3    H146972   0.772   4.948   5.816  2.1629  1.0347 -0.0015
 8519TIP3    H246973   0.763   5.053   5.707  1.9262  0.4352 -0.5635
 8520TIP3   OH246974   3.148   2.824   5.801  0.1379  0.8462 -0.1462
 8520TIP3    H146975   3.232   2.861   5.828 -0.2057  1.3467  0.2719
 8520TIP3    H246976   3.095   2.825   5.881 -0.4884  1.1715 -0.5590
 8521TIP3   OH246977   0.262   6.435  13.795  0.2384 -0.8298 -0.7980
 8521TIP3    H146978   0.326   6.478  13.852 -0.0788 -1.2371 -0.1221
 8521TIP3    H246979   0.282   6.341  13.804  0.0441 -0.9096 -1.1899
 8522TIP3   OH246980   1.268   5.458  12.856 -0.2062 -0.0562 -0.2110
 8522TIP3    H146981   1.191   5.482  12.906  1.1447  5.0076  0.0189
 8522TIP3    H246982   1.291   5.370  12.887 -4.3177 -0.7500  1.4999
 8523TIP3   OH246983   0.042   0.393  10.539  0.0671  0.2163  0.2077
 8523TIP3    H146984   0.012   0.391  10.629 -0.1100 -0.2589  0.1445
 8523TIP3    H246985  -0.009   0.463  10.497 -1.0336 -0.6305  0.0818
 8524TIP3   OH246986   3.923   0.500   3.061  0.3207  0.1733  0.1301
 8524TIP3    H146987   3.847   0.499   3.002  0.8444 -1.6927 -0.6027
 8524TIP3    H246988   3.959   0.411   3.054  0.9625  0.1854  2.5801
 8525TIP3   OH246989   3.033   1.469  13.061 -0.2071 -0.5356  0.2918
 8525TIP3    H146990   3.111   1.415  13.070 -1.2885 -2.2380 -0.1754
 8525TIP3    H246991   2.993   1.440  12.979 -0.4901  1.4604 -0.3301
 8526TIP3   OH246992   2.672   3.668  13.981 -0.0389 -0.3838  0.0788
 8526TIP3    H146993   2.600   3.625  14.028  0.6158 -1.2918  0.2740
 8526TIP3    H246994   2.736   3.690  14.049  0.1762 -0.1907 -0.1816
 8527TIP3   OH246995   3.174   4.797  13.239 -0.3244 -0.8507 -0.0366
 8527TIP3    H146996   3.164   4.884  13.277 -0.3580  0.1251 -2.1622
 8527TIP3    H246997   3.090   4.754  13.254 -0.1276 -0.7538  1.4965
 8528TIP3   OH246998   5.128   6.170  11.462 -0.0635  0.0804  0.3572
 8528TIP3    H146999   5.137   6.084  11.422 -0.0333 -1.0464  2.5943
 8528TIP3    H247000   5.212   6.213  11.448 -0.6071  0.4330 -2.1600
 8529TIP3   OH247001   0.419   4.898  15.430 -0.2645  0.2066 -0.1822
 8529TIP3    H147002   0.450   4.981  15.394 -2.4958  0.9806 -0.4771
 8529TIP3    H247003   0.326   4.912  15.447  0.1956 -0.6780  4.2855
 8530TIP3   OH247004   0.155   3.338  13.903  0.3184  0.4385  0.5771
 8530TIP3    H147005   0.201   3.261  13.869  2.1265  1.5179  0.4844
 8530TIP3    H247006   0.119   3.380  13.826 -1.5531 -0.7906  0.7095
 8531TIP3   OH247007   4.421   5.470   5.271  0.0434  0.5455  0.0386
 8531TIP3    H147008   4.346   5.502   5.221 -0.3857 -0.3620  0.0734
 8531TIP3    H247009   4.498   5.502   5.223 -0.3589 -0.5562 -1.3865
 8532TIP3   OH247010   4.356   6.360  16.896  0.1366  0.6940  0.1318
 8532TIP3    H147011   4.275   6.410  16.908 -1.0217 -1.0237 -0.2047
 8532TIP3    H247012   4.390   6.348  16.985 -1.1621 -0.3795  0.5277
 8533TIP3   OH247013   0.128   1.388  16.727 -0.5083 -0.3208 -0.0902
 8533TIP3    H147014   0.079   1.428  16.799 -1.5872 -1.2530 -0.2880
 8533TIP3    H247015   0.157   1.303  16.760 -1.3555 -0.9288 -0.8751
 8534TIP3   OH247016   1.124   1.785  13.061  0.2105  0.8067 -0.3267
 8534TIP3    H147017   1.155   1.860  13.112  0.8348 -0.1566  0.7686
 8534TIP3    H247018   1.047   1.755  13.108  0.2121  0.5034 -0.5192
 8535TIP3   OH247019   3.197   4.773   2.689  0.2337  0.3059 -0.2896
 8535TIP3    H147020   3.116   4.721   2.686  0.9696 -0.9944  1.2212
 8535TIP3    H247021   3.171   4.859   2.654 -2.2504  0.5194  1.7777
 8536TIP3   OH247022   4.316   4.386   5.239 -0.2665  0.1561  0.3478
 8536TIP3    H147023   4.389   4.436   5.203 -1.2416  2.3498  1.2133
 8536TIP3    H247024   4.345   4.295   5.237  1.8298  0.7922 -0.7923
 8537TIP3   OH247025   4.348   6.590   4.534 -0.2962  0.4257  0.4931
 8537TIP3    H147026   4.364   6.674   4.490  0.0689  0.1317  0.0532
 8537TIP3    H247027   4.321   6.614   4.622  2.1591  0.9677  1.1550
 8538TIP3   OH247028   3.338   2.899   5.539  0.4680 -0.6587 -0.0626
 8538TIP3    H147029   3.378   2.920   5.454  0.0948 -0.1770 -0.1237
 8538TIP3    H247030   3.306   2.983   5.572 -1.1770 -1.1240 -0.3702
 8539TIP3   OH247031   2.125   5.802  14.473 -0.0088 -0.4121 -0.7691
 8539TIP3    H147032   2.074   5.841  14.543 -0.9658 -0.3198 -1.5027
 8539TIP3    H247033   2.084   5.717  14.457  0.1504 -0.4003 -1.2718
 8540TIP3   OH247034   1.186   1.880  16.647  0.3310  0.3168  0.2121
 8540TIP3    H147035   1.171   1.787  16.636  0.1189  0.4382 -0.5216
 8540TIP3    H247036   1.281   1.888  16.657  0.3057 -0.0231  0.8258
 8541TIP3   OH247037   1.181   6.246  10.891 -0.6019 -0.6508 -0.0900
 8541TIP3    H147038   1.154   6.168  10.941 -0.2874 -2.1291 -2.0708
 8541TIP3    H247039   1.122   6.315  10.921  0.0927 -1.2065  2.8373
 8542TIP3   OH247040   5.554   5.463  16.569 -0.5061 -0.1304 -0.2538
 8542TIP3    H147041   5.623   5.499  16.624 -0.4569  1.1644 -1.1252
 8542TIP3    H247042   5.474   5.503  16.602 -0.5727  0.0522 -0.6342
 8543TIP3   OH247043   1.439   6.134  10.742  0.3217 -0.9331 -0.3252
 8543TIP3    H147044   1.401   6.068  10.800 -0.4827 -0.5696 -0.4222
 8543TIP3    H247045   1.376   6.143  10.671 -0.0380  0.5853  0.1506
 8544TIP3   OH247046   2.742   2.673   0.641  0.3741  0.1395  0.3603
 8544TIP3    H147047   2.710   2.605   0.701  1.3735 -0.1463  0.5899
 8544TIP3    H247048   2.678   2.744   0.649 -1.0542 -0.9963 -0.3519
 8545TIP3   OH247049   1.446   5.371  16.279  0.0831 -0.3303 -0.4191
 8545TIP3    H147050   1.438   5.306  16.210 -0.9824  0.4509 -1.0509
 8545TIP3    H247051   1.540   5.384  16.289  0.2516  0.5218 -2.6643
 8546TIP3   OH247052   4.603   1.852   5.726 -0.3775  0.0587 -0.1438
 8546TIP3    H147053   4.616   1.933   5.677 -0.0800  0.7348  0.9992
 8546TIP3    H247054   4.603   1.880   5.818  0.0650 -1.2829  0.2866
 8547TIP3   OH247055   2.562   6.498  12.241  0.0596 -0.7190 -0.2349
 8547TIP3    H147056   2.637   6.541  12.203 -0.9138 -1.3080 -3.0576
 8547TIP3    H247057   2.493   6.565  12.242  0.0040 -0.7818  0.2557
 8548TIP3   OH247058   2.440   2.636   5.666  0.2211  0.6356 -0.0504
 8548TIP3    H147059   2.355   2.662   5.630 -0.8294 -1.6369  0.6165
 8548TIP3    H247060   2.485   2.593   5.593 -0.8591 -1.6604  0.5570
 8549TIP3   OH247061   5.239   1.080   4.997  0.1009 -0.3520 -0.3951
 8549TIP3    H147062   5.239   1.135   5.076 -0.0698 -1.5121  0.4539
 8549TIP3    H247063   5.254   1.141   4.925  2.6835  0.4827  0.7207
 8550TIP3   OH247064   4.981   6.010   1.689  0.3420 -0.3665 -0.7682
 8550TIP3    H147065   4.924   6.010   1.613 -1.3090  2.3285  0.3298
 8550TIP3    H247066   4.964   5.927   1.732 -1.7518 -0.2143 -1.2114
 8551TIP3   OH247067   0.656   6.245   3.564  0.3655  0.1422  0.4405
 8551TIP3    H147068   0.745   6.279   3.575  0.8424 -0.8120 -0.3820
 8551TIP3    H247069   0.609   6.314   3.517  0.6083  0.7207  1.0306
 8552TIP3   OH247070   6.085   2.428   1.399  0.0886  0.5007 -0.9951
 8552TIP3    H147071   6.158   2.409   1.459 -0.3923  2.1283  0.1891
 8552TIP3    H247072   6.112   2.389   1.316  3.2987  2.6354 -1.1778
 8553TIP3   OH247073   0.328   4.119   1.794  0.0659 -0.8256  0.0437
 8553TIP3    H147074   0.343   4.062   1.869 -0.0065 -1.0446 -0.1087
 8553TIP3    H247075   0.379   4.198   1.813 -0.1011 -0.8068  0.4072
 8554TIP3   OH247076   6.011   3.573  15.544  0.0604 -0.0567  0.0539
 8554TIP3    H147077   5.921   3.594  15.518  0.5475 -0.2384 -1.9323
 8554TIP3    H247078   6.044   3.516  15.474  1.5594 -0.4158  1.0022
 8555TIP3   OH247079   5.140   0.892  11.145  0.1267  0.0713 -0.2579
 8555TIP3    H147080   5.131   0.850  11.059  1.7431 -0.1041 -0.3718
 8555TIP3    H247081   5.139   0.986  11.126 -0.4771  0.0435 -0.3599
 8556TIP3   OH247082   4.518   5.721   1.199  0.2998  0.3409  0.0944
 8556TIP3    H147083   4.471   5.675   1.129  1.4151  1.1043 -1.2106
 8556TIP3    H247084   4.528   5.810   1.166  0.1230  0.9489  1.6207
 8557TIP3   OH247085   2.138   0.133   4.308 -0.4893 -0.2657  0.2362
 8557TIP3    H147086   2.111   0.221   4.282 -1.1115 -0.2001  1.0842
 8557TIP3    H247087   2.064   0.078   4.287 -0.3032 -0.5036  0.1980
 8558TIP3   OH247088   2.823   5.027  10.851  0.1979  0.5122  0.3431
 8558TIP3    H147089   2.887   5.009  10.919 -0.7316 -0.6481  0.9447
 8558TIP3    H247090   2.834   4.955  10.789 -1.8418 -0.8750  1.4777
 8559TIP3   OH247091   6.640   6.300   3.112 -0.7964  0.2565  0.0101
 8559TIP3    H147092   6.705   6.366   3.088  1.3332 -1.5317  0.5240
 8559TIP3    H247093   6.565   6.350   3.142  1.0845  2.4770  1.3354
 8560TIP3   OH247094   1.811   3.287   5.085 -0.3978 -0.1883 -0.2567
 8560TIP3    H147095   1.776   3.333   5.008 -0.6987 -1.8296 -1.1368
 8560TIP3    H247096   1.733   3.269   5.138 -0.2604  0.4355  0.1647
 8561TIP3   OH247097   2.804   6.327  16.034 -0.2102  0.3084  0.2654
 8561TIP3    H147098   2.783   6.397  16.096  1.1038 -0.3520  1.4998
 8561TIP3    H247099   2.770   6.247  16.074  2.4565 -0.4420  1.2198
 8562TIP3   OH247100   1.093   2.786  14.751 -0.7247  0.0167  0.5763
 8562TIP3    H147101   1.151   2.711  14.738 -0.8328 -0.2113  1.3463
 8562TIP3    H247102   1.137   2.839  14.818 -1.9197 -0.7283  2.0114
 8563TIP3   OH247103   3.821   5.452   3.673 -0.3132  0.2694  0.4843
 8563TIP3    H147104   3.761   5.527   3.669 -1.0874 -0.3101  1.0073
 8563TIP3    H247105   3.825   5.430   3.766  0.1043 -0.1910  0.3585
 8564TIP3   OH247106   2.833   0.569  17.025  0.6947  0.6411  0.6520
 8564TIP3    H147107   2.818   0.485  17.068 -1.4166  0.9291  0.6037
 8564TIP3    H247108   2.795   0.559  16.938 -1.3575  2.1570  1.2697
 8565TIP3   OH247109   5.980   4.161   0.112  0.0185 -0.3269 -0.2043
 8565TIP3    H147110   5.982   4.256   0.115  0.1057 -0.3496  1.1186
 8565TIP3    H247111   6.064   4.133   0.149 -1.4737 -0.8920  3.1490
 8566TIP3   OH247112   1.323   1.419   4.770  0.1160 -0.5490 -0.5769
 8566TIP3    H147113   1.415   1.396   4.776  0.0995 -0.4492  0.2384
 8566TIP3    H247114   1.321   1.499   4.718  0.4899 -0.5675 -0.6203
 8567TIP3   OH247115   4.997   5.425  15.179 -0.4758  0.0802  0.4791
 8567TIP3    H147116   5.078   5.381  15.151 -1.4717 -1.5685  0.0901
 8567TIP3    H247117   5.028   5.504  15.225  1.3622 -0.7180  0.7131
 8568TIP3   OH247118   3.923   5.399  13.589 -0.1413 -0.2308 -0.3941
 8568TIP3    H147119   3.844   5.445  13.560  0.2250 -0.0958 -1.2096
 8568TIP3    H247120   3.993   5.463  13.575  0.3526 -0.9667 -1.4084
 8569TIP3   OH247121   6.117   1.007  13.169  0.4501 -0.3209  0.0307
 8569TIP3    H147122   6.098   0.981  13.259 -0.7398  0.3524 -0.0019
 8569TIP3    H247123   6.132   0.924  13.122 -1.4234 -0.8787  0.3233
 8570TIP3   OH247124   6.470   2.985   0.564 -0.3407  0.2820  0.5552
 8570TIP3    H147125   6.452   2.976   0.658  0.1055  0.0780  0.6281
 8570TIP3    H247126   6.529   3.060   0.559 -0.0203  0.0301  0.4885
 8571TIP3   OH247127   6.719   6.595  16.047  0.0611  0.1321 -0.5520
 8571TIP3    H147128   6.814   6.585  16.040  0.1463 -1.2753  1.6901
 8571TIP3    H247129   6.685   6.506  16.047 -0.8711  0.3856  2.2632
 8572TIP3   OH247130   5.372   4.494   2.414  0.5239 -0.1851 -0.7542
 8572TIP3    H147131   5.444   4.545   2.453 -0.3066  2.3375 -2.2935
 8572TIP3    H247132   5.415   4.437   2.350  1.3668 -0.6927  0.2253
 8573TIP3   OH247133   1.913   6.542   4.372  0.5673 -0.1751  0.2782
 8573TIP3    H147134   1.911   6.620   4.317  1.5697 -0.4793 -0.2131
 8573TIP3    H247135   2.005   6.530   4.394  0.5553 -1.6564 -0.3188
 8574TIP3   OH247136   3.777   1.408  16.881 -0.1788 -0.1027 -0.7252
 8574TIP3    H147137   3.762   1.363  16.798 -1.9938  2.0718 -1.6653
 8574TIP3    H247138   3.855   1.461  16.867 -0.3264  0.0535 -0.9611
 8575TIP3   OH247139   1.021   2.733  17.137  0.1213  0.1043 -0.4808
 8575TIP3    H147140   1.075   2.783  17.075 -0.0446  1.7112  0.5948
 8575TIP3    H247141   0.985   2.800  17.196 -2.3721 -0.9909 -0.6433
 8576TIP3   OH247142   0.056   2.331   2.752 -0.2179  0.7868  0.3290
 8576TIP3    H147143   0.077   2.391   2.823  0.4814  1.1238 -0.1507
 8576TIP3    H247144  -0.019   2.370   2.708 -0.0291  1.0891  0.2756
 8577TIP3   OH247145   2.513   4.563   5.011  0.2031  0.0170 -0.2464
 8577TIP3    H147146   2.605   4.590   5.010  0.3183 -0.3587  0.0306
 8577TIP3    H247147   2.506   4.504   5.086 -0.3771  0.4260  0.0321
 8578TIP3   OH247148   0.792   3.196   4.638  0.5212 -0.6463 -0.2655
 8578TIP3    H147149   0.851   3.262   4.672  0.5191  0.7621 -2.7463
 8578TIP3    H247150   0.835   3.112   4.656  1.5463  0.1467  1.0601
 8579TIP3   OH247151   1.116   5.263   0.675 -0.4110 -0.4510 -0.0480
 8579TIP3    H147152   1.087   5.321   0.745  1.6226 -0.7458  1.1155
 8579TIP3    H247153   1.182   5.315   0.628 -0.9198 -0.6779 -1.0457
 8580TIP3   OH247154   5.034   3.687   1.595  0.0602  1.1131  0.3951
 8580TIP3    H147155   4.955   3.667   1.646  0.1627  2.1088  0.9646
 8580TIP3    H247156   5.104   3.637   1.638 -0.1049  0.8732  0.3864
 8581TIP3   OH247157   1.698   3.645  12.529  0.2388  0.2114 -0.1175
 8581TIP3    H147158   1.669   3.573  12.473 -2.7246  0.8914  0.3731
 8581TIP3    H247159   1.700   3.609  12.617  1.4705  0.0501 -0.1976
 8582TIP3   OH247160   1.038   5.228  13.706 -0.1528  0.6427 -0.5775
 8582TIP3    H147161   0.968   5.294  13.707 -1.5844 -0.8158 -0.0083
 8582TIP3    H247162   1.003   5.155  13.758  2.4275  0.4553  1.0893
 8583TIP3   OH247163   2.448   1.704   5.893 -0.2017  0.2353 -0.0131
 8583TIP3    H147164   2.358   1.674   5.908 -0.1190  0.7225  1.6885
 8583TIP3    H247165   2.470   1.754   5.972  1.3902  0.5630 -0.6242
 8584TIP3   OH247166   3.700   2.651   5.302 -0.0818 -0.2889  0.1107
 8584TIP3    H147167   3.707   2.646   5.398  0.2579  0.3036  0.1213
 8584TIP3    H247168   3.676   2.562   5.275 -2.3869  0.0121  0.9204
 8585TIP3   OH247169   1.138   2.606   5.376  0.5243 -0.0016  0.4232
 8585TIP3    H147170   1.087   2.551   5.317  0.4239 -0.4082  0.8852
 8585TIP3    H247171   1.159   2.549   5.451  1.9296  0.0524  0.1051
 8586TIP3   OH247172   2.999   4.338   2.936 -0.5726 -0.0730  0.4738
 8586TIP3    H147173   3.075   4.368   2.986  0.3521  1.4780 -1.7012
 8586TIP3    H247174   3.009   4.243   2.932  0.7997  0.0315  0.9255
 8587TIP3   OH247175   6.722   5.531  14.223  0.3093  0.3249  0.0043
 8587TIP3    H147176   6.701   5.596  14.156  1.1513 -0.6830 -1.2843
 8587TIP3    H247177   6.815   5.513  14.211  0.0011 -1.4995 -0.0605
 8588TIP3   OH247178   2.461   1.238  16.510 -0.1353 -0.1143  0.0141
 8588TIP3    H147179   2.513   1.303  16.557  0.2698 -0.3149 -0.1477
 8588TIP3    H247180   2.525   1.171  16.484 -0.4064 -0.1731 -0.5180
 8589TIP3   OH247181   3.172   3.250  12.430  0.1419 -0.2437  0.0282
 8589TIP3    H147182   3.148   3.176  12.375  1.3180 -1.5178  1.1208
 8589TIP3    H247183   3.266   3.262  12.414  1.2523 -2.4704  3.5861
 8590TIP3   OH247184   3.730   3.342  11.008 -0.5792 -0.2802  0.3060
 8590TIP3    H147185   3.657   3.404  11.001 -1.1775 -0.7592  1.8429
 8590TIP3    H247186   3.723   3.289  10.929  0.8699  2.4773 -1.8564
 8591TIP3   OH247187   1.904   0.433   3.653 -0.2382 -0.1913 -0.0428
 8591TIP3    H147188   1.841   0.466   3.717  1.5567  0.2854  1.5766
 8591TIP3    H247189   1.913   0.504   3.590 -3.2369 -1.2689 -1.9060
 8592TIP3   OH247190   4.436   3.023  16.241  0.4427  0.0105  0.3687
 8592TIP3    H147191   4.408   2.992  16.327  0.0579  0.0896  0.2702
 8592TIP3    H247192   4.482   3.105  16.259 -0.7965  0.7173  0.3621
 8593TIP3   OH247193   1.898   6.755   1.974 -0.1740 -0.1900 -0.4057
 8593TIP3    H147194   1.974   6.795   2.015 -2.1046  1.1028  2.2447
 8593TIP3    H247195   1.877   6.680   2.031 -1.1298 -0.2344 -0.7927
 8594TIP3   OH247196   2.355   5.139   3.954 -0.3059 -0.1097 -0.3018
 8594TIP3    H147197   2.438   5.098   3.931  0.0951  0.8619 -0.6314
 8594TIP3    H247198   2.289   5.073   3.933  0.4027 -1.1196  0.5214
 8595TIP3   OH247199   2.220   2.579   1.079 -0.0734  0.1376 -0.2504
 8595TIP3    H147200   2.143   2.527   1.101  0.6312  0.0368  2.4407
 8595TIP3    H247201   2.292   2.516   1.076  0.1343  0.4112 -1.3262
 8596TIP3   OH247202   0.866   2.195  12.060  0.1865 -0.1719 -0.2423
 8596TIP3    H147203   0.828   2.268  12.011  0.4434 -0.6704 -1.2231
 8596TIP3    H247204   0.795   2.132  12.067 -0.0120  0.1329  0.5327
 8597TIP3   OH247205   3.470   5.616   1.234  0.8158 -0.3809 -0.1777
 8597TIP3    H147206   3.397   5.669   1.204  0.5363 -0.2246  0.7459
 8597TIP3    H247207   3.547   5.657   1.195  0.2811 -1.9257 -3.1192
 8598TIP3   OH247208   1.230   3.571  15.796  0.8307 -0.0958  0.2797
 8598TIP3    H147209   1.240   3.529  15.881  1.6725 -0.2133  0.1288
 8598TIP3    H247210   1.148   3.621  15.803  0.4439 -0.7857  0.8649
 8599TIP3   OH247211   0.547   0.401  11.737 -0.2957  0.4174  0.4158
 8599TIP3    H147212   0.541   0.381  11.644 -0.4667 -0.5122  0.6120
 8599TIP3    H247213   0.480   0.468  11.752  0.6807  1.6093 -0.3802
 8600TIP3   OH247214   3.613   3.351  15.085  0.6073  0.1898 -0.2494
 8600TIP3    H147215   3.567   3.333  15.003  2.2117  0.1096 -1.1771
 8600TIP3    H247216   3.652   3.438  15.072  0.4172  0.4143  0.6525
 8601TIP3   OH247217   3.237   0.202  14.294  0.1924  0.0033  0.0095
 8601TIP3    H147218   3.169   0.173  14.233  2.0188 -1.3225 -1.5593
 8601TIP3    H247219   3.278   0.277  14.250  0.0808  0.4597  0.6822
 8602TIP3   OH247220   1.702   5.440  16.310  0.0028 -0.3459 -0.9012
 8602TIP3    H147221   1.733   5.479  16.228 -1.1011 -0.0134 -1.1707
 8602TIP3    H247222   1.713   5.509  16.375  1.8801 -0.9518 -0.5151
 8603TIP3   OH247223   4.385   3.884  12.852 -0.1959  0.8387  0.6904
 8603TIP3    H147224   4.341   3.825  12.914  2.1806 -1.7089  0.1271
 8603TIP3    H247225   4.321   3.896  12.782 -0.5253 -1.7748  0.4425
 8604TIP3   OH247226   0.070   2.419   0.070  0.1635 -0.5478  0.4859
 8604TIP3    H147227   0.062   2.351   0.003  1.2064  0.4731 -0.7399
 8604TIP3    H247228   0.142   2.474   0.039 -2.5120  2.8690 -0.2001
 8605TIP3   OH247229   5.496   1.799   0.962 -0.2050  1.1868 -0.2041
 8605TIP3    H147230   5.524   1.728   0.905  0.9464  0.4405  1.2398
 8605TIP3    H247231   5.557   1.871   0.944  0.4396  0.7958  0.3909
 8606TIP3   OH247232   0.876   1.806   3.377  0.6098 -0.2174  0.0142
 8606TIP3    H147233   0.783   1.799   3.398  1.0271  0.3936  2.3721
 8606TIP3    H247234   0.879   1.810   3.282 -1.6471 -1.8603 -0.2083
 8607TIP3   OH247235   0.643   6.076  13.631  0.5634 -0.2680 -0.1371
 8607TIP3    H147236   0.679   6.160  13.603  3.2235 -2.1059 -2.9850
 8607TIP3    H247237   0.565   6.065  13.577  0.1528  0.3950  0.3119
 8608TIP3   OH247238   1.131   2.575  11.670  0.1874  0.6600 -0.0917
 8608TIP3    H147239   1.139   2.490  11.627  2.7981  0.7592  0.0297
 8608TIP3    H247240   1.058   2.564  11.732  0.3089 -1.3999 -0.2481
 8609TIP3   OH247241   2.901   0.618   4.209 -0.1114  0.2244 -0.2641
 8609TIP3    H147242   2.890   0.709   4.181 -0.5517  0.6062  1.0364
 8609TIP3    H247243   2.823   0.599   4.262  0.5823 -0.4643  0.5588
 8610TIP3   OH247244   5.700   1.553  11.883  0.1367 -0.3789  0.1926
 8610TIP3    H147245   5.650   1.506  11.816  1.5711  0.3907 -1.5242
 8610TIP3    H247246   5.638   1.614  11.923 -0.3354  0.6262 -1.9391
 8611TIP3   OH247247   1.572   3.029   0.637 -0.2326  0.2977 -0.1637
 8611TIP3    H147248   1.515   3.019   0.713  0.3773 -0.3708  0.2157
 8611TIP3    H247249   1.587   2.940   0.606  0.4901  0.4746 -0.3400
 8612TIP3   OH247250   4.534   6.227  16.748  0.2160 -0.3192 -0.2813
 8612TIP3    H147251   4.471   6.290  16.782 -2.0824 -2.3390 -0.4911
 8612TIP3    H247252   4.567   6.182  16.826 -1.0452 -1.3498 -0.2925
 8613TIP3   OH247253   4.560   1.348   1.355 -0.2789 -0.2073  0.2802
 8613TIP3    H147254   4.581   1.279   1.418  0.4667  0.6142  0.9568
 8613TIP3    H247255   4.466   1.338   1.340 -0.1877 -1.3622  0.3643
 8614TIP3   OH247256   2.650   5.015   6.285 -0.4089 -0.0392 -0.0424
 8614TIP3    H147257   2.608   5.098   6.306  1.4816  0.7953  0.6279
 8614TIP3    H247258   2.713   5.000   6.355 -0.0436 -1.5771 -0.6373
 8615TIP3   OH247259   3.934   3.649  16.760 -0.1251 -0.8543  0.3684
 8615TIP3    H147260   3.925   3.739  16.792 -1.1179 -0.8246  0.0405
 8615TIP3    H247261   3.891   3.650  16.675 -0.6720 -1.7724  0.6196
 8616TIP3   OH247262   4.039   6.632   1.169 -0.2683  0.1027 -0.1286
 8616TIP3    H147263   3.987   6.551   1.170 -0.3498  0.1454  1.4512
 8616TIP3    H247264   4.013   6.676   1.088  0.0661 -1.6156 -1.2213
 8617TIP3   OH247265   2.511   4.201   1.119 -0.3779 -0.5764 -0.3345
 8617TIP3    H147266   2.557   4.176   1.199 -1.2039 -0.7619  0.0910
 8617TIP3    H247267   2.494   4.118   1.074 -0.2210 -0.5021 -0.5314
 8618TIP3   OH247268   0.263   5.770   5.134  0.0841  0.1111  0.9893
 8618TIP3    H147269   0.345   5.722   5.148  0.0357 -0.4684 -0.5089
 8618TIP3    H247270   0.291   5.854   5.097  0.0008 -0.4364 -0.3884
 8619TIP3   OH247271   5.051   5.178  16.525  0.2612 -0.3429 -0.3002
 8619TIP3    H147272   4.977   5.234  16.546 -0.7360 -1.0507 -1.7731
 8619TIP3    H247273   5.077   5.203  16.436 -0.1974 -2.1549 -0.9893
 8620TIP3   OH247274   3.686   0.164   6.162  0.0545  0.2221  0.1508
 8620TIP3    H147275   3.730   0.131   6.084  0.6631  0.1340  0.5309
 8620TIP3    H247276   3.747   0.147   6.233  0.1600  1.6766  0.4337
 8621TIP3   OH247277   5.154   0.538   3.913 -0.3327  0.0642  0.3184
 8621TIP3    H147278   5.177   0.629   3.929 -1.3677  0.3133  0.4839
 8621TIP3    H247279   5.060   0.533   3.933 -0.5688 -0.7571 -0.8625
 8622TIP3   OH247280   4.456   1.717  10.485  0.2035  0.0372  0.3678
 8622TIP3    H147281   4.415   1.797  10.516 -3.9813 -1.4771 -0.6569
 8622TIP3    H247282   4.430   1.650  10.548 -0.2387 -1.2983 -1.1532
 8623TIP3   OH247283   3.709   0.157  15.546  0.5712 -0.9166  0.1528
 8623TIP3    H147284   3.636   0.204  15.586  0.6310 -1.4114  0.8693
 8623TIP3    H247285   3.673   0.071  15.525  1.0603 -1.3184  0.9190
 8624TIP3   OH247286   6.257   4.235  13.430 -0.4778  0.4331  0.3096
 8624TIP3    H147287   6.166   4.248  13.404 -0.0085  0.9316 -1.1792
 8624TIP3    H247288   6.307   4.252  13.350  0.9929  1.0769  1.3312
 8625TIP3   OH247289   5.390   4.313  14.198  0.6077  0.5193 -0.1961
 8625TIP3    H147290   5.415   4.403  14.216  1.6896  0.1544  0.1843
 8625TIP3    H247291   5.442   4.289  14.121  1.2300 -0.1610  0.4316
 8626TIP3   OH247292   4.886   5.849   5.874 -0.7930 -0.1096  0.3421
 8626TIP3    H147293   4.920   5.939   5.874 -1.8328  0.2929  0.7011
 8626TIP3    H247294   4.947   5.801   5.929  0.1602  0.2084 -0.3942
 8627TIP3   OH247295   4.979   1.960  14.654 -0.3086 -0.5468 -0.6785
 8627TIP3    H147296   5.064   1.976  14.612  0.0074  0.4920  0.3043
 8627TIP3    H247297   4.916   2.008  14.600 -0.0014  0.1984 -0.3927
 8628TIP3   OH247298   0.172   4.871   6.519 -0.0127  0.7553  0.4276
 8628TIP3    H147299   0.256   4.873   6.566 -0.4737 -0.5084  1.3826
 8628TIP3    H247300   0.152   4.963   6.501  1.4775  1.0867  0.3593
 8629TIP3   OH247301   5.682   0.645   1.932  0.1730  1.3205  0.1708
 8629TIP3    H147302   5.711   0.665   1.843  0.5271 -1.7752 -0.5238
 8629TIP3    H247303   5.587   0.631   1.924  0.1596  1.3131  0.3371
 8630TIP3   OH247304   2.022   6.374  15.700  0.3909 -0.6599  0.3318
 8630TIP3    H147305   1.959   6.309  15.729  0.2235 -0.7426 -0.2142
 8630TIP3    H247306   2.107   6.340  15.729  0.6233 -2.4071 -2.0729
 8631TIP3   OH247307   4.189   4.498  14.674  0.1923 -0.1904 -0.2197
 8631TIP3    H147308   4.202   4.539  14.589 -0.1901  1.2582  0.4012
 8631TIP3    H247309   4.126   4.428  14.657  0.6810 -0.3925 -1.2510
 8632TIP3   OH247310   2.655   0.488  13.181  0.2817  0.6892  0.4881
 8632TIP3    H147311   2.633   0.412  13.235 -1.1640  0.8429  0.1626
 8632TIP3    H247312   2.734   0.524  13.221  2.3174 -2.2123 -0.6015
 8633TIP3   OH247313   2.769   5.993   5.723 -0.4354 -0.0413  0.0810
 8633TIP3    H147314   2.754   6.033   5.808  1.7621  1.6284 -0.2266
 8633TIP3    H247315   2.846   5.938   5.735  0.2558  0.6634 -0.9137
 8634TIP3   OH247316   4.655   1.086  12.756 -0.2052  0.3171 -0.3732
 8634TIP3    H147317   4.576   1.091  12.702 -1.0493 -0.3337  0.7520
 8634TIP3    H247318   4.691   0.999  12.737 -1.7540 -0.8600  1.7108
 8635TIP3   OH247319   3.218   2.730  16.336  0.5306 -0.9036  0.0371
 8635TIP3    H147320   3.228   2.671  16.410  2.0987  2.2765  2.6320
 8635TIP3    H247321   3.153   2.795  16.365 -1.0766 -1.1223 -2.6420
 8636TIP3   OH247322   1.150   6.183  15.818 -0.5778 -0.0686  0.0242
 8636TIP3    H147323   1.076   6.146  15.769 -0.3194 -0.1591 -0.2996
 8636TIP3    H247324   1.209   6.109  15.832  0.0590  0.2496 -0.8337
 8637TIP3   OH247325   0.692   4.003  15.270 -0.1665  0.4403  0.9905
 8637TIP3    H147326   0.650   4.068  15.327 -0.5573  0.2196  0.9581
 8637TIP3    H247327   0.636   4.000  15.193 -1.7073 -1.9051  2.1067
 8638TIP3   OH247328   1.316   5.285  15.008 -0.5624 -0.3888  0.2250
 8638TIP3    H147329   1.249   5.344  15.044 -0.0654  0.8966 -0.8552
 8638TIP3    H247330   1.313   5.301  14.913  1.3246 -0.2154  0.1564
 8639TIP3   OH247331   2.843   3.979  17.083  1.1477  0.2224 -0.1678
 8639TIP3    H147332   2.828   3.898  17.133  0.5668 -0.0812 -0.8160
 8639TIP3    H247333   2.797   4.047  17.134  0.4202 -0.1148 -0.3510
 8640TIP3   OH247334   2.809   3.558   3.477 -0.2702  0.1180  0.4685
 8640TIP3    H147335   2.849   3.602   3.552 -0.8090 -1.7090  1.9415
 8640TIP3    H247336   2.881   3.537   3.419  0.5454 -0.5535  1.6734
 8641TIP3   OH247337   1.614   6.709  11.235  0.1266 -0.1173 -0.4023
 8641TIP3    H147338   1.646   6.711  11.325  0.8516  1.0614 -0.6557
 8641TIP3    H247339   1.519   6.715  11.242  0.2238  0.7621  0.2676
 8642TIP3   OH247340   0.604   6.262   4.052  0.5431 -0.9173 -0.4450
 8642TIP3    H147341   0.583   6.318   4.126 -0.7552 -0.3839 -1.1962
 8642TIP3    H247342   0.698   6.274   4.039  0.1972  1.7147 -1.0578
 8643TIP3   OH247343   0.182   2.525   3.319  0.0705  0.1516  0.3656
 8643TIP3    H147344   0.242   2.480   3.378  2.2034 -1.5385 -2.7781
 8643TIP3    H247345   0.094   2.504   3.353  1.1336 -0.9837  2.6482
 8644TIP3   OH247346   0.301   6.031  16.104 -0.6497 -0.4736 -0.1881
 8644TIP3    H147347   0.281   6.119  16.071  0.0349 -0.8137 -1.5790
 8644TIP3    H247348   0.304   5.976  16.025  0.2761 -1.4803  0.5208
 8645TIP3   OH247349   3.226   3.007   4.033  0.0334  0.1557 -0.1820
 8645TIP3    H147350   3.228   3.069   3.959  1.0463 -1.3839 -1.5037
 8645TIP3    H247351   3.160   2.943   4.008  2.0223 -1.7095 -0.9469
 8646TIP3   OH247352   4.009   3.031  14.789  0.5474  0.6423  0.1768
 8646TIP3    H147353   3.978   3.064  14.705  0.0624 -0.3338 -0.0315
 8646TIP3    H247354   3.931   3.024  14.843  0.6258 -0.2024  0.1974
 8647TIP3   OH247355   0.998   3.599   1.602  0.3000  0.9296  0.4745
 8647TIP3    H147356   0.991   3.521   1.547 -1.5281  1.5326 -0.2245
 8647TIP3    H247357   1.000   3.672   1.540 -1.3719  1.5922  1.1301
 8648TIP3   OH247358   5.600   0.891   4.772  0.2024  0.7874 -0.0517
 8648TIP3    H147359   5.632   0.932   4.691 -0.6520 -1.1847 -1.4481
 8648TIP3    H247360   5.505   0.890   4.763 -0.0848  2.4447  2.0026
 8649TIP3   OH247361   5.437   6.361  16.366 -0.2538  0.1106  0.5825
 8649TIP3    H147362   5.425   6.315  16.448 -1.1613 -0.1283  0.3292
 8649TIP3    H247363   5.411   6.451  16.385 -0.0103  0.1638  0.6698
 8650TIP3   OH247364   1.970   0.530   3.378  0.2622 -0.2814 -0.8381
 8650TIP3    H147365   1.894   0.558   3.326 -0.9890 -1.8060  0.0476
 8650TIP3    H247366   2.022   0.478   3.317  0.5388  0.6395 -1.4135
 8651TIP3   OH247367   5.080   5.953  12.063 -0.1649 -0.5656  0.5931
 8651TIP3    H147368   5.005   5.920  12.013  0.6086 -1.2354 -0.1512
 8651TIP3    H247369   5.156   5.927  12.012  0.6755 -1.3896  2.1909
 8652TIP3   OH247370   0.358   4.329  15.721  0.2243  0.6151 -0.1223
 8652TIP3    H147371   0.279   4.275  15.713  1.7656 -1.7064 -0.4676
 8652TIP3    H247372   0.346   4.399  15.657 -2.5156  1.7101  1.3833
 8653TIP3   OH247373   0.370   3.102   5.955  0.1862 -0.0768  0.5075
 8653TIP3    H147374   0.376   3.163   5.882 -3.2005  2.1009  1.8225
 8653TIP3    H247375   0.426   3.140   6.023  0.6175 -0.2423  0.2528
 8654TIP3   OH247376   6.708   4.000  17.186 -0.0534  0.9140 -0.2705
 8654TIP3    H147377   6.619   4.003  17.153  0.0403 -0.7790 -0.7657
 8654TIP3    H247378   6.760   3.967  17.113  0.6858  0.1839  0.5601
 8655TIP3   OH247379   5.023   0.684  16.846  0.2426 -0.1441 -0.3990
 8655TIP3    H147380   5.042   0.605  16.897  2.6051 -0.1665 -1.1749
 8655TIP3    H247381   5.097   0.742  16.865 -0.6448  1.2496 -1.0900
 8656TIP3   OH247382   3.608   5.918   5.591 -0.0917  0.2436  0.4156
 8656TIP3    H147383   3.618   5.923   5.496 -1.2536  0.4019  0.2831
 8656TIP3    H247384   3.544   5.986   5.611 -0.5814 -0.4362  1.1972
 8657TIP3   OH247385   1.515   0.940   4.688  0.1548 -0.3849 -0.3574
 8657TIP3    H147386   1.444   0.975   4.741  0.9536 -0.3414  0.6973
 8657TIP3    H247387   1.519   0.998   4.612 -1.3960 -0.8090 -0.8085
 8658TIP3   OH247388   1.488   5.252   5.502 -0.1000 -0.6177 -0.0454
 8658TIP3    H147389   1.549   5.234   5.574  1.4630 -3.6236 -1.8875
 8658TIP3    H247390   1.526   5.327   5.457 -0.2144  0.2870  1.3093
 8659TIP3   OH247391   1.672   6.423   5.188 -0.4717 -0.6067 -0.9058
 8659TIP3    H147392   1.679   6.490   5.255 -0.5291  0.6283 -2.0872
 8659TIP3    H247393   1.631   6.348   5.232 -0.6172  0.2072  0.3819
 8660TIP3   OH247394   1.548   6.078  11.599 -0.8047 -0.3183  0.3935
 8660TIP3    H147395   1.600   6.116  11.670 -1.6724  1.5398  0.1018
 8660TIP3    H247396   1.469   6.045  11.643 -1.8930  1.8833  0.2616
 8661TIP3   OH247397   0.215   1.513  11.270 -0.4449 -0.4182  0.9550
 8661TIP3    H147398   0.147   1.576  11.291  0.5434  1.0181  0.0361
 8661TIP3    H247399   0.221   1.514  11.174 -0.2037 -1.6901  0.9431
 8662TIP3   OH247400   5.472   4.342   1.265 -0.4011 -0.3355 -0.1826
 8662TIP3    H147401   5.556   4.381   1.290  0.2025 -0.1177 -2.3116
 8662TIP3    H247402   5.408   4.384   1.322  0.7928  0.2840  0.7590
 8663TIP3   OH247403   6.008   6.452   2.948  0.5345  0.0647 -0.0560
 8663TIP3    H147404   5.928   6.402   2.960 -0.7625  2.3448  1.6420
 8663TIP3    H247405   6.026   6.447   2.854 -0.5342 -1.9846 -0.1948
 8664TIP3   OH247406   5.970   6.339  17.146  0.6575 -0.2106 -0.2616
 8664TIP3    H147407   5.989   6.414  17.202 -0.6648 -0.2174  0.2374
 8664TIP3    H247408   6.028   6.270  17.177  1.0143  0.2436  0.0911
 8665TIP3   OH247409   1.776   1.775  12.139  0.3595 -0.0424 -0.2153
 8665TIP3    H147410   1.864   1.786  12.104  0.6066  2.1045  0.9526
 8665TIP3    H247411   1.789   1.731  12.223  0.2943  0.0340 -0.1647
 8666TIP3   OH247412   3.601   0.694  14.389 -0.0680  0.0137 -0.2927
 8666TIP3    H147413   3.680   0.678  14.338 -0.3950 -2.2646 -0.1613
 8666TIP3    H247414   3.535   0.717  14.324  0.0903 -0.6027 -0.6800
 8667TIP3   OH247415   3.204   1.460  15.569  0.1654  0.2943  0.1006
 8667TIP3    H147416   3.237   1.513  15.496 -1.2451  2.1099  0.6977
 8667TIP3    H247417   3.188   1.524  15.639 -1.4380 -0.9697  0.9406
 8668TIP3   OH247418   1.696   2.663   3.874 -0.2353  0.0733  0.7560
 8668TIP3    H147419   1.719   2.701   3.789  0.5414  0.6594  1.2179
 8668TIP3    H247420   1.681   2.738   3.931  1.7332 -0.2667  1.8012
 8669TIP3   OH247421   1.093   0.357  11.519  0.0392  0.1432 -0.7782
 8669TIP3    H147422   1.062   0.424  11.580  0.0819 -0.9492  0.4789
 8669TIP3    H247423   1.021   0.347  11.456 -0.6612  0.2116 -0.0024
 8670TIP3   OH247424   1.278   1.123   5.270  0.2113  0.0775 -0.0173
 8670TIP3    H147425   1.311   1.080   5.191 -1.0242  1.1617 -1.1862
 8670TIP3    H247426   1.208   1.066   5.301  0.3821 -0.1076  0.0354
 8671TIP3   OH247427   5.674   3.538  11.383 -0.4719 -0.3117  0.0621
 8671TIP3    H147428   5.733   3.512  11.454  0.7692  1.1169 -0.4058
 8671TIP3    H247429   5.615   3.463  11.373  0.3332 -1.1905  1.5282
 8672TIP3   OH247430   2.773   1.796   3.078  0.2836 -0.4648  0.3495
 8672TIP3    H147431   2.679   1.793   3.094 -0.2555  3.0031 -1.2793
 8672TIP3    H247432   2.782   1.793   2.983  1.4923  2.1795  0.2878
 8673TIP3   OH247433   1.313   3.640   0.813 -0.7083 -0.3277  0.6220
 8673TIP3    H147434   1.369   3.686   0.750 -2.1179  2.1130  1.0244
 8673TIP3    H247435   1.334   3.548   0.801  1.9684  0.3521 -0.5662
 8674TIP3   OH247436   5.822   4.655   4.716  0.0427  0.2693  0.5939
 8674TIP3    H147437   5.790   4.702   4.793  0.0723  1.2357  0.0337
 8674TIP3    H247438   5.746   4.651   4.657  0.4877  1.1276 -0.0638
 8675TIP3   OH247439   0.646   0.846  14.025 -0.1112 -0.7982  0.6962
 8675TIP3    H147440   0.555   0.820  14.013 -1.2256  2.6879  0.6239
 8675TIP3    H247441   0.696   0.770  13.997 -2.9454 -3.2156  1.6699
 8676TIP3   OH247442   4.970   1.193   3.069  0.2501 -0.3308  0.6914
 8676TIP3    H147443   4.930   1.119   3.022  0.3250  0.3301 -0.4423
 8676TIP3    H247444   5.053   1.158   3.102  2.2437  0.1907 -3.1525
 8677TIP3   OH247445   2.588   5.648  14.198 -0.4768 -0.0921 -0.4928
 8677TIP3    H147446   2.516   5.711  14.205  1.1860  1.8518  0.2670
 8677TIP3    H247447   2.548   5.563  14.217 -2.8912  0.6507 -1.8799
 8678TIP3   OH247448   5.736   4.229   1.786  0.0658  0.1133  0.0132
 8678TIP3    H147449   5.782   4.145   1.793  0.3124  0.3487  1.4126
 8678TIP3    H247450   5.722   4.240   1.692  0.3931 -1.2981 -0.2325
 8679TIP3   OH247451   6.025   0.959  16.840 -0.8683 -0.2303 -0.4098
 8679TIP3    H147452   6.009   0.926  16.928  0.6718 -0.8142 -0.3284
 8679TIP3    H247453   6.007   0.884  16.783 -0.2598 -0.3406 -0.4592
 8680TIP3   OH247454   0.730   2.309  16.295  0.5084  0.5347  0.0902
 8680TIP3    H147455   0.679   2.354  16.228 -1.2844 -1.0815  0.2760
 8680TIP3    H247456   0.671   2.305  16.371  0.8804 -1.3581  0.3295
 8681TIP3   OH247457   3.345   3.942  17.014 -0.7578  1.1568 -0.0217
 8681TIP3    H147458   3.251   3.938  16.996 -0.7512  1.3195 -0.0992
 8681TIP3    H247459   3.381   3.863  16.974 -1.2615 -0.4679  2.5614
 8682TIP3   OH247460   0.346   4.796   4.716 -0.4203  0.7602  0.6037
 8682TIP3    H147461   0.382   4.861   4.776  0.2883  1.3182 -0.3851
 8682TIP3    H247462   0.350   4.838   4.630 -1.8153  0.1516  0.2100
 8683TIP3   OH247463   4.743   0.030   1.641 -0.2280  0.3602  0.1084
 8683TIP3    H147464   4.800   0.052   1.567  0.8421 -0.4242  0.6687
 8683TIP3    H247465   4.696   0.111   1.660  1.1335  1.2145 -0.0126
 8684TIP3   OH247466   6.061   3.330  13.445 -0.1104 -0.3311  0.0743
 8684TIP3    H147467   6.095   3.275  13.516  0.6530 -1.7050 -1.2842
 8684TIP3    H247468   6.123   3.403  13.440  1.2419 -1.4561 -0.6545
 8685TIP3   OH247469   4.474   6.367   0.146 -0.7958  0.2563 -0.0171
 8685TIP3    H147470   4.480   6.294   0.207  0.4531  0.5350  0.2375
 8685TIP3    H247471   4.394   6.413   0.170 -0.4017  0.2721  1.3128
 8686TIP3   OH247472   0.880   5.312  11.548  0.0995  0.1433  0.0990
 8686TIP3    H147473   0.974   5.329  11.538 -0.1728  1.9849  0.4430
 8686TIP3    H247474   0.853   5.368  11.620 -1.0920 -1.1280  0.6847
 8687TIP3   OH247475   0.963   3.263  16.389  0.1664 -0.2346 -0.6144
 8687TIP3    H147476   0.884   3.211  16.403  0.9327 -1.1164  0.6594
 8687TIP3    H247477   1.022   3.204  16.341  0.7482 -0.2762  0.1420
 8688TIP3   OH247478   0.480   6.688  14.905 -0.7484 -0.3771  0.3613
 8688TIP3    H147479   0.494   6.616  14.968 -1.2514 -0.6326  0.1835
 8688TIP3    H247480   0.431   6.648  14.834  0.3444 -0.2393 -0.4904
 8689TIP3   OH247481   1.844   4.000  12.706  0.2372  0.1476 -0.0565
 8689TIP3    H147482   1.914   4.056  12.740 -0.7187  0.6642  1.1089
 8689TIP3    H247483   1.771   4.059  12.689 -0.5050 -0.6272  0.3784
 8690TIP3   OH247484   2.629   4.792   5.189 -0.0871 -0.5940 -0.2661
 8690TIP3    H147485   2.685   4.719   5.162 -2.1262 -1.5518 -2.2475
 8690TIP3    H247486   2.643   4.799   5.283 -1.1541 -4.8792  0.4193
 8691TIP3   OH247487   2.751   3.559  14.747  0.0691 -0.2531 -0.0411
 8691TIP3    H147488   2.832   3.583  14.702 -0.2595  0.7551 -0.1177
 8691TIP3    H247489   2.711   3.493  14.690  0.9669 -0.9736  0.1439
 8692TIP3   OH247490   1.316   6.047  17.053 -0.0358 -0.3383  0.1282
 8692TIP3    H147491   1.326   6.094  17.136 -0.3961 -0.3247  0.1656
 8692TIP3    H247492   1.224   6.061  17.029 -0.7961 -2.8298  1.2643
 8693TIP3   OH247493   0.358   1.044  14.200 -0.1487 -0.4795 -0.0080
 8693TIP3    H147494   0.269   1.009  14.197 -0.5295  0.3655  0.8704
 8693TIP3    H247495   0.391   1.018  14.286  0.2153 -0.2615 -0.0806
 8694TIP3   OH247496   5.087   1.613  17.270 -0.1712  0.0483 -0.0062
 8694TIP3    H147497   5.046   1.698  17.260 -1.2976 -0.3552  1.0104
 8694TIP3    H247498   5.164   1.628  17.325 -0.5099  0.3642  0.3778
 8695TIP3   OH247499   4.239   0.231  13.584 -0.7778 -0.3017  0.6249
 8695TIP3    H147500   4.290   0.286  13.524 -0.4217 -0.7384  0.5253
 8695TIP3    H247501   4.281   0.242  13.669  0.9759 -2.4721  0.1214
 8696TIP3   OH247502   4.085   2.850  14.282  0.2085  0.2778 -0.1777
 8696TIP3    H147503   4.057   2.853  14.374 -0.2548 -3.1669 -0.0677
 8696TIP3    H247504   4.170   2.894  14.281  0.3924  0.0996  2.0135
 8697TIP3   OH247505   5.306   6.133  13.623  0.1426  0.7669 -0.1794
 8697TIP3    H147506   5.372   6.111  13.689  0.6292  4.3647  0.7463
 8697TIP3    H247507   5.226   6.146  13.672 -0.0639  1.2265 -0.6326
 8698TIP3   OH247508   6.035   6.644  13.989  0.2821  0.1848  0.1908
 8698TIP3    H147509   5.970   6.691  13.937 -0.3188 -0.0181  0.7578
 8698TIP3    H247510   6.011   6.661  14.080  1.0577  0.1596  0.4071
 8699TIP3   OH247511   3.905   6.487   3.022  0.0294 -0.2591 -0.1815
 8699TIP3    H147512   3.928   6.498   3.114 -0.3555 -0.2172 -0.0874
 8699TIP3    H247513   3.988   6.468   2.978  0.1048 -1.0216  0.2910
 8700TIP3   OH247514   5.957   5.929  17.119  0.1532 -0.2298  0.5503
 8700TIP3    H147515   5.929   5.839  17.138 -0.5179  0.3078  2.3538
 8700TIP3    H247516   5.882   5.983  17.142 -0.1248  0.7330 -2.2265
 8701TIP3   OH247517   2.312   6.197   0.276  0.1580 -0.2562 -0.2682
 8701TIP3    H147518   2.303   6.160   0.188 -0.7958 -0.5705 -0.0423
 8701TIP3    H247519   2.224   6.193   0.314  0.3986  0.5896  0.4221
 8702TIP3   OH247520   3.384   0.260   4.845  0.3180  0.0205 -0.1649
 8702TIP3    H147521   3.393   0.331   4.908 -1.7402 -0.6092  0.9467
 8702TIP3    H247522   3.301   0.218   4.868 -0.1085 -0.7716 -2.7754
 8703TIP3   OH247523   5.153   1.964   5.752  0.4116  0.6010  0.6839
 8703TIP3    H147524   5.064   1.932   5.741  0.4667  0.5353  0.4331
 8703TIP3    H247525   5.166   1.967   5.847  0.5541 -0.5488  0.7167
 8704TIP3   OH247526   2.044   2.690  15.706 -0.6774 -0.1717  0.2033
 8704TIP3    H147527   2.073   2.729  15.624 -0.9305  1.3161  0.7945
 8704TIP3    H247528   1.951   2.712  15.711 -1.4213 -2.7834 -0.4923
 8705TIP3   OH247529   1.581   3.877  12.119  0.1370  0.3480  0.7906
 8705TIP3    H147530   1.670   3.906  12.141  0.1349 -0.0663  1.3826
 8705TIP3    H247531   1.585   3.782  12.125  0.0755  0.2160 -0.8654
 8706TIP3   OH247532   1.467   6.752   2.867 -0.3219  0.4774  0.1806
 8706TIP3    H147533   1.409   6.723   2.797  0.4300 -0.8227  0.0584
 8706TIP3    H247534   1.438   6.841   2.887 -1.4992  0.3312 -0.7579
 8707TIP3   OH247535   3.799   4.516   5.598  0.4345  0.3157  0.2703
 8707TIP3    H147536   3.827   4.464   5.523 -0.5454  1.3227 -0.8299
 8707TIP3    H247537   3.835   4.604   5.581  0.7195  0.4167  1.2994
 8708TIP3   OH247538   0.586   5.043   3.038 -0.1213 -0.2638  0.1872
 8708TIP3    H147539   0.523   5.007   3.100 -1.2075 -0.1833 -0.8459
 8708TIP3    H247540   0.602   4.973   2.976 -0.1191  0.1132 -0.2429
 8709TIP3   OH247541   0.729   3.388  13.667  0.2792  0.5640  0.6283
 8709TIP3    H147542   0.679   3.308  13.684 -0.4612  1.0456  0.7794
 8709TIP3    H247543   0.805   3.382  13.725  0.0184  0.1548  0.9285
 8710TIP3   OH247544   1.931   6.189   3.046 -0.0036 -0.5068  0.3634
 8710TIP3    H147545   1.976   6.253   3.102 -1.2122 -0.5588  1.4721
 8710TIP3    H247546   1.950   6.104   3.086  0.1625 -0.6673 -0.0584
 8711TIP3   OH247547   1.602   3.316   5.674 -0.2157  0.0419  0.2904
 8711TIP3    H147548   1.604   3.372   5.595 -1.3421 -2.7046 -1.8474
 8711TIP3    H247549   1.589   3.228   5.640  4.8024 -2.2435  3.1571
 8712TIP3   OH247550   0.787   1.864   3.688  0.5955 -0.3254 -0.3211
 8712TIP3    H147551   0.766   1.784   3.640 -1.3937 -0.3391  0.4669
 8712TIP3    H247552   0.747   1.852   3.774 -0.0647  1.6449 -0.3053
 8713TIP3   OH247553   3.372   2.637   5.087  0.7236  0.5718 -0.2581
 8713TIP3    H147554   3.464   2.614   5.080  0.9502  1.5139 -0.5437
 8713TIP3    H247555   3.354   2.637   5.181  0.8486 -0.2197 -0.2312
 8714TIP3   OH247556   5.071   5.186   1.713  0.0463 -0.2467  0.0340
 8714TIP3    H147557   5.039   5.258   1.768 -2.3501 -1.3180  0.1942
 8714TIP3    H247558   5.062   5.108   1.768 -3.2863 -1.5048 -1.9507
 8715TIP3   OH247559   6.199   4.794  13.516 -0.0936  0.4349  0.4796
 8715TIP3    H147560   6.165   4.705  13.518  0.6240  0.1061 -0.7536
 8715TIP3    H247561   6.208   4.818  13.608  0.1898 -0.9684  0.8470
 8716TIP3   OH247562   6.453   4.548   4.535  0.3620 -0.3289 -0.5353
 8716TIP3    H147563   6.483   4.561   4.624 -2.3084 -1.0943  0.5747
 8716TIP3    H247564   6.405   4.628   4.514 -1.0172 -1.0810 -0.3531
 8717TIP3   OH247565   2.370   3.974  11.808  0.1947 -0.3877  0.5566
 8717TIP3    H147566   2.282   4.009  11.795  0.1222 -0.4363  0.9177
 8717TIP3    H247567   2.421   4.048  11.839 -0.3219 -0.9293  2.8531
 8718TIP3   OH247568   4.832   1.684   1.439 -0.5645 -0.6190 -0.4854
 8718TIP3    H147569   4.784   1.744   1.382 -2.1009 -2.4676 -1.2713
 8718TIP3    H247570   4.831   1.601   1.392  1.9886 -1.1876  0.2889
 8719TIP3   OH247571   5.560   5.786  12.675 -0.0271 -0.1548  0.3144
 8719TIP3    H147572   5.557   5.751  12.764  0.5797  1.1175  0.8786
 8719TIP3    H247573   5.626   5.733  12.630  0.3654 -0.1974  0.9310
 8720TIP3   OH247574   4.377   5.929   0.105 -0.0817 -0.0455  0.3899
 8720TIP3    H147575   4.423   5.848   0.128  0.9089  0.2946 -0.3000
 8720TIP3    H247576   4.378   5.930   0.009 -4.3618 -1.5745  0.1280
 8721TIP3   OH247577   5.378   2.403   1.505  0.3910 -0.1483  0.1752
 8721TIP3    H147578   5.307   2.351   1.543 -3.0923  1.6879 -3.1491
 8721TIP3    H247579   5.397   2.360   1.421  2.2144  0.2847  0.3168
 8722TIP3   OH247580   0.038   0.353   2.713 -0.2159 -0.0080 -0.0963
 8722TIP3    H147581  -0.044   0.404   2.709 -1.3257 -1.7634 -1.3741
 8722TIP3    H247582   0.011   0.266   2.742  1.4022 -0.3261  0.5600
 8723TIP3   OH247583   6.281   3.010  16.753 -0.3368 -0.2530  0.0159
 8723TIP3    H147584   6.313   3.096  16.778 -0.4026 -0.4025  0.6234
 8723TIP3    H247585   6.361   2.958  16.739 -0.3024 -0.2636  0.2506
 8724TIP3   OH247586   6.218   4.838   6.060 -0.1932  0.2316  0.5111
 8724TIP3    H147587   6.182   4.749   6.070 -0.6761  0.4130  0.4368
 8724TIP3    H247588   6.185   4.886   6.136 -0.9222  0.6586 -0.0605
 8725TIP3   OH247589   2.976   5.570   0.733  0.0933 -0.0152  0.1327
 8725TIP3    H147590   3.036   5.622   0.787 -0.6296  1.7160 -0.6717
 8725TIP3    H247591   2.944   5.630   0.667 -1.2111 -1.3628 -0.5336
 8726TIP3   OH247592   1.860   2.403   0.565  0.0145  0.2368  0.2378
 8726TIP3    H147593   1.921   2.449   0.622 -0.6539  1.3556  0.0692
 8726TIP3    H247594   1.774   2.413   0.607 -0.9212  3.0702 -2.0027
 8727TIP3   OH247595   6.122   6.301   3.620 -0.1346  0.3078 -0.0258
 8727TIP3    H147596   6.106   6.373   3.681  1.2611  0.6175  0.0217
 8727TIP3    H247597   6.127   6.223   3.676 -0.7392  0.2990  0.0252
 8728TIP3   OH247598   1.273   0.762  16.791  0.0846  0.3035  0.1316
 8728TIP3    H147599   1.257   0.857  16.793 -0.7346  0.1942 -0.6942
 8728TIP3    H247600   1.309   0.746  16.704 -0.1794 -0.2040  0.1122
 8729TIP3   OH247601   6.076   2.635  10.680  0.6278 -0.8685  0.3899
 8729TIP3    H147602   6.004   2.697  10.665  1.3414  0.0156  0.5887
 8729TIP3    H247603   6.038   2.569  10.739 -0.5241 -1.3446 -0.8188
 8730TIP3   OH247604   2.767   1.262   5.482  0.6510 -0.0893  0.2094
 8730TIP3    H147605   2.758   1.208   5.403 -1.9724 -1.4077  1.2772
 8730TIP3    H247606   2.748   1.202   5.554  1.2336  1.4866  1.7443
 8731TIP3   OH247607   1.616   5.888  13.225 -0.4494  0.4196  0.0680
 8731TIP3    H147608   1.706   5.907  13.199 -0.0104 -0.6967  0.6795
 8731TIP3    H247609   1.618   5.885  13.320 -0.2395 -3.2551  0.0999
 8732TIP3   OH247610   6.581   3.890  12.661  0.2014  0.5350 -0.3424
 8732TIP3    H147611   6.621   3.839  12.731 -0.0238 -0.7112 -1.0902
 8732TIP3    H247612   6.589   3.981  12.690  1.6870  0.1703  0.4788
 8733TIP3   OH247613   4.957   1.732  12.298  0.4186  0.3014 -1.1055
 8733TIP3    H147614   4.954   1.828  12.306 -0.2160  0.2197 -0.1092
 8733TIP3    H247615   5.008   1.704  12.374  0.0326 -0.1924 -1.0262
 8734TIP3   OH247616   2.922   1.591  16.055 -0.1662  0.4633  0.1279
 8734TIP3    H147617   2.946   1.679  16.025 -3.4386  1.2608 -0.5437
 8734TIP3    H247618   2.828   1.585  16.039 -0.5896 -2.1574  2.7582
 8735TIP3   OH247619   0.284   0.214  17.094 -0.2039  0.2996  0.2989
 8735TIP3    H147620   0.229   0.196  17.170  0.9026 -0.2991  0.9880
 8735TIP3    H247621   0.284   0.310  17.086 -1.3502  0.3090  0.2542
 8736TIP3   OH247622   2.990   0.614   5.326  0.0842  0.7020 -0.0570
 8736TIP3    H147623   3.026   0.549   5.265  0.5496  1.4949 -0.6546
 8736TIP3    H247624   2.895   0.608   5.315  0.1510  0.5719 -0.5856
 8737TIP3   OH247625   2.807   5.576   2.333  0.4367 -0.6047 -0.1730
 8737TIP3    H147626   2.823   5.483   2.348 -0.2668 -0.5878  0.7647
 8737TIP3    H247627   2.716   5.580   2.301  0.0115 -0.1422  1.0407
 8738TIP3   OH247628   5.123   3.451  10.640  0.0537  1.2022 -0.0588
 8738TIP3    H147629   5.172   3.519  10.687 -0.8520  1.0574  1.1470
 8738TIP3    H247630   5.149   3.370  10.683  1.5696  0.6754 -1.8672
 8739TIP3   OH247631   1.134   0.351   0.485 -0.3075  0.2990 -0.4307
 8739TIP3    H147632   1.104   0.297   0.558  0.6594 -0.1671 -0.3652
 8739TIP3    H247633   1.102   0.439   0.506  0.9464  0.4326  1.1893
 8740TIP3   OH247634   6.480   3.673   2.664 -0.5615  0.1489 -0.1737
 8740TIP3    H147635   6.490   3.659   2.758  0.5091 -0.3902 -0.3519
 8740TIP3    H247636   6.501   3.588   2.625 -2.1298  0.0353 -0.8577
 8741TIP3   OH247637   2.290   0.190  15.198 -0.1548 -0.1419  0.4076
 8741TIP3    H147638   2.268   0.146  15.116 -1.5963 -1.3115  1.3680
 8741TIP3    H247639   2.283   0.284  15.176 -0.1862 -0.4199 -0.8826
 8742TIP3   OH247640   3.480   0.339  14.135 -0.7290  0.0056 -0.3987
 8742TIP3    H147641   3.483   0.248  14.104  1.1809 -1.0049  2.3920
 8742TIP3    H247642   3.569   0.372  14.125 -1.2435  1.3717 -0.7493
 8743TIP3   OH247643   0.109   1.505  13.692 -0.2601  0.4422  0.3395
 8743TIP3    H147644   0.144   1.536  13.775 -3.0451  1.9582  1.0763
 8743TIP3    H247645   0.105   1.583  13.637  2.2486 -0.6549 -1.6312
 8744TIP3   OH247646   3.012   0.856   1.950  0.0209 -0.0843  0.3569
 8744TIP3    H147647   2.925   0.818   1.957  0.0744  0.0355  2.1082
 8744TIP3    H247648   2.998   0.941   1.908 -0.3881 -1.0019 -1.4436
 8745TIP3   OH247649   2.461   0.541   1.606 -0.1775 -0.0649  0.5300
 8745TIP3    H147650   2.548   0.502   1.605 -0.2729 -0.2832  0.5748
 8745TIP3    H247651   2.443   0.563   1.515 -0.3967 -0.7451  0.4082
 8746TIP3   OH247652   3.914   0.335  16.541  0.1663  0.1045  0.3494
 8746TIP3    H147653   3.846   0.280  16.502  0.9631 -0.5340 -0.1747
 8746TIP3    H247654   3.984   0.338  16.476  0.1002  1.8666  0.3190
 8747TIP3   OH247655   6.182   5.300  11.213  0.7769 -0.3567 -0.7892
 8747TIP3    H147656   6.252   5.335  11.267  1.5128 -1.1796 -1.1936
 8747TIP3    H247657   6.158   5.217  11.253 -0.5275  0.2654 -0.2005
 8748TIP3   OH247658   2.385   6.708   3.776 -0.0412  0.2187  0.1249
 8748TIP3    H147659   2.330   6.640   3.737  2.5009 -3.1767  1.9149
 8748TIP3    H247660   2.405   6.767   3.703 -0.4549 -2.3125 -2.2129
 8749TIP3   OH247661   4.385   5.262  13.807 -0.4103 -0.0609 -0.4152
 8749TIP3    H147662   4.478   5.243  13.819 -0.4365  1.1674  2.9392
 8749TIP3    H247663   4.340   5.199  13.863 -1.5767 -0.0924 -1.3428
 8750TIP3   OH247664   5.674   4.019  11.373  0.4208  0.1979 -0.0320
 8750TIP3    H147665   5.616   4.037  11.446 -0.0644 -0.1829 -0.3214
 8750TIP3    H247666   5.733   3.951  11.405 -0.8111 -1.1369 -0.4944
 8751TIP3   OH247667   5.433   5.136   2.865 -0.1188  0.4541  0.3520
 8751TIP3    H147668   5.526   5.115   2.856 -0.0416  0.2540  1.4395
 8751TIP3    H247669   5.410   5.179   2.783  0.3209 -1.6174 -0.9212
 8752TIP3   OH247670   5.968   3.560  11.838  0.6537 -0.0985 -0.1749
 8752TIP3    H147671   6.003   3.632  11.785  1.6084  0.8912  1.7142
 8752TIP3    H247672   5.885   3.538  11.796  2.1890 -0.6763 -3.1959
 8753TIP3   OH247673   2.703   2.577   3.211  0.0514  0.5986 -0.0445
 8753TIP3    H147674   2.794   2.593   3.238 -0.0374  1.3934 -0.1724
 8753TIP3    H247675   2.709   2.542   3.123  0.1781  3.1743 -1.1499
 8754TIP3   OH247676   5.029   0.990   4.843 -0.4916 -0.6036 -0.0076
 8754TIP3    H147677   5.070   1.005   4.928 -1.3334  0.0147  0.3034
 8754TIP3    H247678   5.076   0.916   4.806  0.9814  0.1459  0.2777
 8755TIP3   OH247679   3.659   3.039   0.662  0.5564  0.3549 -0.4595
 8755TIP3    H147680   3.650   2.977   0.590 -2.3917 -2.5089  2.1160
 8755TIP3    H247681   3.583   3.096   0.655 -1.3226 -1.6719  1.6991
 8756TIP3   OH247682   5.789   2.293   1.776 -0.2097  0.9342 -0.1074
 8756TIP3    H147683   5.878   2.266   1.797 -0.5013 -1.3155 -1.4653
 8756TIP3    H247684   5.779   2.378   1.819  2.2817  0.8569  0.7759
 8757TIP3   OH247685   3.872   4.421  13.283 -0.1089 -0.1967  0.5395
 8757TIP3    H147686   3.881   4.375  13.200  0.6510 -1.3452  1.2347
 8757TIP3    H247687   3.844   4.509  13.258 -1.2866 -0.9121 -0.8445
 8758TIP3   OH247688   1.686   4.034   5.751  0.0465 -0.3502 -0.4400
 8758TIP3    H147689   1.686   4.029   5.846  1.4418  1.3866 -0.2949
 8758TIP3    H247690   1.627   4.107   5.731 -1.4594 -1.6729 -1.0334
 8759TIP3   OH247691   0.817   5.238   2.999 -0.4590 -0.2015  0.0143
 8759TIP3    H147692   0.777   5.314   3.040 -0.3508 -0.5704  0.8158
 8759TIP3    H247693   0.746   5.174   2.992 -0.1346 -0.7039  1.0629
 8760TIP3   OH247694   0.090   6.155   3.681 -0.6860  0.0053 -0.0019
 8760TIP3    H147695   0.019   6.160   3.617 -1.0257 -1.8819  0.1727
 8760TIP3    H247696   0.128   6.068   3.668 -0.5104 -0.2767  2.0951
 8761TIP3   OH247697   5.582   6.495  16.774  0.3583 -0.4185 -0.6292
 8761TIP3    H147698   5.616   6.469  16.688  2.1144 -0.8933  0.1397
 8761TIP3    H247699   5.487   6.493  16.764  0.4564 -2.6694 -1.9505
 8762TIP3   OH247700   2.739   1.428   3.100  0.8135 -0.1744  0.3195
 8762TIP3    H147701   2.733   1.357   3.036 -0.2246 -0.7595  1.0319
 8762TIP3    H247702   2.715   1.388   3.183 -0.4487  1.1332  0.6319
 8763TIP3   OH247703   5.952   4.800   2.278  0.5739 -0.1955  0.3805
 8763TIP3    H147704   5.930   4.707   2.285 -1.5749  0.2993  0.7907
 8763TIP3    H247705   5.924   4.825   2.190 -1.5728  0.6800  1.2570
 8764TIP3   OH247706   5.956   6.525   5.187 -1.0273  0.4468  0.8060
 8764TIP3    H147707   6.044   6.493   5.170 -0.8544  1.6459 -0.7678
 8764TIP3    H247708   5.898   6.451   5.168 -0.5406  0.5230 -1.1408
 8765TIP3   OH247709   6.080   3.048  13.747 -0.4587  1.0362 -0.0486
 8765TIP3    H147710   6.115   3.060  13.835  1.7274 -0.0350 -0.6980
 8765TIP3    H247711   6.157   3.029  13.693 -1.9520 -0.3438 -1.8239
 8766TIP3   OH247712   0.607   0.149   0.626  0.3300  0.0201 -0.1268
 8766TIP3    H147713   0.546   0.079   0.602 -1.5674  2.1176 -1.9190
 8766TIP3    H247714   0.557   0.205   0.685  0.9265  1.1059 -0.6112
 8767TIP3   OH247715   2.546   3.337  16.556 -0.2582 -0.4969  0.5380
 8767TIP3    H147716   2.528   3.264  16.496 -1.0192  0.9016 -1.0344
 8767TIP3    H247717   2.641   3.347  16.553 -0.2956 -0.3727 -0.5649
 8768TIP3   OH247718   4.759   0.394  10.565 -0.2175  0.7904  0.5002
 8768TIP3    H147719   4.813   0.436  10.497  2.3801 -0.8200  1.4281
 8768TIP3    H247720   4.714   0.323  10.519 -1.2311  1.8337 -0.1826
 8769TIP3   OH247721   5.774   0.064   2.187 -0.6776 -0.4020 -0.2536
 8769TIP3    H147722   5.826  -0.008   2.223  0.6698 -0.5371 -2.3217
 8769TIP3    H247723   5.742   0.032   2.103  0.2591  1.4874 -1.4125
 8770TIP3   OH247724   2.961   6.225  14.427 -0.0281 -0.1076  0.5026
 8770TIP3    H147725   2.973   6.266  14.341 -1.9462 -1.4999 -0.4986
 8770TIP3    H247726   2.993   6.136  14.415  0.3908 -0.1030  1.4878
 8771TIP3   OH247727   0.613   5.348  14.423 -0.4434  0.3930 -0.4308
 8771TIP3    H147728   0.599   5.381  14.512  0.8630  1.4197 -0.5734
 8771TIP3    H247729   0.707   5.360  14.407 -0.6284  0.1317 -1.9053
 8772TIP3   OH247730   4.614   0.600  13.425 -0.4962 -0.6400 -0.1190
 8772TIP3    H147731   4.684   0.535  13.416 -0.8442 -0.9809 -0.3652
 8772TIP3    H247732   4.589   0.595  13.518  0.1820 -0.1191  0.1052
 8773TIP3   OH247733   3.853   0.040   6.552 -0.0285 -0.3287  0.2325
 8773TIP3    H147734   3.884   0.065   6.465 -0.1354 -0.2314  0.2213
 8773TIP3    H247735   3.760   0.062   6.551  0.2158  0.7621  0.7793
 8774TIP3   OH247736   5.291   4.305   1.691 -0.5442 -0.3398  0.4515
 8774TIP3    H147737   5.195   4.307   1.685 -0.5245 -1.5856 -0.7269
 8774TIP3    H247738   5.320   4.331   1.604  0.1755 -0.6274  0.6036
 8775TIP3   OH247739   0.863   1.471   0.504 -0.0914 -0.1189 -0.4335
 8775TIP3    H147740   0.813   1.552   0.510 -1.2841 -0.9340  1.5204
 8775TIP3    H247741   0.945   1.490   0.549 -1.1456 -0.4780  1.7941
 8776TIP3   OH247742   2.141   5.407  11.506 -0.5903  0.4292 -0.2401
 8776TIP3    H147743   2.115   5.474  11.570 -0.3294  0.7072 -0.4177
 8776TIP3    H247744   2.234   5.392  11.524 -0.8096 -0.4029  0.2545
 8777TIP3   OH247745   2.852   5.588   5.343  0.5480  0.3178 -0.3267
 8777TIP3    H147746   2.838   5.507   5.392  3.3369 -0.5804 -0.8587
 8777TIP3    H247747   2.790   5.584   5.270  0.5754 -1.2655 -0.2818
 8778TIP3   OH247748   5.620   3.783   4.447 -0.2111 -0.3998 -0.5114
 8778TIP3    H147749   5.681   3.807   4.377  1.9976 -1.6210  0.8682
 8778TIP3    H247750   5.584   3.867   4.477  1.0095  0.4063 -1.2082
 8779TIP3   OH247751   5.693   1.345  12.552 -0.4390  0.2148  0.7652
 8779TIP3    H147752   5.608   1.302  12.538 -0.7876  1.4417 -1.3723
 8779TIP3    H247753   5.749   1.276  12.589 -0.6575 -2.5580 -3.3559
 8780TIP3   OH247754   4.840   6.419  15.938  0.1996 -0.0841 -0.0668
 8780TIP3    H147755   4.773   6.445  16.002 -0.0498 -1.4412  0.2485
 8780TIP3    H247756   4.793   6.418  15.854 -0.4337 -1.8178  0.2612
 8781TIP3   OH247757   1.618   6.641   1.836 -0.0674 -0.0926 -0.0314
 8781TIP3    H147758   1.582   6.617   1.921 -3.6313  1.4521 -0.9604
 8781TIP3    H247759   1.587   6.572   1.776 -0.3000  0.5302 -0.6371
 8782TIP3   OH247760   3.316   2.439  13.113  0.0903  0.6363 -0.4670
 8782TIP3    H147761   3.370   2.418  13.037  0.0562  0.1232 -0.3557
 8782TIP3    H247762   3.266   2.359  13.130 -0.0248  0.7998 -0.0092
 8783TIP3   OH247763   4.628   1.453  15.420  0.3699 -0.1111 -0.0328
 8783TIP3    H147764   4.666   1.366  15.414 -0.4176 -0.4216 -0.7167
 8783TIP3    H247765   4.546   1.447  15.371 -1.3119  0.1348  2.5303
 8784TIP3   OH247766   0.596   5.552  15.176  0.3244 -0.0937  0.4264
 8784TIP3    H147767   0.688   5.565  15.197  0.3403  0.7700 -0.1398
 8784TIP3    H247768   0.578   5.462  15.205  1.2499 -0.1648  0.8351
 8785TIP3   OH247769   3.054   6.563   5.740  0.2193  0.0312  0.9974
 8785TIP3    H147770   3.054   6.642   5.686  2.8242 -0.5260  0.0365
 8785TIP3    H247771   3.048   6.595   5.830 -3.5297  1.0109  0.5698
 8786TIP3   OH247772   2.292   2.730   2.826 -0.3186  0.7832 -0.7757
 8786TIP3    H147773   2.217   2.764   2.876 -1.3629  0.1237 -1.8354
 8786TIP3    H247774   2.300   2.791   2.752  0.6568  1.2581 -0.2822
 8787TIP3   OH247775   0.261   4.500   0.368 -0.0601  0.2966  0.4386
 8787TIP3    H147776   0.251   4.594   0.380  0.6515  0.2982  1.0790
 8787TIP3    H247777   0.334   4.476   0.424 -0.1207 -0.6137  0.1483
 8788TIP3   OH247778   3.482   1.613   5.845 -0.2129  0.0624  0.5247
 8788TIP3    H147779   3.456   1.610   5.938  0.5554  2.0992  0.8498
 8788TIP3    H247780   3.487   1.706   5.824  1.5647 -0.3069 -1.0114
 8789TIP3   OH247781   1.521   1.030   5.612 -0.0691 -0.0616  0.2380
 8789TIP3    H147782   1.432   1.057   5.636 -0.0005 -0.8710  1.5347
 8789TIP3    H247783   1.576   1.104   5.639 -0.3331  0.4351 -0.5530
 8790TIP3   OH247784   2.924   3.941   4.320 -0.5389  0.4628  0.1497
 8790TIP3    H147785   2.860   3.923   4.251 -0.0232  0.8393 -0.4304
 8790TIP3    H247786   2.921   3.864   4.376 -0.6168 -0.0527 -0.5594
 8791TIP3   OH247787   0.282   2.969   3.941 -0.3047  0.0745  0.2613
 8791TIP3    H147788   0.187   2.968   3.925 -0.1908 -0.7570 -0.3684
 8791TIP3    H247789   0.319   2.912   3.874  0.6495  0.3731  0.5181
 8792TIP3   OH247790   5.713   2.208  16.947  0.1072  0.1985 -0.5265
 8792TIP3    H147791   5.741   2.230  17.036  0.7299 -2.5085  0.0263
 8792TIP3    H247792   5.649   2.275  16.924 -0.0151  0.9910  1.9352
 8793TIP3   OH247793   4.797   6.069   1.080 -0.1775 -0.1455  0.6569
 8793TIP3    H147794   4.837   6.072   0.993 -1.5863  2.6198 -0.0169
 8793TIP3    H247795   4.871   6.053   1.140  0.8140 -2.1161 -0.9798
 8794TIP3   OH247796   1.721   0.826  14.276  0.1642 -0.4581  0.3371
 8794TIP3    H147797   1.796   0.833  14.217 -1.5270 -1.1142 -2.0409
 8794TIP3    H247798   1.697   0.733  14.272 -1.1159 -0.1527  0.5523
 8795TIP3   OH247799   2.815   3.547   6.192  0.6512  0.4421  0.2244
 8795TIP3    H147800   2.893   3.519   6.240  0.4178 -0.6091  0.0032
 8795TIP3    H247801   2.801   3.637   6.221  0.6353 -0.0858  1.9893
 8796TIP3   OH247802   1.891   1.750   4.016  0.4017 -0.1678 -0.1304
 8796TIP3    H147803   1.973   1.755   4.065  0.7017 -2.9743 -0.2184
 8796TIP3    H247804   1.832   1.810   4.062  1.6785 -0.1682  1.5906
 8797TIP3   OH247805   6.306   0.303   0.539 -0.2082 -0.0209  0.3738
 8797TIP3    H147806   6.380   0.260   0.582  0.0458 -0.7127 -0.7129
 8797TIP3    H247807   6.315   0.280   0.447 -0.9385  1.1292 -0.0039
 8798TIP3   OH247808   2.744   6.565   0.983 -0.3122 -0.0158  0.1885
 8798TIP3    H147809   2.740   6.625   0.908 -0.1525  1.2789  1.1937
 8798TIP3    H247810   2.660   6.519   0.981 -0.0071 -0.5949 -1.2336
 8799TIP3   OH247811   6.087   0.218   5.907 -0.3663 -0.2897  0.4633
 8799TIP3    H147812   6.168   0.230   5.957  1.4239 -1.7536 -1.8734
 8799TIP3    H247813   6.067   0.125   5.916 -0.3267 -0.4588 -1.0058
 8800TIP3   OH247814   4.369   1.635   5.260  0.3561 -0.1917  0.0184
 8800TIP3    H147815   4.366   1.676   5.174 -0.9373  1.6649  0.8839
 8800TIP3    H247816   4.402   1.704   5.319 -0.7261 -0.7505  1.3371
 8801TIP3   OH247817   0.148   5.960   3.067  0.1232 -0.0481  0.5714
 8801TIP3    H147818   0.119   5.875   3.036  1.2286  0.2506 -1.4491
 8801TIP3    H247819   0.162   5.948   3.161  1.3968 -2.4321  0.1500
 8802TIP3   OH247820   0.336   6.468   3.043  0.0453  0.2982  0.6040
 8802TIP3    H147821   0.306   6.394   3.096 -0.7263  0.4389  0.3670
 8802TIP3    H247822   0.351   6.538   3.107  2.6305 -0.5843  1.0912
 8803TIP3   OH247823   2.068   3.707   4.619  0.3849  0.1403  0.1456
 8803TIP3    H147824   2.034   3.649   4.687  2.7820 -0.3692  1.0088
 8803TIP3    H247825   2.119   3.649   4.562  1.0768  1.0770 -0.1985
 8804TIP3   OH247826   3.590   6.258   2.843  0.2910  0.0854 -0.1786
 8804TIP3    H147827   3.611   6.309   2.764 -1.2734  0.3152 -0.4802
 8804TIP3    H247828   3.526   6.193   2.813 -0.8032  0.5668  0.9853
 8805TIP3   OH247829   4.985   3.623   3.547 -1.0079  0.2321 -0.7920
 8805TIP3    H147830   5.033   3.553   3.501 -1.7660 -0.2362 -0.8880
 8805TIP3    H247831   5.016   3.617   3.637  0.1376  0.8434 -1.1205
 8806TIP3   OH247832   2.852   2.363   5.152  0.1120 -0.1028  0.3240
 8806TIP3    H147833   2.761   2.386   5.168  0.9710  1.8846  3.2125
 8806TIP3    H247834   2.864   2.378   5.058 -2.3616  0.1869 -0.0114
 8807TIP3   OH247835   4.413   4.025   3.363 -0.5120 -0.2912 -0.4777
 8807TIP3    H147836   4.462   4.077   3.300 -0.2499 -1.1494 -0.9983
 8807TIP3    H247837   4.477   4.001   3.429 -0.3394 -0.9583 -0.8753
 8808TIP3   OH247838   3.542   4.693  15.760  0.4141 -0.0172 -0.5092
 8808TIP3    H147839   3.638   4.701  15.759  0.3164  1.3538 -0.7730
 8808TIP3    H247840   3.513   4.744  15.685 -0.5441 -0.3581 -0.3840
 8809TIP3   OH247841   6.555   4.342  16.572 -0.0559  0.3989  0.2575
 8809TIP3    H147842   6.553   4.414  16.635 -2.5279  0.3726  0.3181
 8809TIP3    H247843   6.601   4.271  16.618 -2.8255 -0.0343  2.6384
 8810TIP3   OH247844   3.340   1.927   0.421 -0.2348  0.1399 -0.4297
 8810TIP3    H147845   3.324   2.016   0.391 -3.9842  0.0804  0.9537
 8810TIP3    H247846   3.390   1.938   0.502 -2.4925  1.2461  0.9174
 8811TIP3   OH247847   2.984   6.287  17.183 -0.6043 -0.4548 -0.2587
 8811TIP3    H147848   2.960   6.230  17.110  0.7546  0.2561 -1.3026
 8811TIP3    H247849   3.001   6.227  17.256  0.4900 -1.3884 -1.2454
 8812TIP3   OH247850   1.781   2.299   6.194 -0.1002  0.2933  0.0178
 8812TIP3    H147851   1.693   2.285   6.230  0.3367 -0.7686  0.7003
 8812TIP3    H247852   1.809   2.213   6.164 -0.0432  0.9625 -1.9971
 8813TIP3   OH247853   3.991   3.359  16.646 -0.2021 -0.4896 -0.1914
 8813TIP3    H147854   4.076   3.316  16.645 -0.2952 -0.7752  1.6859
 8813TIP3    H247855   4.011   3.450  16.670 -0.4242 -0.5695  0.3010
 8814TIP3   OH247856   0.421   2.587   3.969 -0.3624 -0.0963  0.4732
 8814TIP3    H147857   0.474   2.655   4.010 -0.7361  0.0560  0.7138
 8814TIP3    H247858   0.388   2.535   4.043  0.5871 -1.0459  0.2498
 8815TIP3   OH247859   2.855   3.060   4.027 -0.1226 -0.4601 -0.6347
 8815TIP3    H147860   2.876   3.058   4.120 -2.2026 -0.8199 -0.1154
 8815TIP3    H247861   2.866   2.970   3.997 -1.2828 -0.7467 -0.2513
 8816TIP3   OH247862   4.993   4.938   5.864  0.3836  0.9391 -0.4691
 8816TIP3    H147863   4.985   4.842   5.860 -1.3948  0.9592  1.1621
 8816TIP3    H247864   5.088   4.954   5.860  0.7635 -0.9496 -0.0352
 8817TIP3   OH247865   0.814   1.767   1.588 -0.2990  0.0550 -0.4820
 8817TIP3    H147866   0.825   1.807   1.502 -0.1445 -0.9696 -0.9456
 8817TIP3    H247867   0.902   1.769   1.627 -0.2419 -0.0654 -0.6049
 8818TIP3   OH247868   6.442   4.299  11.719  0.3941  0.6628 -0.0282
 8818TIP3    H147869   6.392   4.366  11.672  1.0519  0.6642 -0.7474
 8818TIP3    H247870   6.513   4.276  11.659  1.4637  0.8999  1.1058
 8819TIP3   OH247871   5.685   2.862  13.128  0.3469 -1.1142  0.0317
 8819TIP3    H147872   5.690   2.770  13.154  0.3453 -0.8326  1.0754
 8819TIP3    H247873   5.733   2.866  13.045  0.4206 -2.0390  0.0207
 8820TIP3   OH247874   4.356   0.940  13.928 -0.7987 -0.2971 -0.4301
 8820TIP3    H147875   4.317   0.875  13.986 -0.7063  0.6220  0.6965
 8820TIP3    H247876   4.450   0.924  13.932 -0.7481  0.1037  0.1140
 8821TIP3   OH247877   2.513   6.038   4.814 -0.2725  0.4213 -0.1404
 8821TIP3    H147878   2.456   5.963   4.794  0.0954 -0.5263  2.0567
 8821TIP3    H247879   2.458   6.115   4.801 -0.8451 -0.2308 -1.8579
 8822TIP3   OH247880   3.068   5.968  14.327  0.3608 -0.2930 -0.5443
 8822TIP3    H147881   3.112   5.907  14.386  3.0339  2.4394  0.5031
 8822TIP3    H247882   3.134   5.989  14.261 -1.2592 -0.2102 -2.2040
 8823TIP3   OH247883   4.796   4.987  15.487  0.8544 -0.0654 -0.0931
 8823TIP3    H147884   4.889   5.003  15.474  0.8896 -0.2532 -0.0682
 8823TIP3    H247885   4.787   4.966  15.580  1.1471 -2.5468 -0.5745
 8824TIP3   OH247886   2.284   5.135   1.863  0.2531 -0.5358 -0.3162
 8824TIP3    H147887   2.254   5.092   1.783 -1.0615 -0.9491  0.3604
 8824TIP3    H247888   2.379   5.119   1.866  0.9662  2.1590 -3.3503
 8825TIP3   OH247889   0.545   2.329  16.485  0.1669 -0.3880  0.2934
 8825TIP3    H147890   0.546   2.416  16.525 -0.0469 -0.0897 -0.3534
 8825TIP3    H247891   0.461   2.323  16.442 -1.1129 -2.0441  2.7703
 8826TIP3   OH247892   3.729   0.474  13.697 -0.3563  0.1879 -0.1878
 8826TIP3    H147893   3.802   0.526  13.730 -1.6796  1.0348  1.6222
 8826TIP3    H247894   3.666   0.538  13.665 -1.3191 -0.3505  0.5471
 8827TIP3   OH247895   2.250   0.975   0.777 -0.0056 -0.6482 -0.0380
 8827TIP3    H147896   2.243   0.965   0.872 -0.4291  1.4452  0.1888
 8827TIP3    H247897   2.341   0.954   0.757  0.8664  1.5471  1.2543
 8828TIP3   OH247898   2.696   0.231   2.358 -0.0055 -0.3588 -0.4468
 8828TIP3    H147899   2.783   0.266   2.375 -0.3247  1.0295 -1.4626
 8828TIP3    H247900   2.681   0.247   2.265 -2.5785  2.5626  0.2694
 8829TIP3   OH247901   6.327   2.232   0.682  0.6413  0.3297  0.0973
 8829TIP3    H147902   6.306   2.230   0.588  0.0206 -0.3692  0.2434
 8829TIP3    H247903   6.242   2.219   0.725  1.1895 -1.4618  0.7253
 8830TIP3   OH247904   1.723   2.022  12.590 -0.1502  0.4090  0.3889
 8830TIP3    H147905   1.713   1.958  12.519 -0.6711 -0.6449  1.3792
 8830TIP3    H247906   1.666   2.095  12.565  0.0102  0.2512 -0.4816
 8831TIP3   OH247907   1.108   0.826   6.161 -0.5157 -0.0772  0.3913
 8831TIP3    H147908   1.201   0.833   6.180 -0.2479 -1.6640 -0.1644
 8831TIP3    H247909   1.082   0.913   6.131  1.2300 -0.1124 -1.3552
 8832TIP3   OH247910   0.991   1.019   4.055 -0.1684 -0.0475 -0.3273
 8832TIP3    H147911   1.009   0.947   3.995 -0.5215 -0.3401 -0.0858
 8832TIP3    H247912   1.042   0.997   4.134  2.4646  1.6572 -1.4102
 8833TIP3   OH247913   1.895   5.943   0.599  0.4964  0.5218  0.4358
 8833TIP3    H147914   1.964   5.945   0.532  0.1942  1.9961  0.1338
 8833TIP3    H247915   1.837   6.015   0.575 -0.0650  0.5542  1.8251
 8834TIP3   OH247916   5.698   6.429   6.240 -0.0160 -1.0792 -0.5697
 8834TIP3    H147917   5.770   6.450   6.301  1.0401 -0.1255 -2.0682
 8834TIP3    H247918   5.626   6.486   6.267  0.3347 -0.8893 -0.0176
 8835TIP3   OH247919   2.395   5.971   2.705  0.3796  0.1281 -0.5137
 8835TIP3    H147920   2.363   6.043   2.759  0.7864 -1.2857  1.7379
 8835TIP3    H247921   2.463   6.010   2.650  0.8730  1.3970  0.9423
 8836TIP3   OH247922   1.449   4.078  14.486  0.6028 -0.3044 -0.1068
 8836TIP3    H147923   1.504   4.027  14.545  0.2690 -0.5771 -0.0270
 8836TIP3    H247924   1.367   4.029  14.482 -0.2577  0.9915  1.1139
 8837TIP3   OH247925   3.408   2.821   1.499 -0.3071 -0.4657 -0.3240
 8837TIP3    H147926   3.462   2.846   1.424 -1.8450  0.4005 -1.2061
 8837TIP3    H247927   3.377   2.904   1.534  1.2798 -0.7836  2.0309
 8838TIP3   OH247928   4.417   3.884  11.564 -0.0631  0.3811  0.1972
 8838TIP3    H147929   4.489   3.932  11.605  0.3430  1.3455 -1.5539
 8838TIP3    H247930   4.341   3.942  11.576 -0.3768 -0.2343  1.2720
 8839TIP3   OH247931   5.404   1.539  15.171  0.4321  0.0310 -0.3080
 8839TIP3    H147932   5.444   1.565  15.254  1.8296 -0.4695 -0.7923
 8839TIP3    H247933   5.310   1.545  15.186  0.6788  0.6692  1.0732
 8840TIP3   OH247934   6.193   5.750   2.917  0.9788  0.3065 -0.1449
 8840TIP3    H147935   6.209   5.709   2.831 -0.3895 -2.4260  0.7684
 8840TIP3    H247936   6.211   5.843   2.903 -1.2391  0.4092 -4.0135
 8841TIP3   OH247937   4.116   4.991   0.717  0.4575  0.1612  0.4209
 8841TIP3    H147938   4.203   4.989   0.677 -0.0489 -0.9813 -0.6995
 8841TIP3    H247939   4.085   5.081   0.702  1.3554  0.5208  0.6564
 8842TIP3   OH247940   3.322   2.510  11.335  0.2716  0.0811 -0.1134
 8842TIP3    H147941   3.286   2.577  11.393 -2.7426 -0.7141 -0.9129
 8842TIP3    H247942   3.343   2.556  11.254  1.8533  0.6829  0.6010
 8843TIP3   OH247943   3.219   2.846  15.337 -0.0410  0.0787 -0.4980
 8843TIP3    H147944   3.230   2.843  15.242 -1.1746 -0.5864 -0.6209
 8843TIP3    H247945   3.236   2.937  15.361  0.8019  0.1351 -1.2518
 8844TIP3   OH247946   0.194   6.043   5.805  0.8048  0.2924 -0.0812
 8844TIP3    H147947   0.187   5.954   5.770 -0.7177  0.8495 -1.2706
 8844TIP3    H247948   0.155   6.038   5.892  1.3212 -0.3176  0.1279
 8845TIP3   OH247949   2.375   3.857  12.823 -0.3335 -0.2669 -0.3396
 8845TIP3    H147950   2.394   3.906  12.743 -0.2753 -1.5342 -1.1295
 8845TIP3    H247951   2.297   3.806  12.803 -0.1675 -0.8053  0.3123
 8846TIP3   OH247952   2.484   4.339   1.906 -0.8568  0.2524  0.6511
 8846TIP3    H147953   2.400   4.302   1.881 -0.7977 -0.3122  1.2778
 8846TIP3    H247954   2.548   4.271   1.884 -0.6669  0.2919  1.0776
 8847TIP3   OH247955   4.087   4.891   1.499  0.1891  0.8019 -0.3184
 8847TIP3    H147956   4.169   4.940   1.493  1.1538 -0.6979  0.1941
 8847TIP3    H247957   4.058   4.881   1.409  1.2363  0.2822 -0.6160
 8848TIP3   OH247958   5.231   4.839  11.305  0.1652  0.3235 -0.1584
 8848TIP3    H147959   5.325   4.829  11.291  0.1397  0.3213 -0.3289
 8848TIP3    H247960   5.207   4.765  11.361  0.6882  1.5930  1.8388
 8849TIP3   OH247961   4.911   3.454  13.662 -0.2307  0.3463 -0.2738
 8849TIP3    H147962   4.974   3.512  13.705 -0.1225  0.6494 -0.8368
 8849TIP3    H247963   4.909   3.483  13.571 -1.8496  0.9178 -0.0794
 8850TIP3   OH247964   4.265   0.951  12.795 -0.4437 -0.7786 -0.1904
 8850TIP3    H147965   4.335   0.886  12.807 -0.0496 -0.5234 -1.0003
 8850TIP3    H247966   4.298   1.030  12.838 -0.1520 -0.6085 -0.7192
 8851TIP3   OH247967   5.035   1.708   1.616  0.0479 -0.5275 -0.3390
 8851TIP3    H147968   4.955   1.698   1.565  0.0223 -1.3489 -0.1567
 8851TIP3    H247969   5.106   1.690   1.554  0.0106 -1.7066 -0.0663
 8852TIP3   OH247970   3.108   5.072   4.990 -0.4868  0.1744 -0.8319
 8852TIP3    H147971   3.134   5.155   4.950  1.5501  0.5175  1.0198
 8852TIP3    H247972   3.186   5.016   4.984 -1.1075 -0.8157 -0.0774
 8853TIP3   OH247973   3.381   2.725   4.076  0.3401  0.4265 -0.3255
 8853TIP3    H147974   3.378   2.696   3.985  2.0682 -0.0270 -0.2726
 8853TIP3    H247975   3.352   2.816   4.073  1.2328  0.7060 -1.4964
 8854TIP3   OH247976   3.622   3.684   2.341  0.1922 -0.2236 -0.0595
 8854TIP3    H147977   3.698   3.626   2.337  0.9372  0.6753  0.5413
 8854TIP3    H247978   3.602   3.692   2.434 -0.9624 -0.8331 -0.2369
 8855TIP3   OH247979   2.007   5.936   0.333  0.0334 -0.1344 -0.7873
 8855TIP3    H147980   1.957   6.018   0.324  2.0058  1.2545  0.2370
 8855TIP3    H247981   2.054   5.927   0.251 -3.0207 -2.4140 -2.5299
 8856TIP3   OH247982   3.695   1.527   5.346  0.3627  0.4183 -0.4584
 8856TIP3    H147983   3.727   1.555   5.432  0.1372 -0.7798  0.0357
 8856TIP3    H247984   3.769   1.483   5.306 -0.1846 -1.0568  0.0843
 8857TIP3   OH247985   2.383   5.411   3.920  0.1455  0.0271  0.0900
 8857TIP3    H147986   2.395   5.318   3.940  0.9687 -0.0674 -0.8070
 8857TIP3    H247987   2.289   5.426   3.933  0.2243 -0.5705  1.6674
 8858TIP3   OH247988   6.019   3.036   2.669  0.2053 -0.1479  0.1847
 8858TIP3    H147989   6.026   2.954   2.621  0.5809 -1.3377  2.1282
 8858TIP3    H247990   6.094   3.035   2.728 -1.0169  0.4685  1.8359
 8859TIP3   OH247991   2.290   4.290  15.210  0.2613  0.4819  0.5674
 8859TIP3    H147992   2.225   4.309  15.278  0.4437  0.6896  0.6856
 8859TIP3    H247993   2.332   4.374  15.193  0.3287  0.3973  0.3127
 8860TIP3   OH247994   6.025   3.955  12.699 -0.4210 -0.0987  0.3956
 8860TIP3    H147995   5.971   3.934  12.623  0.8928  0.8144 -0.8402
 8860TIP3    H247996   5.985   4.033  12.736 -0.6144 -0.0981  0.1868
 8861TIP3   OH247997   5.747   2.250   0.083  0.1211  0.4037  0.2221
 8861TIP3    H147998   5.708   2.226   0.167 -0.7972  0.4325 -0.1829
 8861TIP3    H247999   5.673   2.278   0.029  0.4845 -0.8924 -1.0432
 8862TIP3   OH248000   3.080   3.100  16.705  0.0206  0.0090 -0.4679
 8862TIP3    H148001   3.060   3.179  16.755 -1.1189 -0.3894 -0.2677
 8862TIP3    H248002   2.999   3.048  16.708  0.6152 -0.9808 -0.9372
 8863TIP3   OH248003   5.751   5.409  12.445  0.0848  0.2631 -0.1444
 8863TIP3    H148004   5.724   5.355  12.520 -0.5662  2.9396  1.6699
 8863TIP3    H248005   5.844   5.428  12.461  0.3672 -0.4123 -0.8853
 8864TIP3   OH248006   2.460   0.342  14.502  0.0060  0.6131  0.7370
 8864TIP3    H148007   2.484   0.407  14.568  0.9862 -0.0907  1.0863
 8864TIP3    H248008   2.473   0.258  14.544  0.5296  0.1518 -0.3149
 8865TIP3   OH248009   5.902   6.131  15.961  0.1287  0.2377  0.2097
 8865TIP3    H148010   5.882   6.154  16.052  0.2824  1.8885 -0.1262
 8865TIP3    H248011   5.972   6.066  15.967  0.6550  0.8790  1.2865
 8866TIP3   OH248012   1.144   6.768   2.534  0.0692 -0.0666  0.5818
 8866TIP3    H148013   1.221   6.719   2.563  0.6932  1.3867  1.5241
 8866TIP3    H248014   1.086   6.702   2.498 -0.0743 -1.8773  3.7076
 8867TIP3   OH248015   5.311   2.735   4.678 -0.1240 -0.1996  0.4570
 8867TIP3    H148016   5.315   2.749   4.583  0.1345 -2.3401  0.0957
 8867TIP3    H248017   5.402   2.737   4.706 -0.0755 -1.0576  0.3865
 8868TIP3   OH248018   0.489   3.103   5.295  0.2750  0.3962 -0.2599
 8868TIP3    H148019   0.577   3.134   5.319 -0.3404  0.8774  1.5669
 8868TIP3    H248020   0.502   3.011   5.271  1.4725  0.8292 -1.3880
 8869TIP3   OH248021   4.307   4.549  14.430  0.4025 -0.1504  0.2855
 8869TIP3    H148022   4.339   4.584  14.347  0.6594 -1.3121 -0.1154
 8869TIP3    H248023   4.247   4.478  14.405  1.2681 -1.1849  1.0878
 8870TIP3   OH248024   1.775   1.709  13.687  0.1332  0.0181 -0.0446
 8870TIP3    H148025   1.815   1.714  13.600 -0.3639  0.2602 -0.2655
 8870TIP3    H248026   1.689   1.750  13.676  0.6672  1.4609  0.9276
 8871TIP3   OH248027   6.335   2.466  10.656 -0.3475  0.2007  0.8363
 8871TIP3    H148028   6.281   2.389  10.645 -0.0397  0.0792  0.1121
 8871TIP3    H248029   6.277   2.531  10.696 -0.9712  0.0143  0.2519
 8872TIP3   OH248030   1.314   1.390  16.525  0.0220  0.4149  0.4612
 8872TIP3    H148031   1.259   1.312  16.522 -0.7811  0.9957 -0.3478
 8872TIP3    H248032   1.371   1.382  16.448 -1.7654  1.8088 -1.0941
 8873TIP3   OH248033   4.184   1.356   2.953  0.3114 -0.5918  0.3940
 8873TIP3    H148034   4.209   1.396   3.036  1.9242 -1.2192  0.2452
 8873TIP3    H248035   4.117   1.414   2.917 -0.2512 -0.1985  2.0204
 8874TIP3   OH248036   3.369   2.838  14.032 -0.1781 -0.1316 -0.6389
 8874TIP3    H148037   3.388   2.820  14.124  0.3953 -1.2921 -0.9591
 8874TIP3    H248038   3.437   2.900  14.005  0.5518 -0.9056 -0.6386
 8875TIP3   OH248039   6.111   4.021   5.578 -0.1675 -0.4973  0.3396
 8875TIP3    H148040   6.041   3.960   5.554  0.2722 -0.4475 -1.2093
 8875TIP3    H248041   6.111   4.087   5.508  1.3236 -0.4280  0.3554
 8876TIP3   OH248042   1.739   6.721   3.535 -0.0726 -0.2607  0.7396
 8876TIP3    H148043   1.651   6.740   3.569 -1.5162  0.9554 -3.0890
 8876TIP3    H248044   1.787   6.803   3.547 -0.4281  0.0175  0.3218
 8877TIP3   OH248045   4.954   5.138  14.858  0.3343  0.1330  0.2535
 8877TIP3    H148046   4.897   5.190  14.915  0.4264  2.4064 -1.5623
 8877TIP3    H248047   5.019   5.100  14.917 -0.0355  1.6913  1.7622
 8878TIP3   OH248048   2.160   3.598  11.718  0.3113 -0.9699  0.0030
 8878TIP3    H148049   2.177   3.666  11.652  0.0409  0.1534  1.0622
 8878TIP3    H248050   2.076   3.621  11.756 -1.5973 -3.9358 -2.0323
 8879TIP3   OH248051   6.381   3.762  15.994  0.7586 -0.1639  0.2901
 8879TIP3    H148052   6.329   3.832  15.955  0.2205 -1.3338 -1.1908
 8879TIP3    H248053   6.317   3.702  16.031  1.0576 -1.2033 -0.8148
 8880TIP3   OH248054   3.648   6.465  16.021  0.1724 -0.4400  0.1829
 8880TIP3    H148055   3.650   6.417  15.938 -0.1912  0.5475 -0.4025
 8880TIP3    H248056   3.584   6.417  16.074  0.0149 -0.7733 -0.2978
 8881TIP3   OH248057   6.628   1.088   4.775 -0.0363 -0.4876  0.4913
 8881TIP3    H148058   6.666   1.032   4.708  0.1233  0.3390 -0.1222
 8881TIP3    H248059   6.544   1.048   4.795 -0.0860 -0.7406 -0.2149
 8882TIP3   OH248060   4.572   0.635   4.822  0.0386  0.4423 -0.0104
 8882TIP3    H148061   4.523   0.658   4.743  0.1298  0.5136 -0.0461
 8882TIP3    H248062   4.576   0.717   4.872  0.5898  0.5674 -0.2591
 8883TIP3   OH248063   1.939   2.863   5.055 -0.2431 -0.0139 -0.3010
 8883TIP3    H148064   1.982   2.947   5.040 -0.7274  0.0338 -1.5987
 8883TIP3    H248065   2.009   2.804   5.081  0.4833  0.2646 -1.5550
 8884TIP3   OH248066   2.120   2.235   5.405  0.3292 -0.0756 -0.0889
 8884TIP3    H148067   2.196   2.204   5.355 -0.4804  0.9355 -2.0626
 8884TIP3    H248068   2.073   2.155   5.429  0.0148 -0.6034 -2.2251
 8885TIP3   OH248069   0.628   6.582   1.608 -0.1672  0.2744 -0.0266
 8885TIP3    H148070   0.624   6.634   1.528  0.2225 -0.0437 -0.2576
 8885TIP3    H248071   0.720   6.555   1.614  0.4424  2.4773  1.9432
 8886TIP3   OH248072   4.524   2.258   4.151 -0.5767  0.6224 -0.1304
 8886TIP3    H148073   4.567   2.289   4.231 -0.9782 -2.0648  1.2597
 8886TIP3    H248074   4.482   2.336   4.114 -0.7431  1.9066  2.5212
 8887TIP3   OH248075   2.377   4.202   0.214 -0.3545 -0.8797 -1.0871
 8887TIP3    H148076   2.314   4.243   0.273 -1.1453 -1.9559 -1.1529
 8887TIP3    H248077   2.461   4.207   0.260 -0.9921 -1.9033  0.2425
 8888TIP3   OH248078   5.870   0.561  12.304  0.3240  0.3180  0.0345
 8888TIP3    H148079   5.878   0.496  12.234  1.1464 -0.7007  1.0332
 8888TIP3    H248080   5.833   0.513  12.378 -0.5511  1.3744  0.3079
 8889TIP3   OH248081   2.010   4.218  11.982  0.1915  0.2968 -0.0304
 8889TIP3    H148082   2.101   4.196  11.962  0.0153 -0.3583 -0.1344
 8889TIP3    H248083   2.009   4.313  11.987  0.9224  0.3033  0.1564
 8890TIP3   OH248084   1.889   0.554   2.714  0.0018 -0.6032 -0.1841
 8890TIP3    H148085   1.877   0.504   2.633  1.6000 -1.5132  0.0937
 8890TIP3    H248086   1.837   0.633   2.701 -0.3438 -1.0567 -1.8043
 8891TIP3   OH248087   4.486   5.352  16.143  0.0537  0.5618 -0.5741
 8891TIP3    H148088   4.504   5.285  16.077  0.1039 -1.1948  1.1407
 8891TIP3    H248089   4.572   5.389  16.164  0.4526 -0.9976  0.6431
 8892TIP3   OH248090   2.553   1.643   6.401  0.2005  0.0370 -0.1177
 8892TIP3    H148091   2.529   1.734   6.382 -2.0753 -0.4775  0.0160
 8892TIP3    H248092   2.649   1.644   6.406  0.4437  1.9008 -2.8522
 8893TIP3   OH248093   2.793   4.653   4.977 -0.6635 -0.4940  0.6257
 8893TIP3    H148094   2.852   4.624   4.906  0.3780 -2.3513  2.1506
 8893TIP3    H248095   2.814   4.746   4.988  0.0192 -0.4565 -0.6885
 8894TIP3   OH248096   0.042   4.348  13.396  0.7062  0.8537 -1.0470
 8894TIP3    H148097  -0.050   4.371  13.409  0.9350  0.8073  1.1068
 8894TIP3    H248098   0.052   4.340  13.302 -2.0557 -1.4453 -1.2792
 8895TIP3   OH248099   2.925   5.713  16.457 -0.3482 -0.5298 -0.1842
 8895TIP3    H148100   2.903   5.784  16.517 -1.3548 -0.3552 -0.7436
 8895TIP3    H248101   2.849   5.706  16.399  1.1562  0.2490 -2.3752
 8896TIP3   OH248102   1.857   6.282   2.420 -0.2036 -0.4333  0.1673
 8896TIP3    H148103   1.809   6.286   2.338  0.6659  2.0581 -0.3043
 8896TIP3    H248104   1.792   6.303   2.487 -0.4909 -0.5222 -0.0822
 8897TIP3   OH248105   3.220   5.166   3.762 -0.5476  0.4683 -0.3221
 8897TIP3    H148106   3.180   5.230   3.703 -0.8715  1.7902  1.2690
 8897TIP3    H248107   3.251   5.096   3.704 -0.0923  2.0907 -2.1304
 8898TIP3   OH248108   0.418   6.031   2.424  0.2084 -0.2715 -0.3264
 8898TIP3    H148109   0.359   6.105   2.413  1.0195  0.8972  2.3283
 8898TIP3    H248110   0.364   5.962   2.464 -0.5236 -1.1804 -2.7154
 8899TIP3   OH248111   4.512   4.453   4.999  0.2443 -0.0851 -0.2430
 8899TIP3    H148112   4.601   4.477   4.970  0.6603  1.5437  2.0498
 8899TIP3    H248113   4.516   4.358   5.012  1.9527  0.0430  0.5671
 8900TIP3   OH248114   6.032   4.322  14.344 -0.1862 -1.3159 -0.2218
 8900TIP3    H148115   6.076   4.407  14.338  0.7217 -1.5166  2.3528
 8900TIP3    H248116   5.997   4.307  14.256  1.2444  0.8331 -1.2493
 8901TIP3   OH248117   2.322   6.667   0.353  0.5981  0.0807 -0.4706
 8901TIP3    H148118   2.303   6.667   0.447 -0.4768 -1.0636 -0.6659
 8901TIP3    H248119   2.247   6.713   0.314  1.0639  0.5964 -0.7687
 8902TIP3   OH248120   4.847   2.393  14.249 -0.8173 -0.6937 -0.3312
 8902TIP3    H148121   4.939   2.383  14.272 -1.1136  1.2535  2.2941
 8902TIP3    H248122   4.800   2.359  14.325 -2.2195 -0.5778 -1.1197
 8903TIP3   OH248123   2.695   1.923   5.441  0.6646 -0.2549  0.7743
 8903TIP3    H148124   2.759   1.881   5.498  0.2485 -1.2416  0.5429
 8903TIP3    H248125   2.727   2.012   5.430  2.1359 -0.7900  0.4590
 8904TIP3   OH248126   5.479   2.252   5.788 -0.1065  0.4982 -0.0862
 8904TIP3    H148127   5.469   2.315   5.717  0.2047 -0.2593 -0.8183
 8904TIP3    H248128   5.489   2.305   5.867  0.5604  1.3624 -0.7488
 8905TIP3   OH248129   3.978   5.684  15.332 -0.2966 -0.0065  0.0209
 8905TIP3    H148130   3.928   5.647  15.404 -0.9142  1.0302  0.1415
 8905TIP3    H248131   3.991   5.612  15.271 -0.1537 -0.7833  0.9510
 8906TIP3   OH248132   0.327   6.032   5.113  0.0765  0.5547 -0.1830
 8906TIP3    H148133   0.402   5.994   5.158 -0.7212 -0.3769  0.3637
 8906TIP3    H248134   0.360   6.050   5.024  0.5930 -1.0086 -0.3314
 8907TIP3   OH248135   4.010   2.668   3.718 -0.5183 -0.0671 -0.3872
 8907TIP3    H148136   4.004   2.661   3.623 -1.7610  1.7971 -0.4990
 8907TIP3    H248137   4.039   2.581   3.747 -0.7491 -0.8630 -2.3971
 8908TIP3   OH248138   5.424   4.350  13.417  0.2702 -0.1915  0.1362
 8908TIP3    H148139   5.400   4.442  13.421 -0.1427 -0.2988  0.1611
 8908TIP3    H248140   5.348   4.304  13.452  0.3010 -0.5673 -0.2914
 8909TIP3   OH248141   6.542   4.753  14.286 -0.1131 -0.2990 -0.6825
 8909TIP3    H148142   6.558   4.832  14.338  0.1770 -0.7555 -0.0626
 8909TIP3    H248143   6.463   4.773  14.236  1.4183  1.3924 -2.5988
 8910TIP3   OH248144   1.001   2.588  14.385  0.0126  0.9388 -0.6919
 8910TIP3    H148145   1.014   2.507  14.433 -0.4188  0.5264 -1.2530
 8910TIP3    H248146   0.923   2.572  14.331 -0.5659  2.0001 -0.2115
 8911TIP3   OH248147   1.062   2.297  12.826  0.4724 -0.3570 -0.0631
 8911TIP3    H148148   1.053   2.384  12.786 -0.5190 -0.3507  0.1518
 8911TIP3    H248149   1.046   2.236  12.754  0.2271 -0.3527 -0.0141
 8912TIP3   OH248150   1.624   6.183   4.706  0.1541 -0.3603 -0.0376
 8912TIP3    H148151   1.610   6.254   4.769  1.4508 -0.6891  0.6695
 8912TIP3    H248152   1.619   6.103   4.758 -1.6941 -0.8675 -0.8956
 8913TIP3   OH248153   1.176   5.830  16.424 -0.4404 -0.3121  0.1684
 8913TIP3    H148154   1.247   5.767  16.415 -0.4690 -0.8294  2.6620
 8913TIP3    H248155   1.154   5.828  16.517 -0.5638  3.2534  0.3728
 8914TIP3   OH248156   0.532   4.709   1.121 -0.3177 -0.0831  0.4463
 8914TIP3    H148157   0.531   4.645   1.050 -0.8413  1.1815 -0.7330
 8914TIP3    H248158   0.529   4.657   1.201 -0.2396 -1.5297 -0.4655
 8915TIP3   OH248159   0.062   2.796  16.552 -0.0346 -0.1050  0.0627
 8915TIP3    H148160   0.108   2.728  16.503 -0.3517 -0.1792 -0.1322
 8915TIP3    H248161   0.111   2.876  16.533 -1.7528  0.4080 -2.6553
 8916TIP3   OH248162   4.344   4.270  13.325 -0.1303 -0.3949 -0.2138
 8916TIP3    H148163   4.371   4.312  13.243 -0.3166 -1.4765 -0.8570
 8916TIP3    H248164   4.263   4.225  13.303  0.5385 -1.8551  0.1786
 8917TIP3   OH248165   0.728   0.450  13.445  0.1282 -0.0398 -0.1170
 8917TIP3    H148166   0.812   0.411  13.423 -0.0135  0.1463 -1.0542
 8917TIP3    H248167   0.726   0.532  13.395 -0.1806  0.4667  0.7005
 8918TIP3   OH248168   2.709   0.666   5.359 -0.7855  0.5960  0.3081
 8918TIP3    H148169   2.622   0.693   5.330 -0.7233  0.4476 -0.0248
 8918TIP3    H248170   2.699   0.648   5.452 -1.2457  0.0017  0.1467
 8919TIP3   OH248171   5.626   3.596  12.479 -0.1884  0.3267 -0.2574
 8919TIP3    H148172   5.598   3.504  12.472 -4.4620  1.2745  1.1784
 8919TIP3    H248173   5.583   3.639  12.405 -0.2836  1.5428  0.4827
 8920TIP3   OH248174   3.568   4.722   5.711 -0.1983  0.0348  0.1061
 8920TIP3    H148175   3.541   4.780   5.783  0.8098  0.4201  0.1849
 8920TIP3    H248176   3.662   4.713   5.722 -0.4458 -2.5763  0.7778
 8921TIP3   OH248177   5.589   2.825   2.640 -0.1882 -0.2254 -0.0394
 8921TIP3    H148178   5.643   2.904   2.646  0.8513 -1.0206  2.7375
 8921TIP3    H248179   5.551   2.816   2.727 -1.0615 -2.2690 -0.5808
 8922TIP3   OH248180   1.648   6.143  17.218 -0.0462  0.2504  0.5686
 8922TIP3    H148181   1.613   6.106  17.136 -1.4770  0.6860  0.9456
 8922TIP3    H248182   1.713   6.079  17.247 -0.1162 -0.3291 -0.4869
 8923TIP3   OH248183   3.893   2.877  15.318  0.3267  0.2951  0.8098
 8923TIP3    H148184   3.865   2.966  15.340 -1.1047  0.1017 -0.0934
 8923TIP3    H248185   3.874   2.826  15.396 -0.5155  0.4467  0.7074
 8924TIP3   OH248186   6.456   5.131   2.081  0.0958 -0.2344  0.5750
 8924TIP3    H148187   6.461   5.042   2.116  2.4025 -0.6548 -0.6146
 8924TIP3    H248188   6.466   5.120   1.986  0.3524  1.2756  0.4035
 8925TIP3   OH248189   6.086   5.357  16.587 -0.7392  0.0496 -0.2149
 8925TIP3    H148190   6.096   5.333  16.495  0.1124  1.0846 -0.4123
 8925TIP3    H248191   6.155   5.309  16.632  0.5039  1.4933 -0.5073
 8926TIP3   OH248192   3.725   3.938  15.268  0.3531 -0.4033 -0.4597
 8926TIP3    H148193   3.640   3.902  15.293 -0.1464 -0.1227 -1.6765
 8926TIP3    H248194   3.739   3.908  15.178  0.6668  1.0601 -0.9441
 8927TIP3   OH248195   6.509   5.586   1.506 -0.4389  0.3933 -0.3321
 8927TIP3    H148196   6.570   5.570   1.578  0.3415  0.5850 -0.9419
 8927TIP3    H248197   6.423   5.593   1.549 -0.0805 -0.1476  0.5045
 8928TIP3   OH248198   3.907   5.067   4.360 -0.2420  0.3383  0.1784
 8928TIP3    H148199   3.890   4.987   4.410 -0.2989 -0.3688 -0.9269
 8928TIP3    H248200   3.830   5.122   4.375 -0.8562 -0.4087 -0.1545
 8929TIP3   OH248201   0.722   0.213  16.828 -0.1424  0.0991  0.0470
 8929TIP3    H148202   0.647   0.216  16.769  0.5401  2.0686 -0.7885
 8929TIP3    H248203   0.797   0.203  16.771  0.3473 -0.7092  0.8030
 8930TIP3   OH248204   3.104   5.510   0.031 -0.1909 -0.4210 -0.2039
 8930TIP3    H148205   3.085   5.571   0.103 -1.5212 -1.6655  0.5632
 8930TIP3    H248206   3.148   5.436   0.074 -1.9667 -1.6721 -0.4064
 8931TIP3   OH248207   4.115   0.675   0.375 -0.1491  0.2212  0.3435
 8931TIP3    H148208   4.113   0.757   0.326  0.1600  0.8168  1.2936
 8931TIP3    H248209   4.208   0.653   0.381 -0.3071 -1.4055 -1.7939
 8932TIP3   OH248210   0.797   0.663   1.124 -0.3117 -0.0833  0.3973
 8932TIP3    H148211   0.846   0.722   1.067 -0.4447 -0.5910 -0.2591
 8932TIP3    H248212   0.759   0.599   1.064  0.0426 -0.9858  1.1196
 8933TIP3   OH248213   1.895   5.109  11.144  0.2640  0.0643 -0.0644
 8933TIP3    H148214   1.891   5.205  11.150  0.8399  0.0580  0.5284
 8933TIP3    H248215   1.852   5.089  11.061  1.4881  0.9474 -0.9537
 8934TIP3   OH248216   0.262   0.465   4.806 -0.1091  0.1650 -0.1875
 8934TIP3    H148217   0.275   0.371   4.796 -0.8163  0.0512 -0.0965
 8934TIP3    H248218   0.325   0.492   4.872 -0.9628 -0.5368  0.9451
 8935TIP3   OH248219   6.713   1.987   3.203 -0.0416  0.3135  0.0321
 8935TIP3    H148220   6.766   1.908   3.212  0.1439  0.0709 -2.4910
 8935TIP3    H248221   6.715   2.027   3.289  1.9375 -1.1444  0.7340
 8936TIP3   OH248222   3.902   3.430  15.012  0.2626  0.1761  0.4458
 8936TIP3    H148223   3.882   3.428  15.106 -0.2189  0.5851  0.3534
 8936TIP3    H248224   3.852   3.504  14.978  0.5002  0.0815 -0.1224
 8937TIP3   OH248225   2.761   0.320  17.165  0.1669  0.5773 -0.2950
 8937TIP3    H148226   2.814   0.314  17.245 -0.4459 -0.0763  0.0671
 8937TIP3    H248227   2.676   0.284  17.190  0.3411 -0.7968 -1.5731
 8938TIP3   OH248228   2.823   4.536   5.621 -0.0312 -0.1200 -0.1704
 8938TIP3    H148229   2.748   4.493   5.664 -0.0007  0.2315  0.2440
 8938TIP3    H248230   2.900   4.493   5.659  0.0709  1.4364  1.5747
 8939TIP3   OH248231   4.783   6.521   6.321  0.0077 -0.1671  0.4045
 8939TIP3    H148232   4.841   6.590   6.290 -0.8457  1.2645  1.8163
 8939TIP3    H248233   4.695   6.557   6.308 -0.4875 -1.4237  0.2187
 8940TIP3   OH248234   6.519   1.797  15.042 -0.7656  0.0505  0.4188
 8940TIP3    H148235   6.425   1.800  15.026 -0.7166  0.6252  0.2074
 8940TIP3    H248236   6.531   1.728  15.106 -1.5086  1.0398  1.6696
 8941TIP3   OH248237   3.061   2.771  10.899  0.3758 -0.1201  0.2655
 8941TIP3    H148238   2.997   2.795  10.832  0.2225  1.2865  0.8883
 8941TIP3    H248239   3.044   2.678  10.916 -0.0791 -0.3096 -1.0801
 8942TIP3   OH248240   6.102   2.526  13.552 -0.0170  0.6502 -0.2321
 8942TIP3    H148241   6.173   2.512  13.615 -1.3455 -0.8072  1.0337
 8942TIP3    H248242   6.113   2.456  13.487 -2.2144 -1.8973  1.8987
 8943TIP3   OH248243   1.547   2.411   1.851  0.0927  0.0635 -0.0875
 8943TIP3    H148244   1.522   2.503   1.842  0.2534  0.0478 -0.7353
 8943TIP3    H248245   1.615   2.398   1.785 -1.0737 -0.9357 -1.1132
 8944TIP3   OH248246   1.469   4.901  15.669 -0.2647  0.4126 -0.3933
 8944TIP3    H148247   1.395   4.857  15.711 -0.1896 -1.4429 -2.0919
 8944TIP3    H248248   1.540   4.893  15.733 -0.2943 -1.8845 -0.5600
 8945TIP3   OH248249   6.234   3.897   4.563  0.6935  0.0169 -0.8222
 8945TIP3    H148250   6.254   3.991   4.567  1.5431 -0.2047  2.1069
 8945TIP3    H248251   6.143   3.893   4.534 -0.1428  1.9103  1.2638
 8946TIP3   OH248252   1.487   6.750   4.346 -0.7681 -0.0930 -0.3644
 8946TIP3    H148253   1.436   6.733   4.425  0.7526 -0.7103  0.5206
 8946TIP3    H248254   1.471   6.674   4.290  0.0157 -0.8323  0.3803
 8947TIP3   OH248255   5.755   1.338   1.655  0.0552  0.3245 -0.3661
 8947TIP3    H148256   5.829   1.354   1.714  0.7184  1.5845 -1.5076
 8947TIP3    H248257   5.764   1.403   1.586 -0.5855 -1.2487 -2.0060
 8948TIP3   OH248258   3.627   2.905   5.675  0.3735  0.2239 -0.2957
 8948TIP3    H148259   3.560   2.886   5.609 -0.9105 -0.2730  1.0957
 8948TIP3    H248260   3.594   2.983   5.720  2.9129  2.7214 -2.3616
 8949TIP3   OH248261   3.311   4.497   2.690  0.0624 -0.0502  0.6435
 8949TIP3    H148262   3.243   4.456   2.637 -1.7180  1.4127  1.6768
 8949TIP3    H248263   3.312   4.589   2.662  0.8296  0.2021  1.4401
 8950TIP3   OH248264   2.553   2.070  13.965 -0.2968 -0.1184 -0.6054
 8950TIP3    H148265   2.461   2.083  13.943 -0.6771 -0.8676  0.4982
 8950TIP3    H248266   2.600   2.093  13.884 -1.5632 -1.7190 -1.8615
 8951TIP3   OH248267   0.304   4.843  11.129 -0.6774 -0.1780  0.0715
 8951TIP3    H148268   0.273   4.829  11.039 -0.0050 -1.3915  0.0129
 8951TIP3    H248269   0.379   4.902  11.120 -1.6063  1.0386  0.0141
 8952TIP3   OH248270   6.054   1.332   6.200  0.1362  0.3745  0.3555
 8952TIP3    H148271   6.026   1.263   6.261  0.8978 -0.8412 -0.6241
 8952TIP3    H248272   5.986   1.333   6.132 -0.9764  2.0735  1.4261
 8953TIP3   OH248273   0.453   0.664  14.739  0.1553 -0.2112 -0.9305
 8953TIP3    H148274   0.357   0.661  14.738  0.1109  0.6615 -0.6054
 8953TIP3    H248275   0.475   0.730  14.673  0.5547 -0.7124 -1.2997
 8954TIP3   OH248276   6.372   0.947  14.307  0.2045  0.1821 -0.1287
 8954TIP3    H148277   6.301   0.962  14.370 -0.5955 -2.6392 -0.2248
 8954TIP3    H248278   6.352   1.006  14.235 -0.1399  1.8289  1.2518
 8955TIP3   OH248279   3.269   0.566   2.162 -0.3724 -0.5547 -0.2866
 8955TIP3    H148280   3.209   0.638   2.142 -0.1502 -0.6645 -1.4206
 8955TIP3    H248281   3.354   0.597   2.130 -0.2529 -1.2658 -0.6769
 8956TIP3   OH248282   0.077   1.844  14.595 -0.2082  0.6732 -0.0246
 8956TIP3    H148283   0.075   1.931  14.557  0.2356  1.0980  0.8987
 8956TIP3    H248284   0.013   1.846  14.665  0.4777  0.5562  0.6162
 8957TIP3   OH248285   2.375   3.100   5.523  0.6554 -0.3807 -0.3256
 8957TIP3    H148286   2.446   3.102   5.587 -1.3199 -1.4282  2.0209
 8957TIP3    H248287   2.357   3.007   5.509 -0.5399 -0.1428 -0.5159
 8958TIP3   OH248288   1.551   3.067   4.722  0.3849  0.0067 -0.1067
 8958TIP3    H148289   1.615   3.013   4.770 -0.0495  0.1804  0.6792
 8958TIP3    H248290   1.470   3.057   4.772 -0.8931 -2.1437 -2.3994
 8959TIP3   OH248291   5.686   2.510  15.892 -0.0786  0.0839 -0.3602
 8959TIP3    H148292   5.779   2.521  15.910  0.2691 -1.1518 -1.2320
 8959TIP3    H248293   5.666   2.578  15.828  0.1702  0.4926 -0.0084
 8960TIP3   OH248294   5.414   5.241  11.167 -0.2038  0.0321  0.0492
 8960TIP3    H148295   5.508   5.237  11.185  0.2111  0.1918 -1.8603
 8960TIP3    H248296   5.393   5.155  11.131 -0.4717  0.4542 -0.8376
 8961TIP3   OH248297   4.762   2.526   1.034  0.0215  0.2512  0.3967
 8961TIP3    H148298   4.808   2.481   1.105 -0.5012  0.5870  0.9575
 8961TIP3    H248299   4.671   2.497   1.041 -0.0229  0.2252 -0.1925
 8962TIP3   OH248300   0.258   6.184   0.344  0.0290  0.8203  0.0889
 8962TIP3    H148301   0.303   6.253   0.393 -1.5370  0.8054  1.6618
 8962TIP3    H248302   0.249   6.112   0.406 -0.0926 -0.0646 -0.9232
 8963TIP3   OH248303   0.741   4.688  14.956  0.1681  0.4617  0.1883
 8963TIP3    H148304   0.761   4.777  14.928  2.3469  0.0256  0.1768
 8963TIP3    H248305   0.807   4.634  14.913 -0.6464 -1.0848  0.7907
 8964TIP3   OH248306   3.837   2.468  11.107 -0.6747 -0.2917  0.1346
 8964TIP3    H148307   3.813   2.431  11.022 -2.6352 -0.2156  0.6165
 8964TIP3    H248308   3.874   2.554  11.086 -2.6464  0.4317 -0.5982
 8965TIP3   OH248309   1.740   1.024   4.828  0.0384  0.1048 -0.0021
 8965TIP3    H148310   1.800   0.952   4.847  2.1095  1.5526 -0.7729
 8965TIP3    H248311   1.687   0.992   4.755  1.5862 -0.3175 -0.9875
 8966TIP3   OH248312   6.530   5.792  17.256 -0.1139  0.1391  0.0565
 8966TIP3    H148313   6.473   5.716  17.243  1.4737 -1.3329  1.1969
 8966TIP3    H248314   6.530   5.837  17.171 -0.5994 -1.5049 -0.8567
 8967TIP3   OH248315   2.291   3.294  14.005 -0.1599 -0.0946 -0.1786
 8967TIP3    H148316   2.323   3.359  13.943  0.7839 -0.5286 -0.1625
 8967TIP3    H248317   2.198   3.283  13.982  0.3501 -0.8723 -2.1088
 8968TIP3   OH248318   4.612   0.859   5.864  0.0963  0.0699  0.1656
 8968TIP3    H148319   4.652   0.940   5.832  1.0265 -0.1553  0.7404
 8968TIP3    H248320   4.598   0.874   5.957 -1.2870  0.1831 -0.0339
 8969TIP3   OH248321   5.936   2.107  14.963  0.0562  0.2716  0.6931
 8969TIP3    H148322   5.903   2.105  14.873 -0.0930  2.3475  0.6472
 8969TIP3    H248323   5.890   2.181  15.003  1.3267  0.3928  1.9895
 8970TIP3   OH248324   1.311   0.245  13.873 -0.3374  0.7841 -0.4806
 8970TIP3    H148325   1.280   0.334  13.853  1.7310  1.5610 -0.4957
 8970TIP3    H248326   1.373   0.226  13.803 -0.9631 -0.8146 -0.6256
 8971TIP3   OH248327   6.374   0.642   1.722  0.1904 -0.3441 -0.5390
 8971TIP3    H148328   6.322   0.563   1.715 -1.3484  0.2962  2.2061
 8971TIP3    H248329   6.368   0.684   1.636 -0.8859 -2.0307 -1.3128
 8972TIP3   OH248330   1.520   6.756  16.717 -0.7067  0.3084  0.0538
 8972TIP3    H148331   1.614   6.758  16.736 -0.7983  3.0738  0.6966
 8972TIP3    H248332   1.480   6.721  16.796 -0.2701 -0.5650 -0.0958
 8973TIP3   OH248333   6.360   4.344  15.208 -0.2882  0.3707 -0.0992
 8973TIP3    H148334   6.273   4.305  15.213  0.2167 -0.6483  2.2519
 8973TIP3    H248335   6.400   4.306  15.130 -0.8957 -1.4951  0.4623
 8974TIP3   OH248336   0.222   3.222   1.542  0.3486  0.1354 -0.3029
 8974TIP3    H148337   0.278   3.237   1.465 -0.0203  0.1973 -0.5612
 8974TIP3    H248338   0.168   3.300   1.547  1.2645  0.7274  0.7985
 8975TIP3   OH248339   4.275   1.686  17.148  0.5991  0.6204 -0.0358
 8975TIP3    H148340   4.278   1.730  17.063  0.0662 -0.7012 -0.7545
 8975TIP3    H248341   4.206   1.620  17.139 -0.2210  1.1592  1.7741
 8976TIP3   OH248342   1.746   6.767  16.893  0.4166  0.5865  0.0721
 8976TIP3    H148343   1.752   6.814  16.976  2.9638  0.2742  0.1445
 8976TIP3    H248344   1.835   6.736  16.876  0.7748  3.1234 -4.1989
 8977TIP3   OH248345   6.246   6.569  16.860 -0.3162 -0.3793 -0.2634
 8977TIP3    H148346   6.307   6.612  16.800  0.0617  1.6238  1.4395
 8977TIP3    H248347   6.276   6.478  16.863  1.0685  0.0097 -1.3115
 8978TIP3   OH248348   3.684   0.524   5.574 -0.8522 -0.2295 -0.4106
 8978TIP3    H148349   3.639   0.541   5.657 -0.3314  0.6944 -0.2955
 8978TIP3    H248350   3.772   0.559   5.588  0.3607 -3.1466 -0.1826
 8979TIP3   OH248351   4.730   6.415  14.327 -0.5907 -0.7248 -0.2144
 8979TIP3    H148352   4.779   6.463  14.260 -0.4459 -0.7731 -0.1446
 8979TIP3    H248353   4.695   6.483  14.385  0.4694 -0.7364  0.4736
 8980TIP3   OH248354   1.549   2.695   2.726 -0.2786  0.0419 -0.2139
 8980TIP3    H148355   1.526   2.747   2.803 -2.3537 -0.7692 -0.2084
 8980TIP3    H248356   1.477   2.710   2.664  1.1849  0.4225 -1.9027
 8981TIP3   OH248357   4.376   2.367  15.388  0.6692  0.2721  0.5606
 8981TIP3    H148358   4.388   2.353  15.295 -0.7069 -3.3088  0.7613
 8981TIP3    H248359   4.287   2.402  15.396  1.5435  2.7269  0.5215
 8982TIP3   OH248360   2.302   0.469  11.177 -0.1321  0.4190 -0.1139
 8982TIP3    H148361   2.329   0.429  11.095 -0.8187 -0.6507  0.1576
 8982TIP3    H248362   2.237   0.408  11.213 -0.3426  1.2071  0.8883
 8983TIP3   OH248363   4.540   6.097   4.904  1.2346  0.2161 -0.4868
 8983TIP3    H148364   4.625   6.117   4.943  0.8270 -1.1823  1.2318
 8983TIP3    H248365   4.492   6.179   4.907  2.2032  0.8025 -0.6637
 8984TIP3   OH248366   2.533   4.228   4.345  0.2552  0.2492 -0.1965
 8984TIP3    H148367   2.504   4.165   4.279  1.6460 -1.0818  0.3834
 8984TIP3    H248368   2.628   4.216   4.348  0.5273  2.2755  0.0863
 8985TIP3   OH248369   4.505   4.330   1.635  0.3774  0.2248  0.2832
 8985TIP3    H148370   4.568   4.378   1.581 -0.1698 -0.0252 -0.5962
 8985TIP3    H248371   4.453   4.279   1.572  0.3279 -0.7857  1.1222
 8986TIP3   OH248372   3.521   3.621   1.657  0.4127 -0.2792 -0.0300
 8986TIP3    H148373   3.534   3.716   1.652 -2.6482  0.3340  1.1573
 8986TIP3    H248374   3.517   3.603   1.751 -1.4495 -1.1100 -0.2210
 8987TIP3   OH248375   0.097   4.253  15.701  0.2621  0.4067 -0.4057
 8987TIP3    H148376   0.022   4.218  15.653  0.3986  0.6724 -0.8141
 8987TIP3    H248377   0.059   4.302  15.774  0.0536 -1.9796  1.2407
 8988TIP3   OH248378   0.517   1.274  14.266 -0.2193  0.4973 -0.3998
 8988TIP3    H148379   0.440   1.237  14.223 -0.0875  2.5012 -2.5149
 8988TIP3    H248380   0.506   1.251  14.359 -2.5565 -0.5553 -0.8695
 8989TIP3   OH248381   3.454   2.398   4.804  0.3236 -0.1409 -0.3582
 8989TIP3    H148382   3.544   2.371   4.785 -0.2301 -1.3004 -1.4479
 8989TIP3    H248383   3.445   2.482   4.760  0.9973  0.2115  0.1460
 8990TIP3   OH248384   4.444   1.293   5.557 -0.0959 -0.3564 -0.1575
 8990TIP3    H148385   4.503   1.328   5.491 -2.0002  1.8216 -0.8358
 8990TIP3    H248386   4.474   1.333   5.639 -0.3176  0.4027 -0.4325
 8991TIP3   OH248387   2.065   6.461   3.070 -0.0679 -0.6270 -0.0146
 8991TIP3    H148388   2.078   6.444   3.163  2.6949 -0.2249 -0.2462
 8991TIP3    H248389   2.075   6.556   3.061 -2.6996 -0.3102 -0.4657
 8992TIP3   OH248390   0.043   6.414  14.896 -0.0335  0.1389 -0.0776
 8992TIP3    H148391   0.133   6.382  14.891  0.5742  1.9530 -3.8580
 8992TIP3    H248392   0.046   6.488  14.957  1.0621  0.2323 -0.2359
 8993TIP3   OH248393   3.217   1.354  11.639 -0.2674 -0.4152 -0.0676
 8993TIP3    H148394   3.301   1.354  11.593 -0.5789 -2.3193 -0.7328
 8993TIP3    H248395   3.241   1.344  11.731  0.2638 -1.3550 -0.2861
 8994TIP3   OH248396   1.380   0.990   5.062  0.1740  0.0719 -0.1239
 8994TIP3    H148397   1.438   0.915   5.072  0.9747  0.5127 -1.2022
 8994TIP3    H248398   1.303   0.955   5.016 -0.0051 -0.3195  0.4588
 8995TIP3   OH248399   5.946   1.197   2.346  0.1979  0.0431 -0.8124
 8995TIP3    H148400   5.938   1.101   2.352  0.0555 -0.0209 -1.8209
 8995TIP3    H248401   6.040   1.212   2.339  0.3579  0.1094  1.0314
 8996TIP3   OH248402   2.789   2.185   5.406 -0.1076  0.2280  0.3451
 8996TIP3    H148403   2.881   2.167   5.391 -0.0265  0.9160 -0.0266
 8996TIP3    H248404   2.758   2.222   5.323 -0.0702  2.4819  1.2496
 8997TIP3   OH248405   1.487   5.938   6.373 -0.3026  0.3493 -0.3630
 8997TIP3    H148406   1.561   5.926   6.313 -2.1473  1.1488 -2.9264
 8997TIP3    H248407   1.514   6.011   6.429  0.3653  1.4938 -2.1042
 8998TIP3   OH248408   1.493   3.177   4.197 -0.1444  0.2695 -0.7113
 8998TIP3    H148409   1.483   3.083   4.211 -3.9228  0.7919  1.3473
 8998TIP3    H248410   1.550   3.206   4.268 -0.1521 -0.2527 -0.4852
 8999TIP3   OH248411   3.052   1.612   3.924  0.5314  0.1662  0.0159
 8999TIP3    H148412   3.105   1.621   3.844  0.8475  2.0621  0.3953
 8999TIP3    H248413   3.105   1.556   3.981  0.8827 -0.1613 -0.6164
 9000TIP3   OH248414   2.549   3.969   2.398 -0.2042 -0.2650  0.1672
 9000TIP3    H148415   2.472   4.008   2.439  0.4487  0.9685  0.2694
 9000TIP3    H248416   2.573   3.897   2.456 -0.5728  0.1017  0.7858
 9001TIP3   OH248417   6.356   1.433   2.297  0.0348 -0.2144 -0.0316
 9001TIP3    H148418   6.404   1.498   2.347 -0.8949  1.0642 -0.7517
 9001TIP3    H248419   6.366   1.460   2.206  1.6151 -2.4365 -0.6087
 9002TIP3   OH248420   3.521   5.295   3.468  0.1748 -0.3129 -0.1949
 9002TIP3    H148421   3.491   5.352   3.539  2.9329  1.6700 -0.4795
 9002TIP3    H248422   3.608   5.266   3.495  0.7404 -0.5892 -2.1704
 9003TIP3   OH248423   3.800   3.115  11.926 -0.0193 -0.1865 -0.1467
 9003TIP3    H148424   3.870   3.148  11.870 -1.0013  1.8285 -0.2588
 9003TIP3    H248425   3.725   3.101  11.868  0.1368 -2.0825  0.0138
 9004TIP3   OH248426   2.330   1.342  12.663  0.2421 -0.5691 -1.0877
 9004TIP3    H148427   2.301   1.354  12.754  1.2497  0.4000 -0.8722
 9004TIP3    H248428   2.249   1.326  12.614 -0.2035 -2.3565  0.1440
 9005TIP3   OH248429   2.842   3.919  15.586  0.5094 -0.7884 -0.1829
 9005TIP3    H148430   2.795   3.853  15.535 -1.1976  0.3951 -0.2322
 9005TIP3    H248431   2.877   3.980  15.521 -0.3230 -0.1410 -0.0443
 9006TIP3   OH248432   3.400   2.318   5.432  0.0920  0.1290 -0.2226
 9006TIP3    H148433   3.361   2.289   5.514 -1.3934  2.2541 -0.1130
 9006TIP3    H248434   3.350   2.272   5.364 -0.6431  0.5972 -0.0035
 9007TIP3   OH248435   3.958   4.536   3.812 -0.1288 -0.1869  0.4088
 9007TIP3    H148436   3.899   4.541   3.886  1.3614 -3.2598  2.0404
 9007TIP3    H248437   4.034   4.588   3.837 -0.6575  0.8718 -0.1366
 9008TIP3   OH248438   4.260   1.788  12.084 -0.4805 -0.0062 -0.1480
 9008TIP3    H148439   4.179   1.779  12.033 -1.4118  1.2949  1.0549
 9008TIP3    H248440   4.309   1.857  12.039 -0.5226 -0.0425 -0.2512
 9009TIP3   OH248441   0.569   6.082  11.615  0.1865  0.2149  0.0598
 9009TIP3    H148442   0.575   6.043  11.528  1.8997  0.9521 -0.1917
 9009TIP3    H248443   0.575   6.008  11.675  1.7127 -0.1140 -0.4443
 9010TIP3   OH248444   6.295   1.304  16.035 -0.0025 -0.0385 -0.0177
 9010TIP3    H148445   6.372   1.352  16.065 -0.2025  0.0239  0.4093
 9010TIP3    H248446   6.237   1.301  16.112 -0.2671 -0.4023 -0.2281
 9011TIP3   OH248447   1.910   0.858   4.050 -0.2115  0.0203  0.1103
 9011TIP3    H148448   1.977   0.836   3.985  0.8449  2.0410  0.4305
 9011TIP3    H248449   1.837   0.893   3.998 -0.0396  0.1010 -0.0778
 9012TIP3   OH248450   5.792   1.824   1.398 -0.0257 -0.1999  0.0734
 9012TIP3    H148451   5.850   1.778   1.458 -1.1083 -0.7758  0.6898
 9012TIP3    H248452   5.817   1.916   1.407  2.9196 -0.6537 -1.9839
 9013TIP3   OH248453   6.451   4.347  16.932  0.2443 -0.5022  0.3557
 9013TIP3    H148454   6.404   4.389  17.004 -0.1425 -0.5444  0.1249
 9013TIP3    H248455   6.530   4.401  16.921  0.6352 -0.8795  1.2432
 9014TIP3   OH248456   0.960   0.817  15.288 -0.6482  0.0623  0.0931
 9014TIP3    H148457   0.906   0.754  15.240 -0.6643 -0.4175  0.7272
 9014TIP3    H248458   0.933   0.902  15.254 -1.7213 -0.1805  0.3093
 9015TIP3   OH248459   1.056   3.409  10.573  0.2875 -0.2833  0.2636
 9015TIP3    H148460   1.094   3.322  10.558 -1.8014 -1.4212  1.2035
 9015TIP3    H248461   1.091   3.436  10.658 -0.0996 -0.8079  0.5932
 9016TIP3   OH248462   2.310   0.982   6.307 -0.1059  0.2488  0.0920
 9016TIP3    H148463   2.327   1.060   6.360  0.9861 -0.7213  1.2172
 9016TIP3    H248464   2.221   0.955   6.331 -0.5870  1.2563 -0.4850
 9017TIP3   OH248465   4.376   5.081   2.000  0.2894  0.1828  0.2390
 9017TIP3    H148466   4.398   4.996   1.962 -2.1094 -1.0347  1.3357
 9017TIP3    H248467   4.309   5.061   2.066 -1.6336  3.1113 -0.6482
 9018TIP3   OH248468   2.846   2.511   5.858 -0.0138 -0.2722  0.5902
 9018TIP3    H148469   2.937   2.542   5.857 -0.0418 -0.1580 -1.0712
 9018TIP3    H248470   2.834   2.468   5.774 -2.3880  2.4604 -0.6741
 9019TIP3   OH248471   4.506   4.350  14.203 -0.0730 -0.3331 -0.3586
 9019TIP3    H148472   4.523   4.433  14.249  1.7913 -1.3749  0.9656
 9019TIP3    H248473   4.422   4.321  14.238 -1.6136  1.7613 -2.0946
 9020TIP3   OH248474   0.348   4.801  12.323 -0.1066 -0.1507  0.1744
 9020TIP3    H148475   0.428   4.852  12.334 -1.3414  1.9600 -0.1374
 9020TIP3    H248476   0.312   4.832  12.240  0.6954 -3.9273 -1.8231
 9021TIP3   OH248477   4.059   3.875  14.823 -0.2048  0.2040 -0.1604
 9021TIP3    H148478   4.001   3.866  14.747  0.3548  1.3851 -0.7430
 9021TIP3    H248479   4.062   3.969  14.840  1.3913  0.1486 -0.0158
 9022TIP3   OH248480   2.553   5.781  16.574  0.4674  0.4341 -0.0308
 9022TIP3    H148481   2.533   5.872  16.552 -3.1803 -0.5368 -1.4243
 9022TIP3    H248482   2.505   5.764  16.655 -1.2421 -0.9067 -1.2475
 9023TIP3   OH248483   1.938   5.891   4.403  0.3479 -0.1024  0.8203
 9023TIP3    H148484   2.009   5.939   4.444  0.3810 -1.1282  2.0408
 9023TIP3    H248485   1.858   5.931   4.438  0.3442  0.2971  0.3545
 9024TIP3   OH248486   6.764   4.103   0.537  0.0822  0.3045  0.2244
 9024TIP3    H148487   6.764   4.197   0.518 -0.2462  0.5435  1.3121
 9024TIP3    H248488   6.812   4.063   0.465  1.1572  1.4254  0.2975
 9025TIP3   OH248489   0.562   3.497  13.376  0.2484  0.4124 -0.4792
 9025TIP3    H148490   0.505   3.436  13.423  2.3029 -0.7798  0.5771
 9025TIP3    H248491   0.561   3.576  13.430  2.8647 -1.0480  2.0322
 9026TIP3   OH248492   5.209   3.191  15.536  0.1339  0.2731  0.8392
 9026TIP3    H148493   5.299   3.180  15.506  0.1415  2.0986  0.0559
 9026TIP3    H248494   5.155   3.152  15.467  0.2814  0.3988  0.6549
 9027TIP3   OH248495   3.533   3.580  12.198  0.5361  0.1486  0.3612
 9027TIP3    H148496   3.565   3.503  12.151  0.7322 -0.2955  1.2023
 9027TIP3    H248497   3.593   3.651  12.173  0.4593 -0.0037 -0.2757
 9028TIP3   OH248498   3.743   6.631  16.819  0.0373 -0.3012 -0.7903
 9028TIP3    H148499   3.747   6.604  16.727 -5.2098  0.0296 -1.3742
 9028TIP3    H248500   3.747   6.727  16.816 -0.8567 -0.2576 -0.7890
 9029TIP3   OH248501   3.298   0.740   1.256 -0.3604 -0.1477 -0.0686
 9029TIP3    H148502   3.221   0.789   1.284 -0.4172  0.3033 -0.9922
 9029TIP3    H248503   3.297   0.745   1.160  0.5656 -0.5202 -0.1095
 9030TIP3   OH248504   4.441   2.925  17.185  0.6985 -0.1024  0.3106
 9030TIP3    H148505   4.363   2.874  17.205  0.6195 -1.2620 -2.5315
 9030TIP3    H248506   4.514   2.868  17.208  0.7126  0.2382  1.1611
 9031TIP3   OH248507   0.566   3.900   0.537  0.2667  0.2901  0.3018
 9031TIP3    H148508   0.655   3.868   0.547  0.5209  1.3225  1.6571
 9031TIP3    H248509   0.511   3.824   0.554  0.8742 -0.0137  0.9370
 9032TIP3   OH248510   4.246   2.558  11.827 -0.2697  0.4647  0.0752
 9032TIP3    H148511   4.301   2.564  11.905  0.3540  0.7949 -0.3800
 9032TIP3    H248512   4.298   2.600  11.758 -0.2976 -0.8532 -0.7899
 9033TIP3   OH248513   1.405   3.041  16.928  0.2549  0.5478  0.1712
 9033TIP3    H148514   1.488   3.080  16.901 -0.0825  0.3193 -1.2551
 9033TIP3    H248515   1.340   3.081  16.872 -0.1099 -2.0131 -1.3885
 9034TIP3   OH248516   4.076   1.061   2.046 -0.2866  0.3815  0.3176
 9034TIP3    H148517   4.136   1.132   2.028  1.3370 -0.4727  2.0037
 9034TIP3    H248518   4.045   1.077   2.135 -1.4451  0.0073  0.0121
 9035TIP3   OH248519   5.398   1.414   0.811  0.1663 -0.4554  0.2216
 9035TIP3    H148520   5.360   1.331   0.782 -0.2060  0.0706 -0.8642
 9035TIP3    H248521   5.325   1.477   0.806  0.6215  0.0901  0.2944
 9036TIP3   OH248522   2.597   5.474   4.585  0.4846 -0.1847  0.2927
 9036TIP3    H148523   2.515   5.443   4.624  0.2564 -0.4568 -0.3885
 9036TIP3    H248524   2.577   5.560   4.550  0.6972  0.0721  0.7962
 9037TIP3   OH248525   2.496   1.295  13.052 -0.6004  0.2268 -0.2899
 9037TIP3    H148526   2.411   1.318  13.089 -0.1909  0.5938  0.4691
 9037TIP3    H248527   2.558   1.311  13.124  0.1696  0.4813 -0.9944
 9038TIP3   OH248528   5.065   6.657   2.820  0.1961 -0.2221 -0.2144
 9038TIP3    H148529   5.035   6.698   2.902 -0.5248 -0.1057 -0.5272
 9038TIP3    H248530   5.151   6.620   2.842 -0.6564 -1.5796  1.0526
 9039TIP3   OH248531   4.115   4.181   4.346  0.1087 -0.0805  0.2703
 9039TIP3    H148532   4.113   4.088   4.370  3.1696  0.2053  2.2577
 9039TIP3    H248533   4.078   4.226   4.422  1.8594  0.4345  0.8632
 9040TIP3   OH248534   0.592   2.523  12.681 -0.4984  0.3493  0.0299
 9040TIP3    H148535   0.568   2.581  12.609 -0.4805 -0.5094 -0.6882
 9040TIP3    H248536   0.607   2.439  12.639 -0.8215 -0.2521  1.0952
 9041TIP3   OH248537   3.831   5.669   3.309  0.0627 -0.2189 -0.4993
 9041TIP3    H148538   3.833   5.575   3.323 -0.1897 -0.0566  0.7869
 9041TIP3    H248539   3.829   5.706   3.397  1.4860  1.0359 -0.9559
 9042TIP3   OH248540   3.564   4.896  11.332 -0.2233 -0.6758  0.0305
 9042TIP3    H148541   3.609   4.853  11.259  0.6018  0.1916  0.0121
 9042TIP3    H248542   3.472   4.900  11.305 -0.1932 -1.7536 -0.2809
 9043TIP3   OH248543   5.972   4.157   4.306  0.1663 -0.0629 -0.1291
 9043TIP3    H148544   6.040   4.222   4.293  0.2388 -0.1999 -0.4487
 9043TIP3    H248545   5.891   4.208   4.312  0.2232  0.0554 -0.3682
 9044TIP3   OH248546   5.471   0.516   0.064  0.2387 -0.0278  0.3815
 9044TIP3    H148547   5.468   0.421   0.071 -0.2880 -0.0968 -0.6061
 9044TIP3    H248548   5.381   0.544   0.078  0.5649  0.4322  1.7481
 9045TIP3   OH248549   6.027   6.290   4.256 -0.4847  0.8369 -0.4825
 9045TIP3    H148550   6.015   6.290   4.351 -1.6583  1.4235 -0.6187
 9045TIP3    H248551   6.087   6.217   4.240  0.5904  1.3904  0.7973
 9046TIP3   OH248552   1.161   2.025  12.826 -0.2740  0.5604 -0.1035
 9046TIP3    H148553   1.127   1.935  12.823 -0.1473  0.5272 -0.7722
 9046TIP3    H248554   1.091   2.076  12.867 -0.7883  0.3389 -0.6871
 9047TIP3   OH248555   4.009   6.507   5.458  0.8028  0.2830 -0.7539
 9047TIP3    H148556   4.035   6.467   5.541 -1.1263  1.0435  0.3005
 9047TIP3    H248557   4.046   6.596   5.463  0.2686  0.4941 -0.4586
 9048TIP3   OH248558   4.413   2.209   2.449  0.2752  0.0009 -0.3702
 9048TIP3    H148559   4.490   2.159   2.476 -0.3990 -0.7760  0.1792
 9048TIP3    H248560   4.420   2.292   2.496  0.6442 -0.1669 -0.1283
 9049TIP3   OH248561   4.612   2.267  12.766  0.2933 -0.1430 -0.2221
 9049TIP3    H148562   4.664   2.322  12.707  1.1933 -0.4602  0.2708
 9049TIP3    H248563   4.521   2.292  12.747  0.6505  1.0658 -0.4642
 9050TIP3   OH248564   0.809   3.989   2.477 -0.1078  0.1462  0.4281
 9050TIP3    H148565   0.790   3.897   2.494 -1.3481  0.5230  1.2172
 9050TIP3    H248566   0.792   4.033   2.561  0.7705  1.0522  0.1535
 9051TIP3   OH248567   5.248   0.205   0.503 -0.1567 -0.1622  0.8417
 9051TIP3    H148568   5.236   0.298   0.523  1.0106  0.4263 -0.9516
 9051TIP3    H248569   5.332   0.183   0.543 -0.9511 -0.7984  2.2450
 9052TIP3   OH248570   2.844   6.127  15.824 -0.2333  0.0565  0.0369
 9052TIP3    H148571   2.866   6.163  15.738 -1.0171 -0.7927 -0.5451
 9052TIP3    H248572   2.816   6.202  15.875  1.8790  0.8439  0.1342
 9053TIP3   OH248573   0.376   2.890   1.981 -0.1230 -0.4425 -0.3336
 9053TIP3    H148574   0.346   2.871   2.070 -0.7728 -1.0308 -0.6726
 9053TIP3    H248575   0.299   2.877   1.927  0.1668  0.3162 -0.9396
 9054TIP3   OH248576   3.735   4.177  13.328 -0.1219  0.5019  0.0410
 9054TIP3    H148577   3.769   4.266  13.321  0.0763  0.4056 -0.2714
 9054TIP3    H248578   3.701   4.157  13.241  3.0425 -0.9887 -1.0008
 9055TIP3   OH248579   2.769   5.442  13.120  0.2010  0.2677 -0.1119
 9055TIP3    H148580   2.802   5.518  13.168 -0.8462  0.3572  0.4953
 9055TIP3    H248581   2.759   5.374  13.188  0.2083 -0.1069 -0.4796
 9056TIP3   OH248582   3.847   0.591   5.797  0.3647  0.4082 -0.8921
 9056TIP3    H148583   3.883   0.507   5.828 -2.8145 -0.9061 -0.2951
 9056TIP3    H248584   3.920   0.652   5.804  2.2441 -1.8029  0.8402
 9057TIP3   OH248585   5.288   3.912  15.200 -0.4843  0.0985 -0.0820
 9057TIP3    H148586   5.215   3.853  15.179  0.1724 -1.3882  1.5832
 9057TIP3    H248587   5.347   3.860  15.253  2.2271  1.0271 -1.9778
 9058TIP3   OH248588   3.472   2.113   4.031 -0.3234 -0.9390 -0.8542
 9058TIP3    H148589   3.535   2.046   4.059 -1.4262 -1.5930  0.1197
 9058TIP3    H248590   3.458   2.167   4.108 -0.8310 -0.6843 -1.1182
 9059TIP3   OH248591   4.672   5.867   3.658 -0.0574  0.5612 -0.0034
 9059TIP3    H148592   4.734   5.813   3.609 -0.5096  0.6174 -0.6396
 9059TIP3    H248593   4.727   5.933   3.700  0.5139 -0.3882  0.8159
 9060TIP3   OH248594   3.879   6.126  13.985  0.0920  0.0333  0.0739
 9060TIP3    H148595   3.906   6.192  14.049  1.0275  0.1789 -0.4395
 9060TIP3    H248596   3.823   6.174  13.924 -0.0161  0.1226  0.2419
 9061TIP3   OH248597   3.198   6.015   4.363 -0.2648  0.1853 -0.2919
 9061TIP3    H148598   3.272   5.963   4.394 -0.4611 -0.2770 -0.5925
 9061TIP3    H248599   3.123   5.957   4.370 -0.3037  0.0193 -1.7131
 9062TIP3   OH248600   1.354   3.251   1.166 -0.7076  0.4994 -0.6542
 9062TIP3    H148601   1.406   3.319   1.210 -0.0568 -0.0012 -0.6345
 9062TIP3    H248602   1.318   3.295   1.089  0.5588  0.6111 -1.2079
 9063TIP3   OH248603   0.808   3.874  13.851  0.2387 -0.7084 -0.0873
 9063TIP3    H148604   0.790   3.784  13.878  1.2655 -0.9170 -0.0627
 9063TIP3    H248605   0.886   3.867  13.797  1.1398  0.3200  1.0214
 9064TIP3   OH248606   3.361   0.973  14.593 -0.5207 -0.2110 -0.0503
 9064TIP3    H148607   3.327   1.055  14.629  3.3958  1.4417  0.4189
 9064TIP3    H248608   3.336   0.975  14.501  0.7176  2.3711 -0.4215
 9065TIP3   OH248609   3.609   1.841  15.398  0.1634  0.5821 -0.0054
 9065TIP3    H148610   3.652   1.903  15.340  1.7572 -0.6428 -0.1913
 9065TIP3    H248611   3.532   1.888  15.431 -0.4561  1.5348 -2.5953
 9066TIP3   OH248612   1.412   2.421   5.353  0.4671  0.3185  0.3856
 9066TIP3    H148613   1.415   2.331   5.385 -1.5006 -0.1803 -0.6857
 9066TIP3    H248614   1.409   2.475   5.432  1.2133 -0.5668  1.0356
 9067TIP3   OH248615   2.646   2.075   2.937 -0.1600 -0.6716  0.0263
 9067TIP3    H148616   2.675   2.019   2.865 -0.6949  0.0298 -0.7601
 9067TIP3    H248617   2.554   2.095   2.916 -0.3750 -0.6156  1.0042
 9068TIP3   OH248618   4.792   3.514   1.779  0.3473 -0.2019 -0.0098
 9068TIP3    H148619   4.731   3.586   1.766  1.0579  0.4880  0.4146
 9068TIP3    H248620   4.847   3.541   1.852 -0.3531 -1.8518  1.1833
 9069TIP3   OH248621   1.732   5.617   3.392 -0.8127 -0.2453 -0.1951
 9069TIP3    H148622   1.714   5.544   3.333  3.2744 -1.7191  0.0698
 9069TIP3    H248623   1.762   5.688   3.336 -1.9766  0.2632 -0.2104
 9070TIP3   OH248624   1.632   3.691   4.059 -0.1707  0.4822  0.0907
 9070TIP3    H148625   1.700   3.725   4.118  0.1120  0.1748 -0.0581
 9070TIP3    H248626   1.558   3.750   4.073  0.1152  0.8046  0.2746
 9071TIP3   OH248627   4.784   0.855   6.493  0.1251  0.5062 -0.3901
 9071TIP3    H148628   4.835   0.901   6.426 -0.9575 -0.0568 -1.6361
 9071TIP3    H248629   4.737   0.925   6.539  1.5624  0.9832  0.4380
 9072TIP3   OH248630   6.666   6.722   2.244 -0.5224 -0.5119  0.7585
 9072TIP3    H148631   6.758   6.700   2.261  0.1032  1.9140  0.8990
 9072TIP3    H248632   6.640   6.775   2.320 -1.3200  0.6766 -0.2995
 9073TIP3   OH248633   6.692   1.252   1.875 -0.1886 -0.2381  0.6072
 9073TIP3    H148634   6.786   1.266   1.887 -0.2913  0.4340  0.6358
 9073TIP3    H248635   6.663   1.211   1.956  0.1823 -0.9891  0.3746
 9074TIP3   OH248636   3.980   6.506   2.305 -0.5570  0.1463 -0.4072
 9074TIP3    H148637   3.987   6.601   2.317 -1.2368  0.2380 -0.6776
 9074TIP3    H248638   4.060   6.471   2.343 -1.4620  0.6195  2.1587
 9075TIP3   OH248639   5.594   3.070  14.248 -0.6662  0.0633 -0.2944
 9075TIP3    H148640   5.651   3.147  14.244  0.2398 -0.5313  0.7091
 9075TIP3    H248641   5.640   3.004  14.197 -1.1915  0.0197 -0.7193
 9076TIP3   OH248642   4.696   1.360  17.271  0.0822 -0.4090 -0.2900
 9076TIP3    H148643   4.605   1.375  17.243 -0.5836  1.2838  2.3724
 9076TIP3    H248644   4.739   1.444  17.257  1.4975 -1.3424 -2.0333
 9077TIP3   OH248645   6.067   5.078   0.380  0.6152 -0.0476 -0.1737
 9077TIP3    H148646   6.137   5.013   0.386 -0.1611 -0.8282  0.8312
 9077TIP3    H248647   6.072   5.126   0.462  0.4984  0.4719 -0.4633
 9078TIP3   OH248648   2.132   0.693   3.535 -0.1976  0.6699  0.1861
 9078TIP3    H148649   2.088   0.631   3.477 -1.7732  2.2665 -0.4433
 9078TIP3    H248650   2.218   0.708   3.495 -0.6072  0.4499 -0.7890
 9079TIP3   OH248651   6.381   2.922  12.299 -0.2442 -0.0325 -0.1050
 9079TIP3    H148652   6.326   2.973  12.357  0.3492  0.5681 -0.0652
 9079TIP3    H248653   6.326   2.847  12.273 -0.6986 -0.0081  0.7718
 9080TIP3   OH248654   6.747   1.593   2.198 -0.0921  0.1473  0.0853
 9080TIP3    H148655   6.747   1.618   2.106 -1.0908  1.4826  0.4090
 9080TIP3    H248656   6.800   1.514   2.202  1.7628  1.2518 -1.3046
 9081TIP3   OH248657   5.782   0.076   4.730  0.0882  0.0855 -0.0945
 9081TIP3    H148658   5.734   0.158   4.718 -0.3070  0.4351  3.0822
 9081TIP3    H248659   5.714   0.010   4.742  0.2106  0.3914  3.2650
 9082TIP3   OH248660   0.273   5.014   3.727  0.5990  0.1066  0.0059
 9082TIP3    H148661   0.297   5.083   3.789  1.6682  0.1591 -0.4570
 9082TIP3    H248662   0.312   4.934   3.763  1.1882  0.1304 -0.5653
 9083TIP3   OH248663   4.606   5.839  15.142 -0.6403  0.4615 -0.0570
 9083TIP3    H148664   4.663   5.791  15.082 -1.9819 -0.8348 -0.3443
 9083TIP3    H248665   4.601   5.927  15.105  0.3089  0.2929 -0.6151
 9084TIP3   OH248666   0.644   3.818  12.664  0.2305  0.3689 -0.2543
 9084TIP3    H148667   0.648   3.873  12.743  0.5168  0.6270 -0.4497
 9084TIP3    H248668   0.698   3.742  12.685  1.2291  0.9667 -0.6146
 9085TIP3   OH248669   4.721   2.544  10.802  0.4532  0.2446  0.3422
 9085TIP3    H148670   4.740   2.495  10.882  2.8321  0.5776  0.0537
 9085TIP3    H248671   4.799   2.532  10.747 -0.1535  1.8904 -0.9803
 9086TIP3   OH248672   4.255   3.705  15.696 -0.1354 -1.0128 -0.4351
 9086TIP3    H148673   4.270   3.708  15.790  1.3440 -3.1966 -0.5250
 9086TIP3    H248674   4.252   3.612  15.675 -1.8673 -0.5916 -2.3682
 9087TIP3   OH248675   4.255   2.071   3.014  0.6788  0.0616 -0.4109
 9087TIP3    H148676   4.257   2.016   2.935 -0.3264 -1.7990  0.7927
 9087TIP3    H248677   4.163   2.075   3.038  0.8549  1.4997  0.0856
 9088TIP3   OH248678   5.224   2.823   5.795 -0.1008  0.1093 -0.6908
 9088TIP3    H148679   5.252   2.914   5.785  0.5361 -0.0401 -0.3065
 9088TIP3    H248680   5.176   2.821   5.878 -0.0950  0.0918 -0.6879
 9089TIP3   OH248681   4.795   6.200  14.982 -0.3753  0.3336 -0.5547
 9089TIP3    H148682   4.705   6.168  14.993  0.1489 -0.7553  0.9728
 9089TIP3    H248683   4.786   6.294  14.968 -1.8449 -0.0273 -2.5134
 9090TIP3   OH248684   3.366   3.346  13.672  0.0131  0.6590 -0.2893
 9090TIP3    H148685   3.388   3.296  13.750 -0.9004  1.3713  0.4330
 9090TIP3    H248686   3.415   3.428  13.681  0.5568  0.4141 -0.8841
 9091TIP3   OH248687   6.627   5.709  12.741  0.1474  0.1013  0.2843
 9091TIP3    H148688   6.607   5.762  12.818  0.0200 -1.2927  1.2473
 9091TIP3    H248689   6.568   5.634  12.747  2.8920 -2.1662  1.1423
 9092TIP3   OH248690   5.048   2.075  13.269 -0.0599 -0.0788  0.3015
 9092TIP3    H148691   5.070   2.168  13.264  1.1235 -0.2924  1.1119
 9092TIP3    H248692   5.096   2.035  13.196 -1.7245  0.1134 -0.9634
 9093TIP3   OH248693   4.514   1.379   5.072  0.1956  0.4000  0.5880
 9093TIP3    H148694   4.557   1.454   5.112  2.0437 -0.5947  0.5949
 9093TIP3    H248695   4.561   1.366   4.989 -0.9444  0.0311 -0.0183
 9094TIP3   OH248696   4.313   6.009   5.702 -0.2943  0.2739 -0.8343
 9094TIP3    H148697   4.219   6.029   5.702 -0.6108 -1.0735 -1.8295
 9094TIP3    H248698   4.343   6.036   5.615  0.7323  2.5792  0.1398
 9095TIP3   OH248699   0.549   0.767  11.914  0.2424 -0.0545 -0.0881
 9095TIP3    H148700   0.473   0.711  11.898  0.1640 -0.1439  0.5581
 9095TIP3    H248701   0.546   0.833  11.845 -1.0774  0.6307  0.5912
 9096TIP3   OH248702   4.746   3.296  16.035 -0.5549 -0.2076  0.3694
 9096TIP3    H148703   4.817   3.233  16.026 -0.5930 -0.2669  0.4815
 9096TIP3    H248704   4.670   3.253  15.995 -0.7986 -0.5907  1.2151
 9097TIP3   OH248705   2.988   5.852  13.096 -0.4516  0.1448  0.9862
 9097TIP3    H148706   3.013   5.787  13.031 -0.4631  0.8123  0.3042
 9097TIP3    H248707   2.898   5.875  13.073 -0.2105  0.9149  0.7817
 9098TIP3   OH248708   0.448   6.254  16.487  0.2085  0.0484  0.5852
 9098TIP3    H148709   0.463   6.265  16.580 -0.8551  0.4174  0.7308
 9098TIP3    H248710   0.476   6.165  16.468  1.7839  0.4426  0.9477
 9099TIP3   OH248711   4.923   4.387   4.107  0.2843 -0.1173 -0.3868
 9099TIP3    H148712   4.865   4.459   4.083 -0.6631 -0.6980  0.1190
 9099TIP3    H248713   4.965   4.416   4.188  1.1889  0.5634 -1.0799
 9100TIP3   OH248714   4.405   0.665  17.042 -0.0649  0.7723  0.3979
 9100TIP3    H148715   4.481   0.674  17.099 -0.2116 -0.3376  0.7926
 9100TIP3    H248716   4.441   0.666  16.953  0.6235 -1.4414  0.6177
 9101TIP3   OH248717   4.658   1.412   3.577  0.1872  0.4589 -0.6601
 9101TIP3    H148718   4.717   1.338   3.568 -0.9467 -0.3044 -2.3806
 9101TIP3    H248719   4.685   1.473   3.509 -1.0925 -0.0131 -1.6462
 9102TIP3   OH248720   1.958   5.671  15.236  0.2534 -0.4828  0.1896
 9102TIP3    H148721   1.978   5.653  15.145 -3.2041  1.6334 -1.1987
 9102TIP3    H248722   1.945   5.766  15.240  0.2085 -0.5077  2.8963
 9103TIP3   OH248723   1.927   3.210   5.358 -0.7526 -0.3324  0.6774
 9103TIP3    H148724   1.896   3.204   5.268  0.2535  0.0807  0.2886
 9103TIP3    H248725   2.022   3.219   5.350 -0.6528 -0.2817  1.7809
 9104TIP3   OH248726   0.115   2.592   2.102 -0.1191 -0.3016  0.1621
 9104TIP3    H148727   0.037   2.601   2.157  1.1311 -0.1404  2.0188
 9104TIP3    H248728   0.164   2.674   2.116  1.1687 -1.0707  0.3897
 9105TIP3   OH248729   3.507   3.807   0.754 -0.4781  0.4228  0.5590
 9105TIP3    H148730   3.577   3.755   0.715 -0.3638  0.5946  0.5356
 9105TIP3    H248731   3.545   3.844   0.833 -0.5976  0.3702  0.6409
 9106TIP3   OH248732   5.758   3.113   5.402  0.2002  0.4275  0.3839
 9106TIP3    H148733   5.850   3.106   5.430  0.2428 -0.5616  0.0121
 9106TIP3    H248734   5.756   3.190   5.345  0.5245  1.2461  1.4368
 9107TIP3   OH248735   3.862   0.876  11.309  0.2234  0.2200 -0.3028
 9107TIP3    H148736   3.899   0.861  11.222  2.6888  1.3391  0.4682
 9107TIP3    H248737   3.793   0.941  11.295  0.3688  0.1495 -1.4461
 9108TIP3   OH248738   5.452   2.507  14.283 -0.3326  0.1250  0.3369
 9108TIP3    H148739   5.436   2.419  14.319  0.4645 -0.3898 -0.5253
 9108TIP3    H248740   5.546   2.521  14.294 -0.3536  0.6263 -0.0747
 9109TIP3   OH248741   3.543   1.385  14.709  0.3091  0.2299 -0.3386
 9109TIP3    H148742   3.543   1.289  14.710  3.2559  0.1353  0.8673
 9109TIP3    H248743   3.465   1.409  14.760  1.0854 -1.6409  1.9103
 9110TIP3   OH248744   6.679   1.643  15.641  0.3593  0.3836  0.2378
 9110TIP3    H148745   6.713   1.619  15.727 -0.6126  0.9875  0.8032
 9110TIP3    H248746   6.678   1.561  15.592  0.3203 -0.0907  1.0169
 9111TIP3   OH248747   2.693   1.206  12.463 -0.0330  0.8752  0.2212
 9111TIP3    H148748   2.667   1.271  12.528 -2.2156 -0.5347  0.8696
 9111TIP3    H248749   2.641   1.227  12.385 -0.1970  0.3431  0.1853
 9112TIP3   OH248750   5.678   3.265   5.884  0.3166 -0.2646 -0.2983
 9112TIP3    H148751   5.733   3.187   5.898  2.6402  0.9902 -1.7054
 9112TIP3    H248752   5.692   3.318   5.963  0.8658 -0.1022 -0.5025
 9113TIP3   OH248753   5.140   2.297  14.581  0.0612 -0.5666 -0.0814
 9113TIP3    H148754   5.198   2.223  14.601  1.0077  0.0396 -0.4849
 9113TIP3    H248755   5.183   2.373  14.621 -0.5107 -0.1155 -0.2998
 9114TIP3   OH248756   2.587   1.270  12.026 -0.5572  0.1154 -0.8866
 9114TIP3    H148757   2.546   1.326  11.961  2.8048  4.0893  0.0370
 9114TIP3    H248758   2.657   1.225  11.979 -0.7568 -0.2719 -0.8193
 9115TIP3   OH248759   5.323   4.854   3.517 -0.2473 -0.1012  0.0417
 9115TIP3    H148760   5.290   4.848   3.428  0.4893 -1.8022 -0.1653
 9115TIP3    H248761   5.282   4.932   3.553  0.2819  1.2695 -2.1241
 9116TIP3   OH248762   5.156   5.571  15.995 -0.2356 -0.0316 -0.2125
 9116TIP3    H148763   5.235   5.588  16.047  0.8499 -2.0048 -1.0959
 9116TIP3    H248764   5.147   5.476  15.997 -2.9176  0.1508  0.2454
 9117TIP3   OH248765   5.009   1.868  14.102  0.1506 -1.0680 -0.2695
 9117TIP3    H148766   5.016   1.958  14.134 -0.0648 -1.2187  0.2233
 9117TIP3    H248767   4.999   1.816  14.182 -1.9718 -1.3019 -0.6435
 9118TIP3   OH248768   0.084   1.006  10.352 -0.1054 -0.5367 -0.4197
 9118TIP3    H148769   0.175   0.977  10.362 -0.2155 -0.8829 -0.4255
 9118TIP3    H248770   0.042   0.981  10.434  0.4613  2.1216  0.7822
 9119TIP3   OH248771   3.016   1.839   3.199  0.2297 -0.0469  0.2793
 9119TIP3    H148772   2.934   1.793   3.180 -0.4453  0.6547  1.3729
 9119TIP3    H248773   3.081   1.769   3.205 -0.1682 -0.5757 -1.0838
 9120TIP3   OH248774   4.283   2.361   1.548 -0.3449 -0.2829 -0.4759
 9120TIP3    H148775   4.245   2.409   1.476 -1.2754  0.0295  0.2008
 9120TIP3    H248776   4.355   2.416   1.579  1.0378 -1.0972 -2.0648
 9121TIP3   OH248777   2.770   3.354  16.034  0.2239  0.2492  0.2874
 9121TIP3    H148778   2.835   3.334  16.101  0.3872 -1.6282 -0.3812
 9121TIP3    H248779   2.707   3.283  16.040 -0.1100  0.3972 -1.1212
 9122TIP3   OH248780   1.643   2.103   5.863  0.3119 -0.5675  0.7322
 9122TIP3    H148781   1.608   2.174   5.917 -0.1859 -0.0913 -0.1916
 9122TIP3    H248782   1.573   2.082   5.802  1.1858 -0.4587 -0.3423
 9123TIP3   OH248783   4.120   1.190  11.453 -0.1607  0.0443 -0.1799
 9123TIP3    H148784   4.127   1.097  11.478 -1.3468  0.0674  0.3183
 9123TIP3    H248785   4.090   1.233  11.533 -1.0657  0.6228 -0.8230
 9124TIP3   OH248786   3.890   1.610   5.924 -0.0542 -0.2601  0.2028
 9124TIP3    H148787   3.901   1.575   6.012 -1.2135  1.1937  0.9783
 9124TIP3    H248788   3.827   1.552   5.882  0.6963 -1.1081  0.2204
 9125TIP3   OH248789   3.253   0.956   3.295  0.2624  0.0345  0.1909
 9125TIP3    H148790   3.306   0.888   3.337 -1.9798 -0.0832  3.1420
 9125TIP3    H248791   3.299   1.038   3.316  0.7930 -0.2565  0.1899
 9126TIP3   OH248792   0.272   4.172  15.398  0.3074 -0.2891  0.4108
 9126TIP3    H148793   0.367   4.176  15.398  0.2779  0.9221  0.3241
 9126TIP3    H248794   0.250   4.116  15.472  1.0982 -1.2899 -0.0923
 9127TIP3   OH248795   6.101   5.207   5.541 -0.1594 -0.6122  0.1023
 9127TIP3    H148796   6.120   5.123   5.582 -1.8191 -1.5799 -0.9537
 9127TIP3    H248797   6.040   5.186   5.470  0.7815  1.2537 -1.3921
 9128TIP3   OH248798   0.318   1.502  13.371 -0.1789  0.3163  0.2232
 9128TIP3    H148799   0.232   1.543  13.365 -0.1933  0.2957  0.2905
 9128TIP3    H248800   0.371   1.550  13.308 -0.3233  0.1220 -0.0461
 9129TIP3   OH248801   5.475   5.935   4.054 -0.2596 -0.2219  0.0827
 9129TIP3    H148802   5.532   5.877   4.105  0.1704  0.4783  0.4061
 9129TIP3    H248803   5.386   5.906   4.077 -0.1334 -3.2063 -2.5707
 9130TIP3   OH248804   0.551   4.661  11.368  0.2455 -0.4641  0.3669
 9130TIP3    H148805   0.532   4.675  11.275 -1.2259  0.0937  0.7240
 9130TIP3    H248806   0.510   4.576  11.387 -2.3034  0.8477  1.1971
 9131TIP3   OH248807   6.055   1.547   5.383 -0.5471  0.4847 -0.0176
 9131TIP3    H148808   6.020   1.600   5.311 -2.9565 -1.6231 -0.5545
 9131TIP3    H248809   5.985   1.485   5.403  1.1258 -0.8096  2.3124
 9132TIP3   OH248810   2.533   4.841  14.983 -0.2947 -0.5043 -0.6651
 9132TIP3    H148811   2.598   4.864  15.049  0.4441  0.5964 -1.7405
 9132TIP3    H248812   2.576   4.777  14.928 -1.2415 -2.1545  0.4189
 9133TIP3   OH248813   4.229   0.137   4.867  0.0093  0.5218  0.5287
 9133TIP3    H148814   4.286   0.202   4.825  1.5986  0.0070  1.7578
 9133TIP3    H248815   4.277   0.111   4.946 -0.8441 -1.7236  0.3830
 9134TIP3   OH248816   3.286   5.518  13.293 -0.0489 -0.0128 -0.4779
 9134TIP3    H148817   3.223   5.590  13.287 -0.3476 -0.1936  0.3298
 9134TIP3    H248818   3.233   5.441  13.313  0.2529 -0.4935 -1.4847
 9135TIP3   OH248819   4.364   6.497  15.290  0.1221 -0.2809  0.0316
 9135TIP3    H148820   4.303   6.453  15.350 -2.4844  1.9101 -0.8158
 9135TIP3    H248821   4.355   6.448  15.208  0.6219 -0.8411  0.3078
 9136TIP3   OH248822   1.932   5.212  16.247  0.2932 -0.4991 -0.2617
 9136TIP3    H148823   1.876   5.187  16.174 -0.2144 -0.3360  0.0710
 9136TIP3    H248824   1.930   5.308  16.247 -2.3574 -0.4506  1.9568
 9137TIP3   OH248825   1.832   4.779   0.087  0.0139 -0.2913  0.1449
 9137TIP3    H148826   1.858   4.745   0.001  0.1589  1.7467 -0.6819
 9137TIP3    H248827   1.912   4.819   0.121 -0.2052 -0.5456  0.9816
 9138TIP3   OH248828   3.828   6.131  15.332 -0.0084 -0.4189  0.3690
 9138TIP3    H148829   3.922   6.111  15.337  0.2730  1.0900  2.1230
 9138TIP3    H248830   3.810   6.137  15.238  2.1273  1.2541 -0.0209
 9139TIP3   OH248831   1.443   0.444  11.989  0.1561  0.9499 -0.1698
 9139TIP3    H148832   1.387   0.465  11.914  2.0125 -0.1406 -1.9895
 9139TIP3    H248833   1.499   0.521  11.998  0.3878  0.8075 -0.3717
 9140TIP3   OH248834   5.434   6.198   3.683  0.4173 -0.5576 -0.3085
 9140TIP3    H148835   5.438   6.106   3.709  1.6544 -1.4291 -3.2013
 9140TIP3    H248836   5.510   6.211   3.628  0.8070  2.5396  0.7464
 9141TIP3   OH248837   2.184   1.666   6.460 -0.4588  0.0358 -0.7031
 9141TIP3    H148838   2.197   1.627   6.374 -1.1736 -1.1912 -0.2679
 9141TIP3    H248839   2.214   1.599   6.522 -1.6065  0.1916  0.0537
 9142TIP3   OH248840   5.797   3.161  16.944 -0.5134 -0.5727 -0.2305
 9142TIP3    H148841   5.801   3.119  17.030 -0.1520 -1.7942 -0.8160
 9142TIP3    H248842   5.859   3.112  16.890 -0.4824  0.3866 -1.1056
 9143TIP3   OH248843   2.871   4.846  11.799 -0.0265 -0.3884 -0.0905
 9143TIP3    H148844   2.902   4.928  11.759 -1.8195 -0.5745 -2.0117
 9143TIP3    H248845   2.950   4.807  11.837  1.0420  1.7773  0.0684
 9144TIP3   OH248846   0.308   6.517  11.884  0.0804 -0.4988  0.3084
 9144TIP3    H148847   0.342   6.576  11.950 -0.0680  1.8980 -1.6193
 9144TIP3    H248848   0.373   6.447  11.877  1.3183  0.5365  1.1995
 9145TIP3   OH248849   3.713   0.060   5.530  0.4268 -0.2469  0.7453
 9145TIP3    H148850   3.643  -0.004   5.519  1.4706 -1.7410  2.3421
 9145TIP3    H248851   3.731   0.091   5.441 -3.6812  1.9208  0.3860
 9146TIP3   OH248852   6.411   3.169   3.580 -0.7833 -0.0328 -0.1200
 9146TIP3    H148853   6.418   3.231   3.653 -0.2525 -1.6012  1.2280
 9146TIP3    H248854   6.399   3.225   3.503  4.6041  2.2135  0.1989
 9147TIP3   OH248855   6.404   1.238   1.748  0.4382  0.3908  0.3520
 9147TIP3    H148856   6.432   1.184   1.674  1.2243  1.3917 -0.0987
 9147TIP3    H248857   6.485   1.264   1.792  0.0607  0.9911  0.7210
 9148TIP3   OH248858   1.626   2.490   0.689 -0.0693  0.2474 -0.0874
 9148TIP3    H148859   1.564   2.539   0.635  0.4621  2.2939  1.0380
 9148TIP3    H248860   1.574   2.460   0.764 -0.5213 -1.5059 -1.0394
 9149TIP3   OH248861   6.112   4.400  11.799  0.4467 -0.0644 -0.4545
 9149TIP3    H148862   6.159   4.432  11.876 -0.1009  0.0630 -0.1691
 9149TIP3    H248863   6.153   4.446  11.726  1.9137 -1.2073 -0.4116
 9150TIP3   OH248864   1.041   3.391   2.756  0.0836 -1.1444  0.7553
 9150TIP3    H148865   1.113   3.447   2.784 -0.7672 -1.0059  2.9255
 9150TIP3    H248866   0.977   3.451   2.717 -0.1634 -0.7896  1.6712
 9151TIP3   OH248867   1.064   2.072   2.482 -0.6163 -0.3989  0.1632
 9151TIP3    H148868   1.094   2.154   2.443 -0.7015 -0.6514 -0.4461
 9151TIP3    H248869   0.969   2.081   2.485 -0.6617 -0.6525 -0.3297
 9152TIP3   OH248870   3.641   0.053   3.844 -0.5388 -0.4552  0.4574
 9152TIP3    H148871   3.696  -0.006   3.793 -0.4870  0.4840 -0.6069
 9152TIP3    H248872   3.553   0.016   3.836 -0.2781 -1.2543  1.1163
 9153TIP3   OH248873   4.585   4.165   0.531 -0.1897  0.2445 -0.2716
 9153TIP3    H148874   4.540   4.164   0.447  0.0080  1.4168 -0.4098
 9153TIP3    H248875   4.673   4.195   0.511 -0.2169  0.7959  0.3769
 9154TIP3   OH248876   3.235   3.075   5.140  0.1811 -0.5087 -0.2368
 9154TIP3    H148877   3.305   3.019   5.106  0.5396  0.7839 -1.7185
 9154TIP3    H248878   3.189   3.019   5.204  2.1121 -1.6038  0.2753
 9155TIP3   OH248879   2.678   1.236  14.951 -0.1107 -0.4005 -0.2924
 9155TIP3    H148880   2.616   1.193  15.009 -0.1651  0.5072  0.3482
 9155TIP3    H248881   2.757   1.246  15.004 -0.9079  2.5626  0.4842
 9156TIP3   OH248882   2.051   2.645  11.235  0.4683  0.1362  0.2653
 9156TIP3    H148883   2.101   2.724  11.257  0.4408  0.1974  0.1055
 9156TIP3    H248884   2.111   2.593  11.182 -0.0308  0.7412 -0.9467
 9157TIP3   OH248885   3.673   5.583   0.214 -0.1393  0.4947 -0.4357
 9157TIP3    H148886   3.581   5.571   0.236  0.1242 -1.7354 -0.3600
 9157TIP3    H248887   3.704   5.496   0.188  1.6459  1.4259 -1.6903
 9158TIP3   OH248888   1.230   1.944  10.291  0.1900  0.3938 -0.0179
 9158TIP3    H148889   1.175   1.868  10.308 -0.2953  0.9420  0.9392
 9158TIP3    H248890   1.193   1.984  10.212 -0.5197  0.5161  0.3738
 9159TIP3   OH248891   1.687   5.904   0.120 -0.0919  0.1198  0.4190
 9159TIP3    H148892   1.746   5.958   0.173 -0.7866  0.1671  1.1671
 9159TIP3    H248893   1.638   5.853   0.183 -0.5725 -0.2158 -0.2104
 9160TIP3   OH248894   4.219   5.593   0.194 -0.1049 -0.4413 -0.5981
 9160TIP3    H148895   4.291   5.607   0.133 -0.6386 -1.0818 -1.3836
 9160TIP3    H248896   4.232   5.504   0.227 -0.3430 -0.4388 -0.4908
 9161TIP3   OH248897   1.961   5.908  11.543  0.0409 -0.0558 -0.0120
 9161TIP3    H148898   1.923   5.910  11.631  0.7716 -0.4702  0.3247
 9161TIP3    H248899   2.056   5.904  11.558  0.2036  0.4771 -0.8245
 9162TIP3   OH248900   0.136   2.623   5.041 -0.0483 -0.4037 -0.1185
 9162TIP3    H148901   0.059   2.639   5.095 -0.9708 -1.8631 -0.9357
 9162TIP3    H248902   0.200   2.584   5.101 -0.5829 -0.7924  0.2046
 9163TIP3   OH248903   6.766   4.394   0.495 -0.2571 -0.3490 -0.0711
 9163TIP3    H148904   6.823   4.416   0.569 -0.4949 -1.2902  0.4080
 9163TIP3    H248905   6.737   4.478   0.461  2.0628  0.1921 -0.8417
 9164TIP3   OH248906   4.014   4.091  13.950 -0.2769  0.2711  0.0022
 9164TIP3    H148907   4.040   4.052  14.033  1.5484 -0.4417 -0.8387
 9164TIP3    H248908   3.961   4.023  13.908  2.0336 -1.0297 -1.0106
 9165TIP3   OH248909   0.372   3.013   2.375  0.0347  0.4983 -0.1476
 9165TIP3    H148910   0.460   3.050   2.365 -0.8246  2.6077 -0.4260
 9165TIP3    H248911   0.381   2.949   2.446  1.4811  1.8017  0.9190
 9166TIP3   OH248912   4.269   5.500   1.412 -0.4634  1.0468  0.0905
 9166TIP3    H148913   4.259   5.464   1.324 -2.3455  0.4517  0.5000
 9166TIP3    H248914   4.318   5.581   1.400  0.4663  0.3246 -1.3198
 9167TIP3   OH248915   0.564   3.988  15.051 -0.7934 -0.0619  0.1836
 9167TIP3    H148916   0.574   4.013  14.959  1.8205  0.3875  0.5054
 9167TIP3    H248917   0.517   3.905  15.048 -1.0554  0.1017 -1.5259
 9168TIP3   OH248918   3.811   4.319   6.459  0.1077 -0.4020  0.4013
 9168TIP3    H148919   3.818   4.312   6.554 -0.7466  2.4398  0.7786
 9168TIP3    H248920   3.900   4.302   6.427  0.4723 -1.0851  1.7241
 9169TIP3   OH248921   6.284   0.242   5.423 -0.2225 -0.0376 -0.2298
 9169TIP3    H148922   6.320   0.167   5.471 -1.5082 -0.1885  0.5535
 9169TIP3    H248923   6.232   0.289   5.489 -0.4319  0.8505 -1.0141
 9170TIP3   OH248924   6.702   4.425   4.434  0.0125  0.6093 -0.1475
 9170TIP3    H148925   6.624   4.447   4.486  0.2854 -1.0762  1.0836
 9170TIP3    H248926   6.699   4.485   4.360 -1.9913  1.1774  0.3143
 9171TIP3   OH248927   3.965   2.034   3.033  0.2336 -0.6516  0.5424
 9171TIP3    H148928   3.921   1.998   2.955 -0.0115 -1.1731  0.9133
 9171TIP3    H248929   3.968   1.960   3.094  1.9484 -0.7302  0.3997
 9172TIP3   OH248930   2.507   2.454   3.974  0.1396  0.2226 -0.2864
 9172TIP3    H148931   2.581   2.455   3.913  1.1216  1.3290  0.8578
 9172TIP3    H248932   2.430   2.449   3.918  1.0610 -2.5178 -1.4705
 9173TIP3   OH248933   2.175   3.160  13.060  0.3633  0.7315 -0.4777
 9173TIP3    H148934   2.263   3.196  13.074 -0.3195  2.5343 -0.4945
 9173TIP3    H248935   2.118   3.221  13.107 -0.9662  0.1956 -1.3679
 9174TIP3   OH248936   4.859   0.250  16.372 -0.3003 -0.0387  0.5293
 9174TIP3    H148937   4.942   0.289  16.342 -0.1382 -0.1820  0.7882
 9174TIP3    H248938   4.835   0.302  16.449 -0.7066  0.3154  0.1702
 9175TIP3   OH248939   4.131   5.600  13.606 -0.2485 -0.3800  0.0191
 9175TIP3    H148940   4.095   5.667  13.664  0.7191 -1.0272  1.4363
 9175TIP3    H248941   4.206   5.564  13.655  0.5141 -1.0570 -1.5890
 9176TIP3   OH248942   6.252   2.100   1.340  0.1416  0.1476 -0.1512
 9176TIP3    H148943   6.198   2.134   1.411  0.4985  1.3410 -0.4303
 9176TIP3    H248944   6.213   2.136   1.261  1.5112  1.3354 -0.3396
 9177TIP3   OH248945   2.566   6.644  12.600 -0.5959  0.2398 -0.4865
 9177TIP3    H148946   2.554   6.674  12.691 -2.5797 -1.6947 -0.0378
 9177TIP3    H248947   2.661   6.638  12.590 -0.3141  0.8611  1.3291
 9178TIP3   OH248948   1.280   1.062   2.932 -0.2676 -0.2849  0.4780
 9178TIP3    H148949   1.285   1.006   3.009  1.5627  2.3171  2.4511
 9178TIP3    H248950   1.236   1.141   2.963  0.7143  0.9289 -1.0761
 9179TIP3   OH248951   1.292   0.687  11.493 -0.2372 -0.0382  0.1008
 9179TIP3    H148952   1.249   0.721  11.571 -0.2761  1.4497 -0.5294
 9179TIP3    H248953   1.230   0.702  11.422  1.1194  1.8759 -0.7729
 9180TIP3   OH248954   6.669   5.496  10.710  0.4439 -0.3822  0.2710
 9180TIP3    H148955   6.600   5.520  10.772 -0.3252 -1.2641 -0.2252
 9180TIP3    H248956   6.702   5.412  10.742 -0.2044 -1.0231 -0.6770
 9181TIP3   OH248957   3.637   2.007  13.136 -0.1147 -0.5089  0.1228
 9181TIP3    H148958   3.553   2.046  13.114  0.8315  0.3445 -2.3691
 9181TIP3    H248959   3.694   2.030  13.063  1.9605 -2.1124  1.1140
 9182TIP3   OH248960   4.977   5.834  13.762  0.3282 -0.4391 -0.3586
 9182TIP3    H148961   5.010   5.747  13.737 -0.0967 -1.2771  1.8237
 9182TIP3    H248962   4.888   5.818  13.794  0.1147  0.8644 -0.2561
 9183TIP3   OH248963   5.363   4.006   6.113  0.0751 -0.1474 -0.1019
 9183TIP3    H148964   5.412   3.924   6.121 -0.6041 -0.3233  3.9586
 9183TIP3    H248965   5.427   4.069   6.079  1.1835 -1.8209 -1.2908
 9184TIP3   OH248966   1.846   5.744   1.958  0.5137 -0.3120  0.6767
 9184TIP3    H148967   1.826   5.706   1.873  0.3867 -0.2856  0.6955
 9184TIP3    H248968   1.791   5.696   2.020 -1.8540  1.8313  0.3804
 9185TIP3   OH248969   3.702   0.075   4.904 -0.8360 -0.0735  0.7310
 9185TIP3    H148970   3.656   0.145   4.950 -2.3914 -1.0569  0.7132
 9185TIP3    H248971   3.793   0.082   4.935 -1.3873  0.6728  2.2614
 9186TIP3   OH248972   5.779   3.018   5.923  0.0147  0.3927  0.0350
 9186TIP3    H148973   5.707   2.985   5.978  0.8046  0.0212  0.8622
 9186TIP3    H248974   5.799   2.946   5.863  0.2007  0.2190  0.3056
 9187TIP3   OH248975   6.582   6.583  16.532 -0.2165  0.0350  0.6229
 9187TIP3    H148976   6.546   6.609  16.616 -1.1278 -1.7750  0.8449
 9187TIP3    H248977   6.584   6.664  16.481 -2.5059  0.6506  1.3830
 9188TIP3   OH248978   0.449   3.007   3.293 -0.1413  0.3644  0.7144
 9188TIP3    H148979   0.526   3.054   3.258 -0.4378  0.2526 -0.1224
 9188TIP3    H248980   0.477   2.977   3.379  1.0852 -0.4470  0.0762
 9189TIP3   OH248981   3.487   2.687  17.060 -0.6611 -0.2284 -0.0763
 9189TIP3    H148982   3.579   2.662  17.060 -1.3670 -3.1964 -0.6352
 9189TIP3    H248983   3.446   2.631  16.994 -3.1500 -0.2342  1.3210
 9190TIP3   OH248984   2.250   2.812   5.533 -0.4903 -0.2723  0.4779
 9190TIP3    H148985   2.174   2.848   5.488  0.3105  0.2247 -0.5299
 9190TIP3    H248986   2.258   2.864   5.613 -0.3079  0.7277 -0.1669
 9191TIP3   OH248987   1.189   2.466  10.255 -0.0748  0.0284  0.3253
 9191TIP3    H148988   1.152   2.432  10.174  0.2197  2.5164 -0.9721
 9191TIP3    H248989   1.122   2.527  10.288  0.1813 -0.2974  1.4853
 9192TIP3   OH248990   5.073   0.391   5.196  0.3068 -0.0468 -0.0483
 9192TIP3    H148991   5.017   0.339   5.254 -2.2056 -0.5134 -2.6810
 9192TIP3    H248992   5.153   0.338   5.187  0.2788 -0.5203  1.9532
 9193TIP3   OH248993   4.748   1.130   5.832 -0.2566  0.0795  0.6297
 9193TIP3    H148994   4.839   1.140   5.860 -0.3525  2.7402  0.2311
 9193TIP3    H248995   4.697   1.179   5.896 -0.9357  2.2271 -1.4130
 9194TIP3   OH248996   4.174   0.812   2.649  0.5478  0.1014  0.2491
 9194TIP3    H148997   4.162   0.874   2.721 -2.1109 -1.0714  0.9465
 9194TIP3    H248998   4.216   0.737   2.690  2.9234  0.9832 -0.4052
 9195TIP3   OH248999   0.551   1.722  14.561  0.8077  0.1094  0.0540
 9195TIP3    H149000   0.476   1.766  14.600  1.6404  4.1772 -2.3276
 9195TIP3    H249001   0.625   1.780  14.578  2.1655 -0.5649 -2.8519
 9196TIP3   OH249002   3.744   0.909  10.894  0.5471  0.7209 -0.0675
 9196TIP3    H149003   3.750   1.003  10.876 -2.7505  1.2543  0.9942
 9196TIP3    H249004   3.740   0.869  10.807 -0.7179  1.8490 -0.5697
 9197TIP3   OH249005   1.845   1.414   5.634 -0.2204  0.4950  0.3264
 9197TIP3    H149006   1.750   1.421   5.644 -0.5407  0.0512 -1.7745
 9197TIP3    H249007   1.875   1.503   5.617 -0.3587  0.5431  0.3380
 9198TIP3   OH249008   0.220   6.038  11.477 -0.1198  0.4420 -0.3882
 9198TIP3    H149009   0.231   5.992  11.394 -0.0561  0.4420 -0.3795
 9198TIP3    H249010   0.198   5.970  11.540  1.3790  0.2302 -0.0738
 9199TIP3   OH249011   3.537   6.624   0.774  0.2206 -0.1167 -0.1790
 9199TIP3    H149012   3.550   6.583   0.689  0.4358 -0.8148  0.1855
 9199TIP3    H249013   3.481   6.563   0.822 -0.6658  0.7109 -0.1411
 9200TIP3   OH249014   0.314   3.065   1.148  0.0939 -0.3412 -0.2585
 9200TIP3    H149015   0.220   3.081   1.133 -0.1567  1.1116  2.1881
 9200TIP3    H249016   0.318   2.976   1.183 -0.2573 -0.6828 -1.0593
 9201TIP3   OH249017   2.437   4.802   4.911  0.9621  0.0507  0.7324
 9201TIP3    H149018   2.513   4.799   4.853 -0.6210  0.0569 -1.4669
 9201TIP3    H249019   2.440   4.719   4.960  0.9307 -1.2443 -1.3479
 9202TIP3   OH249020   5.333   3.427  14.272  0.2655  0.6437 -0.2497
 9202TIP3    H149021   5.420   3.405  14.305  0.1166  1.3883  0.6718
 9202TIP3    H249022   5.329   3.523  14.275 -1.0786  0.5814  1.0734
 9203TIP3   OH249023   5.127   3.267   2.212  0.0541 -0.1683  0.6081
 9203TIP3    H149024   5.179   3.337   2.251  0.1911  0.3450 -0.4610
 9203TIP3    H249025   5.164   3.186   2.248  0.2387  0.2794  1.4423
 9204TIP3   OH249026   2.798   4.965  16.038 -0.1611  0.2378 -0.2566
 9204TIP3    H149027   2.841   5.049  16.055 -0.3287 -0.0693  1.9590
 9204TIP3    H249028   2.794   4.959  15.943  2.2508  1.5078 -0.5035
 9205TIP3   OH249029   3.157   0.571  16.935  0.0325 -0.0534  0.0046
 9205TIP3    H149030   3.228   0.529  16.888 -0.0561  0.0544 -0.2252
 9205TIP3    H249031   3.194   0.593  17.021  0.0995 -0.5323  0.0972
 9206TIP3   OH249032   3.357   6.744  13.195 -0.0241 -0.0663  0.1753
 9206TIP3    H149033   3.285   6.807  13.189  0.3036  0.5611  2.2375
 9206TIP3    H249034   3.328   6.670  13.140 -1.6162  0.7245 -0.1211
 9207TIP3   OH249035   1.683   3.316   6.282 -0.5472  0.2718 -0.6133
 9207TIP3    H149036   1.627   3.329   6.206 -0.3296 -0.2772 -0.8756
 9207TIP3    H249037   1.696   3.221   6.286 -1.6364  0.1476  0.8811
 9208TIP3   OH249038   0.544   1.455  11.249  0.1999 -0.0649 -0.2446
 9208TIP3    H149039   0.629   1.420  11.278 -0.2784 -1.2706 -0.2247
 9208TIP3    H249040   0.563   1.545  11.222  1.6645 -0.5872 -1.0953
 9209TIP3   OH249041   2.753   4.037   4.014 -0.3304  0.2749 -0.1453
 9209TIP3    H149042   2.673   4.067   3.972  0.0030  0.6444 -0.5253
 9209TIP3    H249043   2.799   4.117   4.038 -0.4714  0.0664  0.8438
 9210TIP3   OH249044   5.476   1.950  16.956 -0.4971 -0.3682  0.4253
 9210TIP3    H149045   5.556   2.002  16.963  0.0245 -1.2081  0.9879
 9210TIP3    H249046   5.478   1.893  17.032 -1.1229 -1.0984 -0.0847
 9211TIP3   OH249047   1.915   4.790  15.834 -0.5091 -0.1626  0.0113
 9211TIP3    H149048   1.946   4.880  15.841 -1.4834  0.4472 -2.3300
 9211TIP3    H249049   1.983   4.744  15.785 -0.8959 -0.1596 -0.5456
 9212TIP3   OH249050   0.500   2.244   4.788 -0.2247  0.2520  0.2290
 9212TIP3    H149051   0.500   2.339   4.794 -2.5784  0.4207 -1.3235
 9212TIP3    H249052   0.551   2.224   4.710 -1.8034  0.4232 -0.8709
 9213TIP3   OH249053   2.483   5.657   2.880  0.2205 -0.2793 -0.0256
 9213TIP3    H149054   2.526   5.677   2.963 -0.3315  2.8187 -0.3691
 9213TIP3    H249055   2.407   5.605   2.904 -0.6969  1.7082  1.6191
 9214TIP3   OH249056   5.944   2.592   0.324 -0.5109 -0.3793 -0.4911
 9214TIP3    H149057   5.956   2.617   0.416 -2.6507  0.0447 -0.2739
 9214TIP3    H249058   5.956   2.497   0.323 -1.3689 -0.5177  0.4377
 9215TIP3   OH249059   0.207   1.167  15.008 -0.1654  0.3270  0.5782
 9215TIP3    H149060   0.157   1.222  14.947 -1.3988  1.1438  2.2538
 9215TIP3    H249061   0.223   1.087  14.959 -1.3986  0.8224 -0.7221
 9216TIP3   OH249062   0.054   3.782   4.416  0.3638  0.2714  0.2463
 9216TIP3    H149063   0.062   3.688   4.397 -0.0836  0.4410 -0.8795
 9216TIP3    H249064  -0.040   3.796   4.430  0.5513  0.3711  1.5366
 9217TIP3   OH249065   1.637   0.540   6.676 -0.1173 -0.2072  0.1333
 9217TIP3    H149066   1.544   0.519   6.688 -0.2490  0.3382  0.1227
 9217TIP3    H249067   1.681   0.502   6.752 -0.1894 -1.4170 -0.4037
 9218TIP3   OH249068   3.626   2.320  14.173  0.2847  0.1462  0.3582
 9218TIP3    H149069   3.578   2.359  14.245 -1.6128 -0.3071 -0.5764
 9218TIP3    H249070   3.584   2.356  14.094 -0.9988 -2.9284 -0.5435
 9219TIP3   OH249071   4.931   5.812  11.081  0.0073  0.0421 -0.3450
 9219TIP3    H149072   4.918   5.849  10.993  1.2685  1.6405  0.0940
 9219TIP3    H249073   4.842   5.799  11.115 -0.4957  1.4411 -1.0498
 9220TIP3   OH249074   3.254   0.736   5.512  0.5522 -0.3725 -0.3339
 9220TIP3    H149075   3.159   0.731   5.499 -0.1487  1.4818  2.7834
 9220TIP3    H249076   3.271   0.829   5.526  2.6921 -0.7764  0.0821
 9221TIP3   OH249077   4.408   5.612  17.289 -0.1382  0.5064  0.0737
 9221TIP3    H149078   4.478   5.662  17.332 -0.8521  1.8236 -0.2379
 9221TIP3    H249079   4.431   5.615  17.196  1.1169 -1.8824  0.2415
 9222TIP3   OH249080   5.366   5.908   5.720 -0.6832 -0.2848  0.5106
 9222TIP3    H149081   5.425   5.839   5.751 -0.1888 -0.1564 -0.1091
 9222TIP3    H249082   5.413   5.948   5.647  0.0065  2.0885  2.1055
 9223TIP3   OH249083   3.105   0.462  15.853  0.1190 -0.1507 -0.2350
 9223TIP3    H149084   3.085   0.414  15.933  0.7688 -0.4668 -0.2536
 9223TIP3    H249085   3.028   0.450  15.797  0.0738 -0.7596 -0.0469
 9224TIP3   OH249086   2.518   0.976   0.736  0.1211  0.1804 -0.0981
 9224TIP3    H149087   2.532   1.014   0.823  0.2945  0.3975 -0.2195
 9224TIP3    H249088   2.582   0.905   0.731  0.4257  0.4613 -0.2231
 9225TIP3   OH249089   3.677   2.126   2.802 -0.2737  0.2508  0.3090
 9225TIP3    H149090   3.703   2.166   2.885 -1.9749  1.9340  0.1031
 9225TIP3    H249091   3.711   2.037   2.806  0.4181  0.5612  2.4351
 9226TIP3   OH249092   2.517   2.752   4.038  0.1540  0.2520 -0.5415
 9226TIP3    H149093   2.571   2.672   4.040  1.1669  0.9179 -0.3721
 9226TIP3    H249094   2.445   2.731   3.980  1.3655 -0.2101 -1.9375
 9227TIP3   OH249095   0.090   3.228   0.892 -0.1352 -0.5980  0.3706
 9227TIP3    H149096   0.078   3.316   0.927 -2.0215 -0.7207  0.1444
 9227TIP3    H249097   0.168   3.234   0.837  0.0317  0.8119  0.7229
 9228TIP3   OH249098   4.818   0.433   3.703 -0.5282 -0.0319  0.1956
 9228TIP3    H149099   4.737   0.409   3.748 -1.9057  0.6925 -1.7222
 9228TIP3    H249100   4.835   0.360   3.643 -0.3316  0.2696 -0.1231
 9229TIP3   OH249101   3.836   0.786   2.968 -0.1379  0.4294 -0.0803
 9229TIP3    H149102   3.867   0.828   2.888  1.1831  1.5220  0.9730
 9229TIP3    H249103   3.795   0.705   2.937 -0.8638  1.4388 -1.9704
 9230TIP3   OH249104   5.434   3.794  12.850  0.6562 -0.6700  0.4563
 9230TIP3    H149105   5.343   3.782  12.877  0.5615  0.2012  0.5608
 9230TIP3    H249106   5.473   3.845  12.921  1.2757 -1.1837  0.4899
 9231TIP3   OH249107   3.690   4.635   6.032 -0.1914  0.0296  0.0027
 9231TIP3    H149108   3.671   4.569   6.099  0.0298 -1.9032 -1.7107
 9231TIP3    H249109   3.605   4.669   6.006 -0.3123  0.4310  0.8913
 9232TIP3   OH249110   2.483   2.443  12.541  0.1955 -0.1522 -0.0636
 9232TIP3    H149111   2.496   2.374  12.606 -0.1682 -0.1303  0.0309
 9232TIP3    H249112   2.457   2.520  12.592  1.4307  0.3054 -0.0726
 9233TIP3   OH249113   1.085   4.439  17.109 -0.7232  0.2692 -0.1749
 9233TIP3    H149114   1.160   4.426  17.052 -1.2192 -0.0399 -0.7735
 9233TIP3    H249115   1.043   4.353  17.113 -0.2904  0.1005  1.2567
 9234TIP3   OH249116   0.851   5.647   4.736 -0.4751  0.8903 -0.6803
 9234TIP3    H149117   0.935   5.606   4.758  0.0582  1.7969 -0.9640
 9234TIP3    H249118   0.863   5.739   4.757 -1.2343  1.1200 -1.2127
 9235TIP3   OH249119   2.351   0.914  14.762  0.7727  1.0094 -0.1239
 9235TIP3    H149120   2.278   0.889  14.705 -0.6703  1.9813  1.2224
 9235TIP3    H249121   2.322   0.893  14.850  2.0912  1.5077  0.4588
 9236TIP3   OH249122   6.046   2.865   4.068  0.0174 -0.1033  0.0157
 9236TIP3    H149123   6.052   2.775   4.099 -1.0674 -0.2740 -0.2483
 9236TIP3    H249124   6.106   2.869   3.993  1.4488 -0.1037  1.1138
 9237TIP3   OH249125   2.203   4.393   3.201  0.4822 -0.1819 -0.2657
 9237TIP3    H149126   2.233   4.483   3.215  2.2995 -0.9680  1.2533
 9237TIP3    H249127   2.170   4.365   3.286 -0.1599 -0.9259 -0.7486
 9238TIP3   OH249128   4.822   1.410   1.380 -0.0245 -0.2556 -0.5221
 9238TIP3    H149129   4.840   1.317   1.364 -0.0736 -0.7099  1.7050
 9238TIP3    H249130   4.726   1.416   1.380 -0.2669 -1.2117  3.6278
 9239TIP3   OH249131   5.795   6.092   4.139  0.2323 -0.0142  0.0861
 9239TIP3    H149132   5.760   6.004   4.157  0.5138 -0.3911 -1.1306
 9239TIP3    H249133   5.860   6.078   4.070  0.9428  1.0348  0.5290
 9240TIP3   OH249134   2.560   4.302  15.365  0.2602 -0.8773 -0.5175
 9240TIP3    H149135   2.498   4.244  15.409 -1.6653  0.3423 -1.4743
 9240TIP3    H249136   2.589   4.362  15.433  1.1676 -2.0411  0.1521
 9241TIP3   OH249137   2.108   2.651  13.517 -0.6674  0.1496  0.1676
 9241TIP3    H149138   2.077   2.683  13.433  0.1474 -1.7444 -0.8953
 9241TIP3    H249139   2.115   2.556  13.507 -1.2179 -0.2265  2.5998
 9242TIP3   OH249140   1.453   2.340  11.526  0.3068  0.2558  0.0252
 9242TIP3    H149141   1.407   2.421  11.507 -0.4203  0.0583  0.8829
 9242TIP3    H249142   1.522   2.365  11.587 -0.4124  0.1255  0.9181
 9243TIP3   OH249143   2.153   5.046   3.624  0.0056 -0.3910  0.2747
 9243TIP3    H149144   2.173   5.013   3.712  2.3955 -1.6557 -0.6603
 9243TIP3    H249145   2.078   4.995   3.596 -0.2281 -0.6082  1.2520
 9244TIP3   OH249146   6.142   0.641   1.283  0.4413  0.2060  0.0399
 9244TIP3    H149147   6.064   0.643   1.227  1.1969  1.9660 -1.0550
 9244TIP3    H249148   6.137   0.557   1.328 -2.4624  0.5350  0.5692
 9245TIP3   OH249149   0.465   5.048  11.485  0.1535  0.4392 -0.2282
 9245TIP3    H149150   0.499   5.013  11.567  0.3882 -0.5168 -0.7247
 9245TIP3    H249151   0.534   5.030  11.420 -0.7681 -0.4251 -0.9967
 9246TIP3   OH249152   2.104   5.270  15.098  0.4282  0.0794 -0.0345
 9246TIP3    H149153   2.177   5.211  15.079  1.1985  1.0482 -0.1748
 9246TIP3    H249154   2.101   5.329  15.023 -1.0179 -0.4242 -0.4074
 9247TIP3   OH249155   3.088   6.557   2.086 -0.4151  0.3693  0.2637
 9247TIP3    H149156   3.117   6.514   2.166  0.8003 -0.4497 -0.5713
 9247TIP3    H249157   3.098   6.490   2.018 -0.4260  1.3548 -0.7413
 9248TIP3   OH249158   4.066   4.208  13.037 -0.3064  0.2671 -0.1231
 9248TIP3    H149159   4.097   4.145  12.973 -2.3493 -1.3521  0.3708
 9248TIP3    H249160   3.994   4.254  12.993 -2.3199 -1.4620  1.1361
 9249TIP3   OH249161   6.231   0.854   1.158 -0.3132  0.4653  0.2175
 9249TIP3    H149162   6.217   0.923   1.223 -0.1586 -1.0228  1.9115
 9249TIP3    H249163   6.201   0.774   1.201 -0.0449 -0.6130 -1.5034
 9250TIP3   OH249164   2.800   2.231  14.334  0.1366  0.7294  0.0850
 9250TIP3    H149165   2.830   2.175  14.262 -1.3420  1.2356 -0.9678
 9250TIP3    H249166   2.859   2.210  14.406  0.5161 -1.1348 -0.7110
 9251TIP3   OH249167   4.969   3.325  12.656 -0.4822 -0.7173  0.0711
 9251TIP3    H149168   4.976   3.420  12.670 -2.6492 -0.6459  1.0117
 9251TIP3    H249169   4.982   3.315  12.561 -2.3204  0.8228 -0.4240
 9252TIP3   OH249170   1.703   2.906  11.147  0.3787  0.1136  0.2485
 9252TIP3    H149171   1.721   2.838  11.212  1.9974  0.8675  0.6489
 9252TIP3    H249172   1.620   2.880  11.107 -0.3296 -0.7287  2.1450
 9253TIP3   OH249173   0.763   6.064  16.717 -0.0872 -0.0251  0.3851
 9253TIP3    H149174   0.682   6.114  16.703 -0.9425 -1.6148 -0.7431
 9253TIP3    H249175   0.818   6.085  16.642  1.1468  2.0155  1.7653
 9254TIP3   OH249176   4.275   5.290   0.337  0.1664 -0.6391 -0.4458
 9254TIP3    H149177   4.279   5.245   0.253  0.6836  0.8796 -1.2824
 9254TIP3    H249178   4.351   5.258   0.385  0.8498 -0.2608 -1.2469
 9255TIP3   OH249179   4.616   5.333  14.501 -0.2014 -0.3516  1.0116
 9255TIP3    H149180   4.684   5.268  14.483  0.2664  0.2436  0.5812
 9255TIP3    H249181   4.535   5.293  14.468  0.2531 -0.2937 -0.2294
 9256TIP3   OH249182   3.522   6.521   3.169  0.3627  0.1174 -0.2009
 9256TIP3    H149183   3.531   6.427   3.156 -0.4361 -0.7283  4.0126
 9256TIP3    H249184   3.605   6.548   3.207  0.5745  1.1481 -1.3555
 9257TIP3   OH249185   2.341   3.227  15.342  0.0710 -0.6405 -0.5454
 9257TIP3    H149186   2.411   3.229  15.276  0.2143  1.2194 -0.3917
 9257TIP3    H249187   2.272   3.283  15.306 -0.1295 -0.1417  0.5724
 9258TIP3   OH249188   1.195   5.042   0.400 -0.1996  0.5259  0.0110
 9258TIP3    H149189   1.226   5.045   0.310  0.1231 -1.3322  0.0263
 9258TIP3    H249190   1.267   5.003   0.450 -1.3417 -0.9106  0.5945
 9259TIP3   OH249191   3.839   0.887   6.235 -0.1781 -0.2175  0.7071
 9259TIP3    H149192   3.787   0.851   6.163  0.2378 -0.1620  0.3779
 9259TIP3    H249193   3.879   0.966   6.199 -0.6397  0.2772  1.2597
 9260TIP3   OH249194   3.690   5.012  12.073 -0.0487  0.2032 -0.2675
 9260TIP3    H149195   3.700   5.055  11.989  1.0544  1.9305  0.6896
 9260TIP3    H249196   3.711   5.079  12.138 -1.5490 -0.8451  1.4331
 9261TIP3   OH249197   4.831   2.534   6.264  0.5598 -0.0622  0.2834
 9261TIP3    H149198   4.755   2.578   6.301  0.4468 -0.4007  0.4498
 9261TIP3    H249199   4.881   2.504   6.339  0.3078 -0.7877  0.1638
 9262TIP3   OH249200   3.226   2.491   4.921 -0.4558 -0.0706  0.0356
 9262TIP3    H149201   3.251   2.558   4.985  0.3752  0.8745 -1.2225
 9262TIP3    H249202   3.305   2.440   4.906 -1.2459 -1.8027  1.4559
 9263TIP3   OH249203   3.979   2.503   0.639 -0.2670  0.2956  0.2890
 9263TIP3    H149204   4.057   2.557   0.628  0.4363 -0.6417  0.5189
 9263TIP3    H249205   3.906   2.562   0.622  0.5124  0.9582 -0.8820
 9264TIP3   OH249206   1.864   4.083  17.074  0.0361 -0.2124  0.3162
 9264TIP3    H149207   1.892   4.090  16.982 -0.2457  0.1304  0.2565
 9264TIP3    H249208   1.927   4.137  17.122  0.1854 -0.3947  0.3263
 9265TIP3   OH249209   5.449   3.888   5.613  0.2089 -0.3150 -0.5635
 9265TIP3    H149210   5.522   3.949   5.613 -0.0236 -0.0304 -0.2672
 9265TIP3    H249211   5.420   3.885   5.704  0.1402 -0.7762 -0.5987
 9266TIP3   OH249212   3.998   2.032  13.945 -0.5879  0.1571 -0.1875
 9266TIP3    H149213   4.044   2.094  13.889  0.5834 -1.1553 -0.7293
 9266TIP3    H249214   3.917   2.012  13.897  0.3725 -0.9076 -1.4251
 9267TIP3   OH249215   1.222   2.883   5.598 -0.3726 -0.3527 -0.0007
 9267TIP3    H149216   1.181   2.801   5.623 -1.1403 -0.2260 -0.7860
 9267TIP3    H249217   1.312   2.877   5.631 -0.2377 -1.7510 -0.5755
 9268TIP3   OH249218   0.949   5.599   0.360  0.0866 -0.7441  0.1075
 9268TIP3    H149219   0.992   5.651   0.427 -1.5246  0.2192  0.4712
 9268TIP3    H249220   0.895   5.537   0.409  0.3327 -1.2996 -0.3175
 9269TIP3   OH249221   1.215   1.222  11.735 -0.2884 -0.0665 -0.4196
 9269TIP3    H149222   1.187   1.311  11.715  2.4190  1.1482  0.7177
 9269TIP3    H249223   1.247   1.226  11.825 -1.4094 -2.5774  0.1913
 9270TIP3   OH249224   5.800   2.203  13.141 -0.9519 -0.4356 -0.2557
 9270TIP3    H149225   5.854   2.137  13.185 -0.8022  0.0196  0.2527
 9270TIP3    H249226   5.783   2.269  13.208  0.6326  1.0997 -1.2652
 9271TIP3   OH249227   4.302   0.920  11.095 -0.0159  0.7314  0.0895
 9271TIP3    H149228   4.351   0.876  11.026 -2.1854  0.1802 -1.1866
 9271TIP3    H249229   4.286   0.851  11.160  1.0704  0.9817  0.6505
 9272TIP3   OH249230   2.955   1.996  15.057  0.0120  0.2114  0.3088
 9272TIP3    H149231   2.952   1.971  14.964  1.4214 -0.4465  0.4118
 9272TIP3    H249232   3.002   2.079  15.057 -0.1755  0.3159  0.4092
 9273TIP3   OH249233   3.590   1.154   2.361 -0.2978 -0.2605 -0.1401
 9273TIP3    H149234   3.644   1.076   2.349  0.9804  0.7244 -1.1460
 9273TIP3    H249235   3.642   1.210   2.418 -1.9531 -0.7813  2.0026
 9274TIP3   OH249236   2.929   3.679   4.430  0.2474  0.0179 -0.3427
 9274TIP3    H149237   2.919   3.628   4.350  0.6128 -1.3945  0.4711
 9274TIP3    H249238   2.876   3.633   4.495  1.0104  0.3546  0.5515
 9275TIP3   OH249239   1.126   2.088   5.408  0.3978  0.1185 -0.3731
 9275TIP3    H149240   1.102   2.165   5.460 -0.8419  0.0692 -0.8374
 9275TIP3    H249241   1.044   2.041   5.395  1.2501 -1.7277  0.5554
 9276TIP3   OH249242   1.836   5.002   1.833  0.5025  0.1722 -0.0129
 9276TIP3    H149243   1.761   5.022   1.776  0.0726 -0.1065  0.4451
 9276TIP3    H249244   1.810   4.922   1.879  1.9768 -1.2096 -1.4429
 9277TIP3   OH249245   2.934   3.894  14.609 -0.4105  1.0577 -0.6336
 9277TIP3    H149246   3.021   3.857  14.626 -0.5265  1.1963  0.3007
 9277TIP3    H249247   2.901   3.918  14.695 -1.7251  0.2470 -0.8872
 9278TIP3   OH249248   2.806   3.727   5.648  0.2051  0.0954 -0.0985
 9278TIP3    H149249   2.867   3.699   5.580 -1.7912  0.5120 -2.1720
 9278TIP3    H249250   2.815   3.660   5.716  1.2534 -1.1475 -1.3740
 9279TIP3   OH249251   0.989   1.309   3.761 -0.2879 -0.1199 -0.2111
 9279TIP3    H149252   1.061   1.371   3.750  0.4093 -0.9763 -0.6023
 9279TIP3    H249253   0.939   1.315   3.680 -1.0790  0.9661  0.3246
 9280TIP3   OH249254   4.922   0.859   0.515 -0.2063  0.0935  0.1042
 9280TIP3    H149255   4.943   0.952   0.518  0.0277  0.0794 -0.6825
 9280TIP3    H249256   4.870   0.849   0.435  2.7389 -0.9779 -1.8401
 9281TIP3   OH249257   2.034   0.013   2.363  0.1567  0.0737 -0.8117
 9281TIP3    H149258   1.946   0.051   2.367 -0.5607 -1.4382 -1.5478
 9281TIP3    H249259   2.023  -0.077   2.393  1.5631  0.0078 -0.4209
 9282TIP3   OH249260   2.728   2.364  11.811  0.1287  0.2895  0.1558
 9282TIP3    H149261   2.706   2.354  11.903 -0.2042 -0.4393  0.0009
 9282TIP3    H249262   2.652   2.407  11.772  0.1211  0.2777  0.1571
 9283TIP3   OH249263   0.523   4.113   0.180  0.0327  0.5033  0.0451
 9283TIP3    H149264   0.543   4.204   0.202 -0.5898  0.2030  2.0792
 9283TIP3    H249265   0.493   4.074   0.263  0.1741 -1.5273 -0.7891
 9284TIP3   OH249266   5.234   1.364  15.873 -0.0710  0.4839 -0.0912
 9284TIP3    H149267   5.155   1.377  15.821 -0.8690 -0.0197  0.9484
 9284TIP3    H249268   5.288   1.441  15.855 -0.9561  1.0093 -0.5434
 9285TIP3   OH249269   4.414   1.574  12.211  0.4651  0.1225 -0.2612
 9285TIP3    H149270   4.407   1.603  12.302  1.0226  0.1630 -0.2308
 9285TIP3    H249271   4.375   1.645  12.160 -0.5993 -0.2517 -0.0109
 9286TIP3   OH249272   5.485   1.155  15.070  0.1911 -0.6084 -0.1609
 9286TIP3    H149273   5.510   1.066  15.098 -0.4831 -0.3415  1.3973
 9286TIP3    H249274   5.499   1.209  15.148 -1.6816  0.2133 -0.3561
 9287TIP3   OH249275   5.434   2.235   1.158 -0.4596  0.3884 -0.0551
 9287TIP3    H149276   5.447   2.207   1.248 -0.3036 -1.7451 -0.7033
 9287TIP3    H249277   5.340   2.224   1.142 -0.5362  1.0302 -0.0933
 9288TIP3   OH249278   3.564   1.078   3.513  0.2808  0.1535 -0.2281
 9288TIP3    H149279   3.657   1.062   3.497  0.1694 -0.4384 -0.3036
 9288TIP3    H249280   3.540   1.145   3.448  0.3917 -0.5230 -0.9887
 9289TIP3   OH249281   4.431   6.264   2.449  0.7037  0.3934  0.0809
 9289TIP3    H149282   4.491   6.203   2.408 -0.8346 -0.8019 -0.4727
 9289TIP3    H249283   4.424   6.233   2.540  1.2378  0.8126  0.2760
 9290TIP3   OH249284   2.639   3.574  11.798  0.1557  0.2052  0.1145
 9290TIP3    H149285   2.560   3.579  11.853  0.8678 -0.4798  1.2227
 9290TIP3    H249286   2.700   3.635  11.839  0.9829 -0.9151  0.5827
 9291TIP3   OH249287   0.258   2.113  15.767 -0.1530 -0.5878  0.0722
 9291TIP3    H149288   0.313   2.120  15.688  1.6634 -1.7085  1.1508
 9291TIP3    H249289   0.319   2.131  15.839 -1.5499 -0.5609  1.2745
 9292TIP3   OH249290   4.826   4.945   0.281  0.0363  0.0401  0.2724
 9292TIP3    H149291   4.832   5.027   0.329  1.7420 -0.7982  1.6002
 9292TIP3    H249292   4.911   4.936   0.237  0.0276 -1.1500  0.4464
 9293TIP3   OH249293   3.663   1.769  17.185 -0.2953 -0.7947 -0.3035
 9293TIP3    H149294   3.670   1.702  17.254 -0.3438  0.0104  0.5002
 9293TIP3    H249295   3.597   1.830  17.218  0.6131  0.3012 -0.4602
 9294TIP3   OH249296   2.447   2.979  13.906 -0.1142 -0.3504 -0.4448
 9294TIP3    H149297   2.371   3.027  13.874  0.4374 -0.4790 -2.0522
 9294TIP3    H249298   2.418   2.889  13.913  0.2532 -0.6765 -2.5294
 9295TIP3   OH249299   0.282   3.367   4.604 -0.1650 -0.6271  0.5590
 9295TIP3    H149300   0.351   3.375   4.669  0.4439 -3.0634  0.3340
 9295TIP3    H249301   0.202   3.391   4.651  0.2658 -2.2008  2.2336
 9296TIP3   OH249302   5.233   6.168   3.458  0.2054  0.1156  0.5044
 9296TIP3    H149303   5.263   6.242   3.405  0.0358  0.9007  1.4551
 9296TIP3    H249304   5.304   6.152   3.520  0.8182 -1.4324 -0.5514
 9297TIP3   OH249305   0.096   3.698  14.309  0.1984  0.2675 -0.3282
 9297TIP3    H149306   0.104   3.654  14.393  0.5880  1.5400  0.3309
 9297TIP3    H249307   0.072   3.629  14.247 -0.3635 -0.6349  0.8690
 9298TIP3   OH249308   6.050   6.297   5.350 -0.1749  0.7066 -0.2462
 9298TIP3    H149309   6.111   6.276   5.280  0.9043  0.8695  0.6117
 9298TIP3    H249310   5.974   6.241   5.333  0.8157 -0.6202 -0.5152
 9299TIP3   OH249311   5.037   3.662  16.059 -0.0087 -0.1297 -0.7326
 9299TIP3    H149312   5.025   3.691  15.968  1.1065  2.9664  0.0007
 9299TIP3    H249313   5.104   3.594  16.054  1.5644  1.4402 -2.0745
 9300TIP3   OH249314   6.196   0.997   0.192 -0.9005  0.2397 -0.2989
 9300TIP3    H149315   6.106   1.018   0.216 -0.9326  2.0055 -1.7199
 9300TIP3    H249316   6.246   1.075   0.217  0.5200 -1.2240  1.7059
 9301TIP3   OH249317   6.306   4.526   5.426  0.2677 -0.1705 -0.2632
 9301TIP3    H149318   6.355   4.446   5.448  0.9186  0.3601  0.2670
 9301TIP3    H249319   6.241   4.497   5.362 -0.3801 -1.3924  0.8791
 9302TIP3   OH249320   0.216   5.403  15.140  0.2599 -0.0889  0.0377
 9302TIP3    H149321   0.274   5.378  15.212  0.7931  0.8981 -0.0165
 9302TIP3    H249322   0.254   5.485  15.108 -0.6327  0.0737 -0.6244
 9303TIP3   OH249323   2.599   5.800   4.936 -0.4844  0.1125 -0.2140
 9303TIP3    H149324   2.626   5.820   5.025 -1.3498 -2.4268  0.7055
 9303TIP3    H249325   2.515   5.754   4.946  0.2453 -1.8053 -2.1704
 9304TIP3   OH249326   6.715   3.480  11.905  0.2085 -0.4085 -0.3485
 9304TIP3    H149327   6.798   3.484  11.952  1.3381 -0.0943 -2.2515
 9304TIP3    H249328   6.737   3.439  11.821 -2.0331 -2.5947  0.0021
 9305TIP3   OH249329   4.562   6.213  12.863 -0.4381 -0.0578  0.0266
 9305TIP3    H149330   4.589   6.161  12.787 -0.9788 -1.4980  0.7706
 9305TIP3    H249331   4.644   6.241  12.903 -0.0792 -1.2551  0.1856
 9306TIP3   OH249332   0.462   0.569  16.031  0.7649 -0.5639  0.2822
 9306TIP3    H149333   0.446   0.586  16.123 -0.6107 -1.2199  0.1801
 9306TIP3    H249334   0.455   0.474  16.022  1.3212 -0.5512 -0.4341
 9307TIP3   OH249335   4.483   5.520  10.939 -0.5962  0.7375  0.3204
 9307TIP3    H149336   4.396   5.515  10.979 -0.8409  1.8310 -0.0544
 9307TIP3    H249337   4.544   5.507  11.012 -1.0470  2.0677  0.9471
 9308TIP3   OH249338   1.337   1.726   5.671  0.4187 -0.0612 -0.2580
 9308TIP3    H149339   1.263   1.765   5.718 -1.0379 -1.7077 -1.0512
 9308TIP3    H249340   1.327   1.757   5.581  0.0318 -1.0869 -0.5946
 9309TIP3   OH249341   5.505   6.227   2.047  0.0075 -0.4516 -0.1241
 9309TIP3    H149342   5.522   6.154   1.988 -0.9219 -0.2694 -0.6320
 9309TIP3    H249343   5.420   6.262   2.019 -0.1287  0.0662  0.8755
 9310TIP3   OH249344   3.602   5.551   6.193  0.3335 -0.4883 -0.9476
 9310TIP3    H149345   3.518   5.509   6.212  0.5489 -0.0617  1.1968
 9310TIP3    H249346   3.581   5.644   6.184  0.3318 -0.6019 -2.4098
 9311TIP3   OH249347   6.024   4.722  14.092 -0.0567  0.7932 -0.2992
 9311TIP3    H149348   6.008   4.688  14.004 -0.8877  0.6505 -0.1066
 9311TIP3    H249349   5.939   4.756  14.120 -1.1162 -3.1101  2.1140
 9312TIP3   OH249350   2.114   1.821  10.557 -0.0568  0.1530 -0.3776
 9312TIP3    H149351   2.127   1.795  10.649 -1.1027 -1.8542 -0.7479
 9312TIP3    H249352   2.161   1.904  10.549  1.8536 -0.6454  1.4491
 9313TIP3   OH249353   3.937   0.783   2.117 -0.0433 -0.3156 -0.0974
 9313TIP3    H149354   3.960   0.734   2.039 -0.1021  0.5077 -0.6440
 9313TIP3    H249355   4.020   0.798   2.162 -0.0807 -1.3025  0.3122
 9314TIP3   OH249356   5.077   3.924  16.985  0.5195  0.3384  0.2223
 9314TIP3    H149357   5.068   3.973  17.066  3.0543 -1.4823  1.7629
 9314TIP3    H249358   5.031   3.842  17.001  0.1028  0.4015 -0.6084
 9315TIP3   OH249359   5.378   4.169   5.787  0.0383 -0.2050  0.7054
 9315TIP3    H149360   5.455   4.160   5.843 -0.4443  0.1539  1.4393
 9315TIP3    H249361   5.327   4.089   5.804  0.9071 -1.1449 -0.8515
 9316TIP3   OH249362   4.332   0.286   4.175 -0.4465 -0.2313 -0.0915
 9316TIP3    H149363   4.342   0.207   4.123 -0.3794  1.0052 -2.0805
 9316TIP3    H249364   4.258   0.269   4.232  0.5459 -2.2711  0.6708
 9317TIP3   OH249365   6.325   5.248   4.276  0.8530 -0.8688  0.0810
 9317TIP3    H149366   6.404   5.293   4.248 -1.8817  3.4759 -1.7706
 9317TIP3    H249367   6.307   5.184   4.206 -0.8158  3.2185 -3.7084
 9318TIP3   OH249368   3.538   4.576  13.595  0.1334 -0.4488 -0.4124
 9318TIP3    H149369   3.632   4.587  13.582  0.1020  1.6654  0.6373
 9318TIP3    H249370   3.498   4.632  13.528 -0.3026  0.1277  0.3116
 9319TIP3   OH249371   6.731   1.076  12.327  0.3054 -0.4298  0.0901
 9319TIP3    H149372   6.693   1.044  12.409  2.2111 -0.6540  0.9524
 9319TIP3    H249373   6.798   1.012  12.305  0.7125  0.3155 -0.9473
 9320TIP3   OH249374   2.239   2.419  13.024  0.2991 -0.5327 -0.2617
 9320TIP3    H149375   2.217   2.451  12.936 -0.4768 -1.5454 -0.4531
 9320TIP3    H249376   2.290   2.340  13.009 -0.1609 -0.9224  0.1902
 9321TIP3   OH249377   4.486   3.046   1.309 -0.1942  0.1386 -0.3332
 9321TIP3    H149378   4.455   3.131   1.278 -1.8657 -0.5461 -0.6573
 9321TIP3    H249379   4.448   3.037   1.396 -1.0123 -0.7500 -0.7618
 9322TIP3   OH249380   5.811   1.199  11.572 -0.3447  0.5698  0.4583
 9322TIP3    H149381   5.800   1.150  11.653 -1.4162  2.1245  1.3063
 9322TIP3    H249382   5.721   1.216  11.542  0.0168 -0.7709 -1.5957
 9323TIP3   OH249383   2.297   6.499   1.366 -0.3849 -0.0175  0.2117
 9323TIP3    H149384   2.384   6.461   1.377 -0.0428  1.0317  1.4333
 9323TIP3    H249385   2.286   6.508   1.271  0.3456 -1.2329  0.0002
 9324TIP3   OH249386   1.556   5.309  10.838 -0.5976 -0.1232  0.3203
 9324TIP3    H149387   1.509   5.236  10.878 -0.4871  0.1476  0.9504
 9324TIP3    H249388   1.594   5.356  10.912 -0.1323  0.2037 -0.1277
 9325TIP3   OH249389   6.622   5.102   1.253 -0.5899  0.0537  1.0616
 9325TIP3    H149390   6.644   5.140   1.338 -1.9269  0.0155  1.4440
 9325TIP3    H249391   6.572   5.170   1.208 -0.4088 -0.1508  0.5443
 9326TIP3   OH249392   1.533   3.273  15.356  0.3945 -0.4106 -0.1990
 9326TIP3    H149393   1.616   3.265  15.308  1.6233  1.4301  1.4377
 9326TIP3    H249394   1.531   3.365  15.385 -1.6974 -0.6954  0.7289
 9327TIP3   OH249395   5.407   6.302  15.564  0.3205  0.0804 -0.0276
 9327TIP3    H149396   5.387   6.262  15.649 -0.0890 -0.7767 -0.5149
 9327TIP3    H249397   5.339   6.368  15.553  1.0822  1.0492  0.8462
 9328TIP3   OH249398   0.465   0.231  12.743  0.3217 -0.2604  0.0540
 9328TIP3    H149399   0.557   0.256  12.756  1.5356 -3.8140 -0.6043
 9328TIP3    H249400   0.422   0.254  12.825  1.2634  3.1282 -0.2368
 9329TIP3   OH249401   5.525   2.414   5.585  0.3843 -0.5626 -0.0371
 9329TIP3    H149402   5.619   2.403   5.570  0.0618 -1.4063 -1.7422
 9329TIP3    H249403   5.504   2.496   5.542  0.2894 -0.5495  0.0363
 9330TIP3   OH249404   3.967   3.514  12.452 -0.1478 -0.3732  0.6304
 9330TIP3    H149405   3.929   3.474  12.530 -0.3624  0.3041  0.8790
 9330TIP3    H249406   3.982   3.441  12.393 -1.1797 -0.7428  0.8034
 9331TIP3   OH249407   2.218   0.374  13.980 -0.0982 -0.0538  0.4200
 9331TIP3    H149408   2.176   0.451  14.018  0.7811  0.2293  0.8629
 9331TIP3    H249409   2.224   0.311  14.052  1.6053  0.4991  0.8236
 9332TIP3   OH249410   6.299   0.789  16.097 -0.1471 -0.6544 -0.0597
 9332TIP3    H149411   6.212   0.813  16.063 -0.3436  0.7823  1.2914
 9332TIP3    H249412   6.345   0.873  16.104  1.3085 -1.3833 -0.5965
 9333TIP3   OH249413   3.504   0.345  15.698  0.1684 -0.4997 -0.0815
 9333TIP3    H149414   3.595   0.362  15.723  0.5210  1.2330 -2.1969
 9333TIP3    H249415   3.453   0.392  15.764  0.9167  0.7002 -0.3105
 9334TIP3   OH249416   2.761   3.766  17.265 -0.8737 -0.1549 -0.1017
 9334TIP3    H149417   2.794   3.789  17.352  1.5946  0.0131 -1.0223
 9334TIP3    H249418   2.741   3.673  17.272  1.5174 -0.7265  0.0801
 9335TIP3   OH249419   0.476   5.656   2.313 -0.0880 -0.0511  0.3029
 9335TIP3    H149420   0.433   5.729   2.269  0.8726  1.2906  1.5060
 9335TIP3    H249421   0.431   5.647   2.396  0.1434 -0.4877  0.3859
 9336TIP3   OH249422   4.457   6.455  16.467  0.4040 -0.1371 -0.4458
 9336TIP3    H149423   4.439   6.383  16.406  1.3969  0.4125 -1.4114
 9336TIP3    H249424   4.520   6.418  16.529 -0.0789 -0.4807 -0.1464
 9337TIP3   OH249425   1.160   3.193   5.142 -0.8624 -0.1402 -0.3761
 9337TIP3    H149426   1.209   3.244   5.206 -1.9982 -1.0065  1.2347
 9337TIP3    H249427   1.153   3.251   5.066  2.1468  0.2137 -0.5057
 9338TIP3   OH249428   0.445   5.771   5.890  0.7479  0.4108 -0.0669
 9338TIP3    H149429   0.491   5.839   5.937 -0.0742  1.7228 -1.0884
 9338TIP3    H249430   0.509   5.737   5.828  0.8417  1.0722 -0.3418
 9339TIP3   OH249431   3.433   0.998  15.616 -0.1792  0.6943  0.2241
 9339TIP3    H149432   3.372   1.061  15.578 -0.5289  1.1336  1.4770
 9339TIP3    H249433   3.403   0.913  15.584  0.6563  1.1515 -1.9873
 9340TIP3   OH249434   5.440   2.112   1.422  0.0019  0.7865 -0.1873
 9340TIP3    H149435   5.436   2.023   1.388  0.4160  1.4383 -2.1143
 9340TIP3    H249436   5.385   2.111   1.501 -2.5538 -0.4619 -1.8324
 9341TIP3   OH249437   4.786   3.724   5.989 -0.3301 -0.3352  0.4481
 9341TIP3    H149438   4.849   3.658   6.018  1.0041  0.2500 -0.9904
 9341TIP3    H249439   4.830   3.808   6.006 -1.2400  0.1304  0.5608
 9342TIP3   OH249440   6.229   3.484   4.723 -0.8399 -0.0199 -0.2703
 9342TIP3    H149441   6.317   3.518   4.740  0.4483 -1.9541 -2.3388
 9342TIP3    H249442   6.201   3.447   4.806 -0.4515  2.0504  0.8582
 9343TIP3   OH249443   4.503   2.789  11.677 -0.9283 -0.3027 -0.3349
 9343TIP3    H149444   4.529   2.746  11.758 -0.1083  1.4961  0.4319
 9343TIP3    H249445   4.572   2.765  11.614 -0.5718 -0.2576  0.0339
 9344TIP3   OH249446   0.299   2.594  14.100  0.1226 -0.3069 -0.5182
 9344TIP3    H149447   0.372   2.586  14.161  0.5769  0.1592 -0.9920
 9344TIP3    H249448   0.334   2.646  14.028 -0.9443  0.7113 -0.3206
 9345TIP3   OH249449   6.509   3.200  15.148 -0.4526 -0.2699 -0.0457
 9345TIP3    H149450   6.484   3.114  15.115  3.1102 -2.2764  1.8723
 9345TIP3    H249451   6.550   3.244  15.074 -0.1805 -1.2205 -0.4672
 9346TIP3   OH249452   6.420   3.129  16.168 -0.1251  0.1741  0.1614
 9346TIP3    H149453   6.489   3.066  16.147 -1.1829 -0.7088 -0.8259
 9346TIP3    H249454   6.460   3.215  16.154  0.6693 -0.3292 -0.7425
 9347TIP3   OH249455   2.938   4.115  12.760 -0.2130  0.1314  0.5496
 9347TIP3    H149456   2.919   4.122  12.666  4.4012  0.6867 -0.5988
 9347TIP3    H249457   2.948   4.021  12.776 -1.7211 -0.0206  0.7372
 9348TIP3   OH249458   5.432   2.148   3.189  0.4427  0.0366  0.5642
 9348TIP3    H149459   5.415   2.242   3.196  0.8336  0.2011 -0.4940
 9348TIP3    H249460   5.519   2.137   3.228  0.8403  0.2924 -0.2145
 9349TIP3   OH249461   3.844   5.379   2.189 -0.0515 -0.2366  0.2840
 9349TIP3    H149462   3.889   5.393   2.272  0.5834 -1.1465  0.0985
 9349TIP3    H249463   3.815   5.467   2.163 -0.5747  0.0166  1.6324
 9350TIP3   OH249464   5.126   2.814  16.289 -0.0371 -0.1688 -0.0079
 9350TIP3    H149465   5.036   2.845  16.299  0.4500  1.1831  0.4132
 9350TIP3    H249466   5.145   2.824  16.196  0.2066  1.1473  0.1617
 9351TIP3   OH249467   4.754   0.551  15.908 -0.0202 -0.0990 -0.3490
 9351TIP3    H149468   4.824   0.563  15.973  0.3704 -0.8973 -0.6072
 9351TIP3    H249469   4.742   0.456  15.904 -0.1285 -0.0486 -1.3476
 9352TIP3   OH249470   3.510   5.251  11.381 -0.1629  0.1029  0.3288
 9352TIP3    H149471   3.505   5.319  11.314  0.2544 -0.4516 -0.2783
 9352TIP3    H249472   3.493   5.170  11.334 -0.3513 -0.2475  0.9911
 9353TIP3   OH249473   5.674   3.529  11.675  0.5412 -0.6569 -0.7184
 9353TIP3    H149474   5.664   3.520  11.770 -2.3212  0.6261 -0.8093
 9353TIP3    H249475   5.687   3.623  11.661  3.0592 -1.0345 -1.5570
 9354TIP3   OH249476   1.310   6.149   5.017 -0.1888  0.2559  0.5169
 9354TIP3    H149477   1.283   6.169   4.927  2.0646  1.6902  0.0702
 9354TIP3    H249478   1.402   6.123   5.010  0.1272  0.6783  2.4237
 9355TIP3   OH249479   1.653   3.776   1.050 -0.3880  0.4017 -0.4473
 9355TIP3    H149480   1.620   3.825   1.126  0.0812 -0.7025  0.4996
 9355TIP3    H249481   1.677   3.844   0.987 -2.6838  1.2976 -0.4520
 9356TIP3   OH249482   3.142   4.346   2.498  0.1739 -0.8626 -0.5520
 9356TIP3    H149483   3.156   4.360   2.404  0.9906  0.3563 -0.2665
 9356TIP3    H249484   3.047   4.355   2.510  0.1226 -0.5031 -1.1800
 9357TIP3   OH249485   6.220   0.884  12.113 -0.3609 -0.1867  0.2920
 9357TIP3    H149486   6.247   0.849  12.028  4.2705  1.0491  0.9708
 9357TIP3    H249487   6.148   0.828  12.140 -0.5105 -2.0880 -3.3826
 9358TIP3   OH249488   1.384   6.622  12.936  0.9636 -0.1591 -0.1796
 9358TIP3    H149489   1.306   6.666  12.902  0.5314 -0.5892  0.2135
 9358TIP3    H249490   1.407   6.672  13.015 -0.3506 -1.3810  1.0556
 9359TIP3   OH249491   5.754   2.393   0.566  0.1525  0.0783 -0.0277
 9359TIP3    H149492   5.761   2.302   0.538 -4.2933 -0.6199  0.4634
 9359TIP3    H249493   5.784   2.393   0.657  1.4278 -0.5423 -0.4253
 9360TIP3   OH249494   5.188   1.487   3.727 -1.0985 -0.2060  0.5756
 9360TIP3    H149495   5.206   1.531   3.644 -0.5592 -2.2926 -0.4974
 9360TIP3    H249496   5.273   1.455   3.757 -1.3662  0.0719  1.6715
 9361TIP3   OH249497   0.799   5.594  16.170  0.1642  0.8714  0.5467
 9361TIP3    H149498   0.737   5.574  16.240  2.1350 -1.1898  1.7982
 9361TIP3    H249499   0.782   5.528  16.103  0.1588  1.1341  0.2805
 9362TIP3   OH249500   3.309   1.205   2.023  0.1814 -0.2834 -0.0560
 9362TIP3    H149501   3.289   1.162   1.940 -0.6721 -2.2937  1.1320
 9362TIP3    H249502   3.392   1.166   2.051 -0.8898 -1.6881  1.3109
 9363TIP3   OH249503   0.041   4.905  15.926 -0.0963 -0.3402 -0.5753
 9363TIP3    H149504  -0.049   4.898  15.957 -0.8746  0.7277 -2.4182
 9363TIP3    H249505   0.082   4.970  15.982 -2.2869  3.7571 -3.2130
 9364TIP3   OH249506   4.082   1.681  14.451 -0.3690 -0.3430  0.0475
 9364TIP3    H149507   4.007   1.703  14.396 -0.0102  0.4946 -0.1304
 9364TIP3    H249508   4.074   1.740  14.527 -0.2075 -0.6511  0.3033
 9365TIP3   OH249509   2.940   5.572  14.196 -0.1693 -0.3292  0.0497
 9365TIP3    H149510   2.961   5.530  14.279  0.8851 -3.7464 -1.7314
 9365TIP3    H249511   2.845   5.558  14.186 -0.1323 -0.7629  0.2703
 9366TIP3   OH249512   2.220   2.600   3.518 -0.0304 -0.6027  0.3892
 9366TIP3    H149513   2.205   2.680   3.567 -0.6447  0.4179 -1.3785
 9366TIP3    H249514   2.295   2.620   3.462 -0.9023 -0.8208 -0.9053
 9367TIP3   OH249515   5.070   4.069  11.959  0.0894 -0.1361  0.5148
 9367TIP3    H149516   5.008   4.137  11.935 -0.6384 -0.0520  2.4652
 9367TIP3    H249517   5.155   4.114  11.964 -0.2835  0.5154  1.1805
 9368TIP3   OH249518   2.909   2.612  16.354  0.1045 -0.2547  0.6734
 9368TIP3    H149519   2.816   2.603  16.332 -0.3927 -1.1486  2.8179
 9368TIP3    H249520   2.951   2.537  16.311 -0.5727 -1.1335  1.4896
 9369TIP3   OH249521   6.088   0.312   4.371 -0.5501  0.5675  0.0142
 9369TIP3    H149522   6.093   0.313   4.467  0.3633  3.7219  0.0502
 9369TIP3    H249523   6.097   0.219   4.348  1.7443 -0.0949  2.8791
 9370TIP3   OH249524   1.073   2.565  13.448  0.1285 -0.0651 -0.5871
 9370TIP3    H149525   1.083   2.637  13.385 -0.8477  1.1388  0.5727
 9370TIP3    H249526   1.159   2.559  13.490 -0.3626  2.0158  0.8786
 9371TIP3   OH249527   1.438   3.981  13.852  0.2767  0.7664 -0.7059
 9371TIP3    H149528   1.514   4.013  13.900  0.6188  3.0241 -2.5487
 9371TIP3    H249529   1.364   4.027  13.891  0.3410  1.2916 -1.1839
 9372TIP3   OH249530   4.787   0.265  14.887 -0.5222 -0.0211 -0.0457
 9372TIP3    H149531   4.784   0.324  14.812 -0.8688 -0.0599 -0.0618
 9372TIP3    H249532   4.739   0.310  14.956 -0.7301 -0.2512 -0.0378
 9373TIP3   OH249533   0.772   2.143   4.728  0.5347  0.2411 -0.1685
 9373TIP3    H149534   0.853   2.113   4.687  1.0057  0.0826  0.8509
 9373TIP3    H249535   0.797   2.162   4.819 -0.6855 -0.3459  0.3095
 9374TIP3   OH249536   4.997   5.703  16.904  0.3416 -0.5475 -0.0257
 9374TIP3    H149537   5.083   5.709  16.864  0.1289 -0.0703 -0.4309
 9374TIP3    H249538   5.008   5.738  16.992  0.0929  1.7735 -0.8487
 9375TIP3   OH249539   4.179   3.751   0.759  0.1098  0.1507 -0.3303
 9375TIP3    H149540   4.115   3.776   0.692 -2.6994 -1.3372  1.6332
 9375TIP3    H249541   4.193   3.832   0.809 -2.5898 -0.0856  0.9761
 9376TIP3   OH249542   6.080   0.964  14.944  0.6400 -0.1542  0.5506
 9376TIP3    H149543   6.081   0.884  14.996 -0.4855 -1.0912 -0.7863
 9376TIP3    H249544   6.008   1.016  14.980 -0.1870 -0.8357 -0.0609
 9377TIP3   OH249545   4.903   4.285   6.442 -0.0732 -0.8318 -0.2069
 9377TIP3    H149546   4.846   4.244   6.377 -1.4916 -0.2461  0.6323
 9377TIP3    H249547   4.926   4.215   6.503 -0.3507 -0.9514 -0.2411
 9378TIP3   OH249548   2.801   4.881  15.079  0.2326 -0.3322 -0.2449
 9378TIP3    H149549   2.784   4.905  14.988  0.7170 -1.4462 -0.6516
 9378TIP3    H249550   2.859   4.805  15.073  0.9603  0.0982  1.0103
 9379TIP3   OH249551   3.756   2.530  14.324 -0.2805  0.7139 -0.2478
 9379TIP3    H149552   3.794   2.445  14.300 -1.0453  0.1234  0.5403
 9379TIP3    H249553   3.728   2.568  14.241  1.0196  0.6677 -0.7173
 9380TIP3   OH249554   2.088   4.720   5.191 -0.3225  0.0929 -0.4635
 9380TIP3    H149555   2.146   4.759   5.126 -0.2833  1.7956  0.5223
 9380TIP3    H249556   2.000   4.736   5.159 -0.3143  1.3552  0.0950
 9381TIP3   OH249557   0.071   3.122   0.189 -0.3918  0.3960  0.1474
 9381TIP3    H149558  -0.019   3.120   0.158  0.0680  2.4240 -1.5718
 9381TIP3    H249559   0.118   3.061   0.132 -0.5707 -0.2790  0.7135
 9382TIP3   OH249560   6.328   0.739   4.314  0.0065  0.0330  0.2070
 9382TIP3    H149561   6.274   0.663   4.334  1.0873 -1.0691 -0.9212
 9382TIP3    H249562   6.322   0.750   4.219  0.7119  0.6958  0.2213
 9383TIP3   OH249563   5.890   1.669   3.708 -0.5070 -0.0681 -0.0636
 9383TIP3    H149564   5.953   1.601   3.732 -0.0136  0.2905 -0.3117
 9383TIP3    H249565   5.920   1.700   3.622 -0.1956  1.0652  0.4349
 9384TIP3   OH249566   2.723   4.589   0.541  0.0619  0.0672  0.0027
 9384TIP3    H149567   2.784   4.521   0.513 -0.6254 -1.0954  1.2031
 9384TIP3    H249568   2.725   4.654   0.471  0.8739 -1.0974 -1.0943
 9385TIP3   OH249569   0.057   0.006  16.354 -0.0754 -0.0993 -0.8824
 9385TIP3    H149570   0.068   0.071  16.423  0.5550 -1.7344  0.6579
 9385TIP3    H249571  -0.038  -0.012  16.353  0.0068 -0.6835  0.2099
 9386TIP3   OH249572   1.608   3.600  12.116  0.2736 -0.1287 -0.2086
 9386TIP3    H149573   1.656   3.533  12.166  0.8304 -0.1759 -0.7950
 9386TIP3    H249574   1.607   3.567  12.026 -1.8538 -0.6685 -0.0364
 9387TIP3   OH249575   5.082   1.153  11.088  0.0196 -0.1239 -0.4242
 9387TIP3    H149576   5.163   1.194  11.116  0.1305  0.5815 -1.7292
 9387TIP3    H249577   5.094   1.136  10.995 -1.0152 -0.7658 -0.4581
 9388TIP3   OH249578   4.910   5.430   5.965  0.2662 -0.2779 -1.0472
 9388TIP3    H149579   4.991   5.438   5.913  1.0009 -0.1916  0.0711
 9388TIP3    H249580   4.902   5.337   5.983  0.6350 -0.1897 -0.3858
 9389TIP3   OH249581   3.598   0.919  17.262 -0.1405 -0.0549  0.0753
 9389TIP3    H149582   3.586   0.827  17.285 -1.1503 -0.3392 -1.3979
 9389TIP3    H249583   3.513   0.960  17.278  0.0147  0.3891 -0.2010
 9390TIP3   OH249584   5.462   5.561  15.344 -0.3223  0.0339 -0.2178
 9390TIP3    H149585   5.424   5.474  15.350 -0.2382 -0.0970 -1.3750
 9390TIP3    H249586   5.556   5.547  15.357 -0.2876 -0.0812 -0.5754
 9391TIP3   OH249587   6.691   6.679   0.498 -0.8032  0.1570 -0.6939
 9391TIP3    H149588   6.738   6.607   0.539  0.0744  0.9053 -0.3391
 9391TIP3    H249589   6.606   6.642   0.474 -1.2705 -0.3920  1.5705
 9392TIP3   OH249590   1.421   3.858   3.621 -0.1347 -0.1422  0.1127
 9392TIP3    H149591   1.485   3.795   3.653 -0.2979 -0.7364 -0.6779
 9392TIP3    H249592   1.396   3.824   3.534 -1.1612  0.3313  0.2090
 9393TIP3   OH249593   2.511   0.869  16.084  0.1524 -0.0023  0.0534
 9393TIP3    H149594   2.576   0.874  16.154  0.3061 -0.9089 -0.0117
 9393TIP3    H249595   2.552   0.815  16.017 -0.4767 -0.1792 -0.1948
 9394TIP3   OH249596   0.058   5.994  15.744  0.0521  0.0433 -0.1045
 9394TIP3    H149597   0.030   6.062  15.682 -0.6986 -0.2658 -0.1066
 9394TIP3    H249598   0.010   6.012  15.824  0.8918  0.3343  0.3490
 9395TIP3   OH249599   2.974   0.842  14.538 -0.1098 -0.2141  0.3612
 9395TIP3    H149600   3.008   0.869  14.623  0.5195 -0.7249  0.2879
 9395TIP3    H249601   2.900   0.785  14.558 -0.3153  0.1180  0.5523
 9396TIP3   OH249602   0.903   0.396  12.013  0.2075 -0.4040  0.0343
 9396TIP3    H149603   0.861   0.476  11.980  0.7054 -1.0350 -2.2832
 9396TIP3    H249604   0.979   0.427  12.062 -0.2286  0.5860  0.0972
 9397TIP3   OH249605   0.244   6.038   1.130  0.7330 -0.4373 -0.3640
 9397TIP3    H149606   0.230   6.007   1.041  1.2297  0.7610 -0.8844
 9397TIP3    H249607   0.182   6.111   1.139  1.7462  0.4361 -0.2810
 9398TIP3   OH249608   3.902   3.121  14.571 -0.8673 -0.4030  0.9359
 9398TIP3    H149609   3.848   3.084  14.501  1.0107 -0.2209 -0.6934
 9398TIP3    H249610   3.865   3.208  14.585 -1.7184 -0.7120  0.6872
 9399TIP3   OH249611   1.794   3.448  16.251  0.2603  0.8378  0.4537
 9399TIP3    H149612   1.840   3.520  16.293  0.5227  0.4344  0.8590
 9399TIP3    H249613   1.845   3.430  16.171  1.4525 -0.2938  1.4105
 9400TIP3   OH249614   6.009   1.365   4.287 -0.2500  0.5166 -0.6833
 9400TIP3    H149615   6.034   1.277   4.314 -0.5777  0.7533  0.4700
 9400TIP3    H249616   6.005   1.415   4.369  2.4077  2.2865 -1.5108
 9401TIP3   OH249617   3.072   0.700  16.714  0.0752  0.7350  0.4807
 9401TIP3    H149618   3.090   0.660  16.799 -1.5835  1.1020  1.0548
 9401TIP3    H249619   3.100   0.634  16.650  1.1885  0.3869  1.3089
 9402TIP3   OH249620   6.712   6.583  15.158  0.3476  0.1058  0.6102
 9402TIP3    H149621   6.627   6.606  15.120  1.2760  1.4548 -0.7894
 9402TIP3    H249622   6.692   6.549  15.245 -1.6598 -0.1783  0.0751
 9403TIP3   OH249623   5.381   6.007   4.482 -0.5889 -0.3279  0.0204
 9403TIP3    H149624   5.422   5.927   4.448 -0.3402 -0.4743  0.6453
 9403TIP3    H249625   5.454   6.062   4.508 -0.7274  0.6371 -1.5520
 9404TIP3   OH249626   4.760   5.027  16.454  0.5142  0.5327 -0.0238
 9404TIP3    H149627   4.838   4.971  16.449  0.7196  0.8392 -0.3109
 9404TIP3    H249628   4.743   5.052  16.363 -0.0868  0.2459  0.0043
 9405TIP3   OH249629   2.235   4.156   6.330  0.4018 -0.0650  0.2449
 9405TIP3    H149630   2.299   4.222   6.355  0.4564  0.5300 -1.3469
 9405TIP3    H249631   2.268   4.121   6.247 -1.7384  0.9091 -1.1161
 9406TIP3   OH249632   2.373   3.293   5.854  0.5228  0.0083 -0.0786
 9406TIP3    H149633   2.314   3.218   5.858 -1.2798  1.3690 -0.1612
 9406TIP3    H249634   2.450   3.265   5.902 -1.5425 -0.6370  3.1339
 9407TIP3   OH249635   0.546   6.323   0.673  0.6382  0.4386 -0.9476
 9407TIP3    H149636   0.539   6.228   0.659 -1.3709  0.4613 -0.3618
 9407TIP3    H249637   0.492   6.340   0.750  1.9426  1.9275 -0.2971
 9408TIP3   OH249638   3.959   4.651  16.753  0.4632  0.1609  0.2622
 9408TIP3    H149639   3.922   4.718  16.811  0.7473  1.4711 -1.0057
 9408TIP3    H249640   3.900   4.651  16.677 -0.2044 -1.8998  0.7264
 9409TIP3   OH249641   6.487   0.725  16.306  0.5588 -0.5725 -0.0653
 9409TIP3    H149642   6.575   0.730  16.270  0.7431 -1.3396  0.2536
 9409TIP3    H249643   6.429   0.719  16.230  0.9502 -2.3085 -0.2621
 9410TIP3   OH249644   6.219   1.099  11.005 -0.1794  0.2072  0.1968
 9410TIP3    H149645   6.149   1.145  10.959 -0.7929  0.1548  1.0609
 9410TIP3    H249646   6.280   1.169  11.031 -0.0680  0.2892 -0.2662
 9411TIP3   OH249647   1.365   4.357   2.192 -0.2730  0.1431  0.3365
 9411TIP3    H149648   1.414   4.381   2.114 -0.5409 -0.8496 -0.1580
 9411TIP3    H249649   1.431   4.345   2.260  0.1535 -0.8402 -0.2355
 9412TIP3   OH249650   1.003   3.740  13.300  0.2318  0.0141 -0.2941
 9412TIP3    H149651   1.083   3.693  13.323  0.2396  0.4796  0.6787
 9412TIP3    H249652   1.023   3.782  13.216  1.4268  1.0962  0.5092
 9413TIP3   OH249653   0.889   0.656   6.128 -0.7772 -0.1156  0.6083
 9413TIP3    H149654   0.980   0.687   6.126 -0.3675 -1.2911 -1.0696
 9413TIP3    H249655   0.836   0.736   6.132  0.3049  0.6443  0.0623
 9414TIP3   OH249656   5.575   6.655  11.086 -0.2707 -0.0864 -0.4921
 9414TIP3    H149657   5.600   6.728  11.029  1.3113 -2.5621 -3.2309
 9414TIP3    H249658   5.658   6.623  11.121 -0.5602 -2.2756 -1.6609
 9415TIP3   OH249659   2.705   5.527   5.127 -0.0251  0.4146  0.3096
 9415TIP3    H149660   2.624   5.480   5.147  0.0368 -0.2777 -0.9557
 9415TIP3    H249661   2.742   5.481   5.052  2.2670 -0.1218  1.6728
 9416TIP3   OH249662   4.640   2.097   5.161 -0.6436 -0.2743 -0.2780
 9416TIP3    H149663   4.696   2.069   5.087  0.8221 -0.1538  0.7424
 9416TIP3    H249664   4.699   2.147   5.217 -1.0353 -2.4567  2.2381
 9417TIP3   OH249665   2.035   1.571  13.781  0.1664  0.6136 -0.0684
 9417TIP3    H149666   2.018   1.615  13.698 -1.8045  1.5691  0.7858
 9417TIP3    H249667   2.025   1.640  13.847 -0.3787 -0.5449  1.1046
 9418TIP3   OH249668   0.076   6.081   5.193  0.1114  0.0177  0.7233
 9418TIP3    H149669   0.057   6.099   5.285 -0.4904 -1.4413  0.9013
 9418TIP3    H249670   0.170   6.062   5.191  0.2129  0.4647  0.9507
 9419TIP3   OH249671   4.511   0.975   5.224 -0.3511  0.2677 -0.1023
 9419TIP3    H149672   4.599   1.010   5.235 -0.8748  1.2118  1.2501
 9419TIP3    H249673   4.479   0.959   5.313 -1.2215 -0.9208 -0.5967
 9420TIP3   OH249674   2.439   5.511   1.184  0.0511  0.3725  0.0717
 9420TIP3    H149675   2.433   5.420   1.152 -0.8722  1.6956 -4.1404
 9420TIP3    H249676   2.531   5.534   1.175  0.2160  0.0116  0.7616
 9421TIP3   OH249677   0.004   3.877   5.297 -0.2710 -0.4766 -0.2405
 9421TIP3    H149678  -0.069   3.854   5.238 -1.6360  0.5750  0.9526
 9421TIP3    H249679   0.070   3.914   5.240 -1.7222  0.8987 -1.1106
 9422TIP3   OH249680   3.327   4.120  10.895 -0.1806  0.3234  0.8805
 9422TIP3    H149681   3.297   4.029  10.902  0.2976 -0.0277 -0.9455
 9422TIP3    H249682   3.247   4.172  10.908 -0.4160 -0.3230  2.1718
 9423TIP3   OH249683   4.233   2.925   1.229  0.0839  0.0504 -0.1979
 9423TIP3    H149684   4.248   2.870   1.306 -0.6134 -0.4261 -0.3890
 9423TIP3    H249685   4.317   2.968   1.213  0.8770 -1.5328 -0.4820
 9424TIP3   OH249686   2.726   6.496   5.857  0.3441 -0.0361  0.6825
 9424TIP3    H149687   2.774   6.575   5.831 -0.7380  1.1002  1.9227
 9424TIP3    H249688   2.776   6.424   5.821  0.1081  1.2757 -2.6129
 9425TIP3   OH249689   4.104   4.646  16.396 -0.1048 -0.2012  0.2055
 9425TIP3    H149690   4.012   4.620  16.405 -0.7558  2.0150  0.4838
 9425TIP3    H249691   4.142   4.579  16.339 -2.1776 -0.5545 -0.8564
 9426TIP3   OH249692   4.507   4.550   2.129  0.1785  0.0156  0.0910
 9426TIP3    H149693   4.466   4.466   2.108 -0.0184  0.3755 -1.0402
 9426TIP3    H249694   4.470   4.611   2.066 -1.6085  1.5522  2.4160
 9427TIP3   OH249695   2.959   3.183  11.417 -0.1629 -0.0619  0.0017
 9427TIP3    H149696   2.968   3.218  11.328 -0.9701  2.7398  0.9101
 9427TIP3    H249697   3.013   3.240  11.471 -0.6639 -0.9368  1.4914
 9428TIP3   OH249698   4.369   3.719  11.351 -0.2127 -0.0543 -0.2975
 9428TIP3    H149699   4.373   3.767  11.434 -0.2938 -1.7151  0.7163
 9428TIP3    H249700   4.455   3.731  11.311 -0.3160  1.1133 -0.2073
 9429TIP3   OH249701   2.485   1.355  11.762 -0.2718  0.2701  0.2433
 9429TIP3    H149702   2.477   1.447  11.734 -2.3322 -0.1755 -0.8266
 9429TIP3    H249703   2.523   1.310  11.686  1.9413  0.3860  1.2073
 9430TIP3   OH249704   2.937   5.169   5.209  0.3877 -0.0168  0.1844
 9430TIP3    H149705   2.929   5.251   5.159 -0.8409 -1.0443 -1.3857
 9430TIP3    H249706   3.015   5.127   5.172 -1.0942 -1.2594 -1.7294
 9431TIP3   OH249707   0.774   0.921   0.352  0.2048 -0.5814 -0.4018
 9431TIP3    H149708   0.703   0.914   0.416  0.5669  0.2456  0.1010
 9431TIP3    H249709   0.741   0.876   0.275 -0.0858 -1.9707  0.4871
 9432TIP3   OH249710   0.048   3.325  12.241  0.0543  0.1912  0.7744
 9432TIP3    H149711  -0.033   3.358  12.203 -0.4197 -0.1378  1.4857
 9432TIP3    H249712   0.068   3.246  12.191  0.6916  1.0105 -0.3150
 9433TIP3   OH249713   3.858   2.027   3.612  0.2128 -0.2054 -0.3430
 9433TIP3    H149714   3.817   1.948   3.578 -0.4972  0.8433 -2.0941
 9433TIP3    H249715   3.831   2.031   3.704 -2.3561 -0.4259 -0.9935
 9434TIP3   OH249716   4.951   3.053   4.867  0.1116 -0.1213  0.6765
 9434TIP3    H149717   4.958   3.108   4.790 -0.9435 -0.8171  0.0589
 9434TIP3    H249718   5.040   3.020   4.881  0.1422 -0.7848 -0.8660
 9435TIP3   OH249719   5.107   3.181  12.845  0.1596 -0.1337  0.2252
 9435TIP3    H149720   5.093   3.227  12.928 -3.5077 -2.9662  1.4723
 9435TIP3    H249721   5.044   3.219  12.785 -1.6962 -2.1235  0.7719
 9436TIP3   OH249722   1.833   2.428   5.937  0.1204  0.3298 -0.0323
 9436TIP3    H149723   1.807   2.365   5.870 -0.7889 -0.6123  1.1484
 9436TIP3    H249724   1.794   2.393   6.018  2.6350  0.4872  1.3214
 9437TIP3   OH249725   4.689   2.404  11.527 -0.1536 -0.4112 -0.5303
 9437TIP3    H149726   4.633   2.341  11.482 -1.6390 -0.3132  1.0952
 9437TIP3    H249727   4.746   2.439  11.458  1.2118 -3.9255 -1.4316
 9438TIP3   OH249728   4.729   4.393  11.405 -0.6681  1.1119 -0.0795
 9438TIP3    H149729   4.758   4.324  11.345  0.6930 -0.9843  2.7526
 9438TIP3    H249730   4.789   4.466  11.388 -0.8969  0.9493 -1.8023
 9439TIP3   OH249731   1.593   2.320   2.092 -0.3603  0.1974 -0.1920
 9439TIP3    H149732   1.573   2.378   2.019  0.6563 -0.2285 -0.8293
 9439TIP3    H249733   1.544   2.241   2.075 -0.1974  0.1338 -0.3626
 9440TIP3   OH249734   3.573   6.741   4.253 -0.1907  0.1327  0.0157
 9440TIP3    H149735   3.661   6.742   4.214  0.6848 -0.7969  1.8264
 9440TIP3    H249736   3.574   6.665   4.311 -2.8532 -1.0265 -1.2861
 9441TIP3   OH249737   0.963   6.566   3.260  0.3314  0.3633  0.5811
 9441TIP3    H149738   0.955   6.589   3.353  2.9328  0.5427  0.8296
 9441TIP3    H249739   1.022   6.633   3.224  0.9855 -0.8801 -0.7375
 9442TIP3   OH249740   1.962   1.071   4.266 -0.1347  0.2724 -0.2103
 9442TIP3    H149741   1.956   1.034   4.178 -1.6330  0.2829 -0.1364
 9442TIP3    H249742   1.877   1.054   4.306  0.3938  0.5709  1.1291
 9443TIP3   OH249743   6.539   1.268  14.228  0.0748  0.4946 -0.1520
 9443TIP3    H149744   6.548   1.269  14.133 -1.5709  0.7624 -0.3322
 9443TIP3    H249745   6.446   1.250  14.243  0.3332  0.3239  1.4083
 9444TIP3   OH249746   4.539   6.091  17.099 -0.3283 -0.0283  0.5896
 9444TIP3    H149747   4.461   6.041  17.077  0.0120 -0.5643  0.5999
 9444TIP3    H249748   4.605   6.062  17.037  0.7506 -1.8283  2.4699
 9445TIP3   OH249749   5.706   3.765  13.946  0.1206  0.4106  0.1147
 9445TIP3    H149750   5.623   3.722  13.923  0.2773 -0.2263  0.7025
 9445TIP3    H249751   5.743   3.792  13.862 -0.0521 -0.4863 -0.2653
 9446TIP3   OH249752   5.710   0.364  10.988 -0.5011  0.3984 -0.4684
 9446TIP3    H149753   5.652   0.292  10.962 -0.9828  0.9456 -0.9471
 9446TIP3    H249754   5.761   0.383  10.909 -0.5722  0.7632 -0.4270
 9447TIP3   OH249755   5.350   0.749   3.864  0.4527  0.5344  0.2337
 9447TIP3    H149756   5.439   0.770   3.837  0.2969  1.0969  0.1417
 9447TIP3    H249757   5.296   0.816   3.822 -0.4098 -1.6638 -2.5109
 9448TIP3   OH249758   0.341   5.275   2.089 -0.1505  0.1602  0.2869
 9448TIP3    H149759   0.410   5.341   2.096  0.9138 -0.9395  0.3875
 9448TIP3    H249760   0.322   5.251   2.180 -1.7742  1.5285  0.3675
 9449TIP3   OH249761   4.145   3.538  11.316 -0.3848 -0.4158  0.1670
 9449TIP3    H149762   4.233   3.574  11.323 -0.1062 -0.9332 -0.5819
 9449TIP3    H249763   4.128   3.499  11.403  0.5790 -1.3207 -0.0234
 9450TIP3   OH249764   4.387   0.276  15.759  0.2768 -0.2676  0.0957
 9450TIP3    H149765   4.352   0.365  15.755  1.9786  0.4254 -0.0640
 9450TIP3    H249766   4.400   0.251  15.668  0.6378 -0.3251  0.1601
 9451TIP3   OH249767   4.781   3.404   6.681  0.4382  0.1460  0.0511
 9451TIP3    H149768   4.754   3.485   6.640  0.1945 -0.1206 -0.3189
 9451TIP3    H249769   4.815   3.350   6.609 -2.5533 -1.4201 -0.3269
 9452TIP3   OH249770   0.262   6.575  13.581 -0.6339  0.6758 -0.3554
 9452TIP3    H149771   0.294   6.655  13.622  2.6264 -1.4105  1.5841
 9452TIP3    H249772   0.242   6.517  13.655  1.7794 -1.8973 -1.5431
 9453TIP3   OH249773   1.446   6.073  12.970  0.8501 -0.2032 -0.1533
 9453TIP3    H149774   1.539   6.089  12.954  1.2659 -0.9500  1.3056
 9453TIP3    H249775   1.418   6.018  12.898  2.0846 -1.7165  0.4657
 9454TIP3   OH249776   1.652   5.219  13.862  0.7301  0.4263  0.3912
 9454TIP3    H149777   1.667   5.125  13.869  0.6495  0.4133  0.3878
 9454TIP3    H249778   1.739   5.258  13.872  1.2373  0.2134 -2.5485
 9455TIP3   OH249779   0.164   2.874   1.821  0.2858  0.1137  0.1626
 9455TIP3    H149780   0.093   2.904   1.878  0.7804 -1.7037  1.8403
 9455TIP3    H249781   0.131   2.792   1.783  0.7202  0.3132 -0.6561
 9456TIP3   OH249782   1.013   4.100   4.139  0.0967  0.4177 -0.5254
 9456TIP3    H149783   1.014   4.118   4.045 -2.1554 -3.4124 -1.4939
 9456TIP3    H249784   0.940   4.152   4.173 -0.8882 -0.2935 -1.4954
 9457TIP3   OH249785   5.611   4.911  10.525  0.5844  0.1386  0.0819
 9457TIP3    H149786   5.698   4.872  10.536  0.3134 -0.7234 -0.7286
 9457TIP3    H249787   5.605   4.976  10.595  0.5895 -2.0891  2.2736
 9458TIP3   OH249788   3.606   1.392  14.423 -0.7372  0.0111 -0.1912
 9458TIP3    H149789   3.576   1.348  14.344  3.1823 -0.9752 -1.3397
 9458TIP3    H249790   3.600   1.325  14.492 -0.6678 -0.3195 -0.5054
 9459TIP3   OH249791   1.341   5.612   2.161  0.1906  0.2948  0.0192
 9459TIP3    H149792   1.432   5.590   2.139  0.2280  0.3299  0.1363
 9459TIP3    H249793   1.338   5.607   2.257 -0.3839 -1.5020 -0.0564
 9460TIP3   OH249794   5.435   5.545   1.856  0.4845  0.4350  0.2013
 9460TIP3    H149795   5.352   5.570   1.815  0.0489 -1.6498 -0.3150
 9460TIP3    H249796   5.488   5.511   1.783  1.3376  0.6283  0.7189
 9461TIP3   OH249797   6.197   0.051  17.244  0.2237 -0.4313  0.1542
 9461TIP3    H149798   6.190   0.008  17.159 -0.9647 -0.3473  0.1902
 9461TIP3    H249799   6.237  -0.014  17.301  0.8018 -0.5751 -0.4005
 9462TIP3   OH249800   3.158   5.411  16.721 -0.3814 -0.1725  0.3856
 9462TIP3    H149801   3.244   5.376  16.699  0.8755  1.6693  2.0786
 9462TIP3    H249802   3.151   5.492  16.670 -0.7433  0.1216  0.8922
 9463TIP3   OH249803   6.376   5.045  13.949  0.6374  0.2425  0.6309
 9463TIP3    H149804   6.339   5.130  13.923  0.4925 -0.1586 -0.5260
 9463TIP3    H249805   6.468   5.064  13.968  0.0401  1.1508  3.0360
 9464TIP3   OH249806   0.568   5.358   3.952 -0.5051 -0.5978 -0.4518
 9464TIP3    H149807   0.592   5.364   4.044 -0.5170  2.3412 -0.5459
 9464TIP3    H249808   0.638   5.308   3.911  0.2274 -0.7151  0.9154
 9465TIP3   OH249809   5.572   5.085  13.901  0.3286 -0.0732 -0.1517
 9465TIP3    H149810   5.593   5.158  13.844 -0.6044 -0.2748 -0.7633
 9465TIP3    H249811   5.577   5.008  13.844  0.8651 -0.4453  0.3845
 9466TIP3   OH249812   2.098   1.781  14.920 -0.3046 -0.4498  0.2357
 9466TIP3    H149813   2.094   1.868  14.880 -0.2276 -1.0218 -1.0920
 9466TIP3    H249814   2.156   1.731  14.862 -1.4661 -1.7754  0.1645
 9467TIP3   OH249815   0.840   5.355   2.337 -0.0027 -0.1586 -0.0996
 9467TIP3    H149816   0.926   5.362   2.380 -0.5258  1.0205  0.8030
 9467TIP3    H249817   0.856   5.389   2.249  0.2817  0.9230  0.3454
 9468TIP3   OH249818   0.604   2.107   1.704  0.0715 -0.6441  0.0578
 9468TIP3    H149819   0.669   2.044   1.734  0.1541 -0.1547  0.9547
 9468TIP3    H249820   0.545   2.118   1.779 -1.8000 -1.9943 -1.1287
 9469TIP3   OH249821   5.082   5.027   0.135  0.1429  0.1131 -0.8572
 9469TIP3    H149822   5.134   5.021   0.055 -0.0341 -0.6501 -0.9236
 9469TIP3    H249823   5.131   5.087   0.192  0.2938  0.6176 -1.5155
 9470TIP3   OH249824   0.741   3.768   0.163 -0.0973 -0.0998  0.0993
 9470TIP3    H149825   0.666   3.743   0.218  0.5006  1.0162  1.4879
 9470TIP3    H249826   0.746   3.699   0.097 -1.2799 -1.1354  1.0251
 9471TIP3   OH249827   6.360   2.720   2.818 -0.1716  0.1174  0.0900
 9471TIP3    H149828   6.451   2.736   2.792  0.0310  0.0478  0.7547
 9471TIP3    H249829   6.363   2.636   2.864 -0.7966 -0.5645 -1.0597
 9472TIP3   OH249830   2.964   3.669  12.069  0.1002 -0.4790 -0.1883
 9472TIP3    H149831   2.989   3.590  12.117  3.4430  1.1556  1.1072
 9472TIP3    H249832   2.887   3.702  12.116 -0.1735 -1.9295  0.4410
 9473TIP3   OH249833   5.744   4.950  14.885  0.2530  1.0500 -0.1765
 9473TIP3    H149834   5.789   4.925  14.966  1.7884  1.0568 -0.9947
 9473TIP3    H249835   5.687   4.876  14.866  0.5414  0.6600  0.4384
 9474TIP3   OH249836   2.721   2.901   4.837  0.1655  0.0986 -0.6528
 9474TIP3    H149837   2.633   2.935   4.848  0.5027  1.9529 -2.8025
 9474TIP3    H249838   2.720   2.816   4.881 -1.9870  1.0425  1.3336
 9475TIP3   OH249839   5.603   1.610  14.105  0.3518 -0.1618 -0.1071
 9475TIP3    H149840   5.538   1.588  14.038  0.8344 -0.6468 -0.4204
 9475TIP3    H249841   5.673   1.546  14.093  0.8130  0.2497  0.3426
 9476TIP3   OH249842   0.929   4.104  13.245 -0.2718  0.0879  0.1817
 9476TIP3    H149843   0.897   4.080  13.332  0.6628 -1.6179  0.0846
 9476TIP3    H249844   0.993   4.174  13.261 -0.7831  0.4354  0.7609
 9477TIP3   OH249845   4.393   2.390  11.166  0.3612 -0.5001  0.2357
 9477TIP3    H149846   4.352   2.435  11.092  1.5611 -1.1418 -0.8511
 9477TIP3    H249847   4.434   2.313  11.128 -1.7639 -2.7008  2.0628
 9478TIP3   OH249848   0.463   2.532   4.592 -0.5406  0.2384 -0.3752
 9478TIP3    H149849   0.553   2.537   4.624 -0.6176  2.2747 -0.3840
 9478TIP3    H249850   0.468   2.475   4.515  1.0697  1.6545 -1.3895
 9479TIP3   OH249851   5.428   6.030  14.394 -0.6299 -0.0011  0.5837
 9479TIP3    H149852   5.516   5.993  14.392 -0.3836  0.5982 -0.9462
 9479TIP3    H249853   5.440   6.122  14.370 -1.6336  0.1770  0.7153
 9480TIP3   OH249854   0.749   4.294  12.941  1.0155  0.2837 -0.1356
 9480TIP3    H149855   0.669   4.306  12.992  0.1857 -0.2437 -1.2551
 9480TIP3    H249856   0.807   4.365  12.968  1.4184 -1.0321  2.9522
 9481TIP3   OH249857   0.465   1.348   3.137  0.2009  0.3150 -0.1005
 9481TIP3    H149858   0.556   1.321   3.147  0.4131  0.9131 -0.3773
 9481TIP3    H249859   0.456   1.426   3.192 -0.6218 -0.7415  1.3334
 9482TIP3   OH249860   2.171   1.965  16.948  0.0689 -0.4129 -0.0414
 9482TIP3    H149861   2.079   1.990  16.950  0.4120  0.9503  1.4506
 9482TIP3    H249862   2.201   1.989  16.861 -0.6691  0.5090 -0.0657
 9483TIP3   OH249863   4.055   4.852   0.952  0.2366 -0.5305 -0.2268
 9483TIP3    H149864   4.054   4.916   0.881 -0.6785  0.3271  0.5355
 9483TIP3    H249865   4.012   4.896   1.025  1.0381 -1.4365  0.8338
 9484TIP3   OH249866   5.287   0.409  10.693  0.1515  0.2827  0.4931
 9484TIP3    H149867   5.243   0.324  10.683 -0.5163  0.8334 -2.0355
 9484TIP3    H249868   5.216   0.473  10.697  0.6474  0.9234 -0.4464
 9485TIP3   OH249869   0.599   2.813  14.854  0.8654 -0.2004 -0.1251
 9485TIP3    H149870   0.566   2.860  14.778  0.3403  2.1190  1.4169
 9485TIP3    H249871   0.689   2.789  14.831  0.9433  1.0430 -1.2073
 9486TIP3   OH249872   1.403   5.127  15.536  0.1513 -0.4044 -0.0615
 9486TIP3    H149873   1.426   5.046  15.582 -1.0632 -0.5144  0.3820
 9486TIP3    H249874   1.395   5.193  15.605  0.9885  0.0724 -0.4050
 9487TIP3   OH249875   6.242   2.877   3.837 -0.0843  0.2434 -0.0812
 9487TIP3    H149876   6.264   2.785   3.854  1.3368  0.7604  1.1157
 9487TIP3    H249877   6.318   2.926   3.869 -1.0490  1.8727 -0.1761
 9488TIP3   OH249878   6.498   3.867   1.915  0.4908  0.5652 -0.0004
 9488TIP3    H149879   6.576   3.922   1.919 -0.4533  1.9403  0.1688
 9488TIP3    H249880   6.488   3.833   2.004  0.9974  0.2356 -0.0684
 9489TIP3   OH249881   0.273   2.886   6.132 -0.2979 -0.3483 -0.5533
 9489TIP3    H149882   0.263   2.959   6.193  1.6111 -0.4369 -0.0625
 9489TIP3    H249883   0.249   2.809   6.183 -0.3557 -0.2660 -0.4545
 9490TIP3   OH249884   1.663   5.439   3.208  0.4799  0.0314 -0.2300
 9490TIP3    H149885   1.617   5.371   3.257 -0.7153  0.5902 -0.5348
 9490TIP3    H249886   1.629   5.431   3.118  0.2193  1.1060 -0.2398
 9491TIP3   OH249887   3.676   6.651  15.771 -0.5481  0.2242 -0.1066
 9491TIP3    H149888   3.768   6.635  15.753 -0.8024  0.8347 -2.3571
 9491TIP3    H249889   3.659   6.606  15.853  1.7058 -0.0093  0.2962
 9492TIP3   OH249890   1.880   1.122  12.437 -0.6115  0.8384 -0.8436
 9492TIP3    H149891   1.927   1.143  12.356  0.2196  1.2472 -0.2698
 9492TIP3    H249892   1.827   1.045  12.415  2.3177 -1.3279 -0.8085
 9493TIP3   OH249893   2.338   6.540   2.655 -0.1338  0.1468 -0.1770
 9493TIP3    H149894   2.433   6.551   2.644 -0.0536 -0.4923 -0.1266
 9493TIP3    H249895   2.310   6.495   2.575 -0.0488 -1.6278  0.7552
 9494TIP3   OH249896   5.269   5.545   3.315  0.0119 -0.2344  0.1798
 9494TIP3    H149897   5.204   5.539   3.245  1.0066 -1.0326 -0.6974
 9494TIP3    H249898   5.314   5.628   3.300 -1.0766  0.5554  1.0708
 9495TIP3   OH249899   1.518   6.501   2.054  0.3714 -0.1687  0.0284
 9495TIP3    H149900   1.441   6.527   2.105 -0.4302 -0.6935 -0.8941
 9495TIP3    H249901   1.499   6.412   2.024  1.6526 -0.5869  0.3757
 9496TIP3   OH249902   4.193   4.276   2.547 -0.5217  0.0273 -0.0654
 9496TIP3    H149903   4.199   4.205   2.483 -1.6869  0.4799 -0.7122
 9496TIP3    H249904   4.100   4.280   2.570 -0.3752  0.9391  0.4329
 9497TIP3   OH249905   2.345   1.996  14.941  0.6141  0.4352 -0.3091
 9497TIP3    H149906   2.358   1.902  14.947 -0.4594  0.1818 -1.4042
 9497TIP3    H249907   2.304   2.009  14.856 -1.4523  1.6067  0.7646
 9498TIP3   OH249908   5.579   5.064   0.374 -0.2850  0.5485  0.5910
 9498TIP3    H149909   5.606   5.002   0.441 -2.8961  0.3406  1.5448
 9498TIP3    H249910   5.558   5.144   0.422  1.4597  1.7113 -0.4544
 9499TIP3   OH249911   0.673   0.594   0.621 -0.4814  0.4523 -0.5523
 9499TIP3    H149912   0.686   0.680   0.581 -1.4198  1.0513  0.4006
 9499TIP3    H249913   0.588   0.565   0.588  0.5290 -0.8630 -2.1548
 9500TIP3   OH249914   1.133   5.931  13.291 -0.4813  0.2294  0.2952
 9500TIP3    H149915   1.184   6.012  13.298 -2.3509  1.4756  0.1317
 9500TIP3    H249916   1.190   5.871  13.243  1.1370  1.2665  0.8275
 9501TIP3   OH249917   1.919   6.545  16.087 -0.1625 -0.4694  0.1613
 9501TIP3    H149918   1.856   6.599  16.135  2.1687  0.8105  2.0263
 9501TIP3    H249919   1.933   6.469  16.143  0.0345 -0.6947 -0.1890
 9502TIP3   OH249920   2.708   3.860  16.388  0.0461 -0.1317 -0.0570
 9502TIP3    H149921   2.774   3.924  16.362 -1.1460  1.2229  0.1280
 9502TIP3    H249922   2.656   3.845  16.309  0.5107 -1.1459 -0.1873
 9503TIP3   OH249923   2.502   5.380   0.270 -0.3024  0.5215 -0.0170
 9503TIP3    H149924   2.457   5.441   0.328  0.3526  1.0859 -0.0767
 9503TIP3    H249925   2.436   5.317   0.244 -0.7295  0.5762  0.9173
 9504TIP3   OH249926   3.870   3.930  16.802  0.4545 -0.1370 -0.1437
 9504TIP3    H149927   3.795   3.979  16.835  0.8400  1.2051 -1.1814
 9504TIP3    H249928   3.876   3.953  16.709  0.2137 -2.7664 -0.8862
 9505TIP3   OH249929   4.713   3.936   2.212  0.2304  0.0394  0.0641
 9505TIP3    H149930   4.657   3.859   2.199  0.3782  0.3161 -3.0871
 9505TIP3    H249931   4.802   3.903   2.203  0.3676  0.3295  0.3306
 9506TIP3   OH249932   0.677   5.470   4.212  0.6370 -0.0192  0.4135
 9506TIP3    H149933   0.766   5.487   4.244  0.7954 -0.2260  0.0858
 9506TIP3    H249934   0.643   5.404   4.273  1.3418 -1.2486 -0.4764
 9507TIP3   OH249935   0.195   3.857   6.125 -0.2903 -0.3709  0.6632
 9507TIP3    H149936   0.289   3.863   6.112 -0.4923 -0.4244 -1.1776
 9507TIP3    H249937   0.169   3.943   6.158  0.2315  0.1399 -0.2073
 9508TIP3   OH249938   1.003   5.006   5.973 -0.1505 -0.0979  0.1548
 9508TIP3    H149939   0.985   5.100   5.975 -0.0151 -0.0402 -0.6810
 9508TIP3    H249940   0.917   4.965   5.988 -0.6492  0.1797 -1.6361
 9509TIP3   OH249941   2.930   0.169   0.552 -0.8505 -0.8066  0.1598
 9509TIP3    H149942   2.875   0.242   0.579  2.0664  1.8528 -0.4379
 9509TIP3    H249943   2.882   0.127   0.480 -2.9158  0.0870  0.9614
 9510TIP3   OH249944   1.519   0.705  12.452 -0.0430 -0.3724 -0.6848
 9510TIP3    H149945   1.499   0.623  12.407 -2.9689  1.8023 -3.8788
 9510TIP3    H249946   1.459   0.707  12.526 -0.8842 -0.5930 -1.3471
 9511TIP3   OH249947   5.128   5.034   5.400 -0.9422 -0.3046 -0.0770
 9511TIP3    H149948   5.156   5.069   5.484  0.3229 -1.4689  0.0083
 9511TIP3    H249949   5.148   5.103   5.337  1.8218 -0.9123  0.0381
 9512TIP3   OH249950   6.158   2.697   4.638  0.1024  0.0752  0.0700
 9512TIP3    H149951   6.155   2.609   4.674  0.6783  0.5910  1.4446
 9512TIP3    H249952   6.237   2.699   4.585 -0.9786 -0.8224 -1.6829
 9513TIP3   OH249953   3.010   4.541  16.837 -0.5888  0.6992 -0.2427
 9513TIP3    H149954   3.057   4.580  16.911 -0.1820  0.8607 -0.5831
 9513TIP3    H249955   3.054   4.457  16.823 -0.3021  0.9184 -0.6591
 9514TIP3   OH249956   0.458   2.356  15.128  0.1640  0.0902  0.3756
 9514TIP3    H149957   0.511   2.403  15.064 -0.3870 -0.2219 -0.3298
 9514TIP3    H249958   0.515   2.287  15.161 -0.1026 -0.8952 -1.1330
 9515TIP3   OH249959   6.528   5.319  12.323 -0.3226  0.2324 -0.1591
 9515TIP3    H149960   6.527   5.413  12.341  0.2720  0.2312 -0.0969
 9515TIP3    H249961   6.619   5.293  12.339 -0.5473 -0.4066  0.0929
 9516TIP3   OH249962   5.364   0.321  15.207  0.6798 -0.3455 -0.0671
 9516TIP3    H149963   5.413   0.373  15.271 -1.3129  2.1908 -0.4302
 9516TIP3    H249964   5.422   0.316  15.131  1.5294  0.0026  0.5416
 9517TIP3   OH249965   1.913   5.182   6.213 -0.7450  0.1110 -0.4245
 9517TIP3    H149966   1.886   5.141   6.295 -0.2364  0.3744 -0.1242
 9517TIP3    H249967   1.962   5.259   6.239  0.1545 -0.2613 -0.9660
 9518TIP3   OH249968   1.605   3.790   4.502 -0.2658 -0.2296 -0.1060
 9518TIP3    H149969   1.527   3.830   4.465  1.2636  0.3695 -2.9409
 9518TIP3    H249970   1.641   3.856   4.561 -1.5794 -0.3237  0.8420
 9519TIP3   OH249971   4.027   1.279   4.585 -0.2745  0.0495  0.2249
 9519TIP3    H149972   3.932   1.288   4.591 -0.1821  2.3424 -0.9150
 9519TIP3    H249973   4.061   1.333   4.656  0.1942 -0.0305  0.0610
 9520TIP3   OH249974   2.347   2.253   2.440 -0.1304 -0.5213  0.1074
 9520TIP3    H149975   2.376   2.304   2.365  1.3566 -1.8810 -0.3092
 9520TIP3    H249976   2.291   2.312   2.490  1.8292  1.6817 -0.1152
 9521TIP3   OH249977   6.097   0.716  15.761 -0.1040 -0.4148 -0.0796
 9521TIP3    H149978   6.095   0.650  15.692 -1.2087 -0.4891 -0.0019
 9521TIP3    H249979   6.050   0.675  15.834 -0.1072  0.1549  0.2455
 9522TIP3   OH249980   3.275   2.109   2.590  0.4874 -0.1036  0.2508
 9522TIP3    H149981   3.198   2.131   2.537  0.7379 -2.1395 -1.0628
 9522TIP3    H249982   3.336   2.181   2.574  0.1934 -0.1992 -1.5144
 9523TIP3   OH249983   1.660   6.637   2.302  0.6719 -0.2693  0.0826
 9523TIP3    H149984   1.720   6.598   2.239  2.4584 -2.8794  3.1262
 9523TIP3    H249985   1.583   6.581   2.301 -0.9069  1.7241 -2.1080
 9524TIP3   OH249986   2.016   1.029   2.142  0.1062  0.5636 -0.1914
 9524TIP3    H149987   2.091   1.051   2.088 -0.1143 -0.5171 -0.9837
 9524TIP3    H249988   1.953   0.990   2.081  0.2409 -1.6159  0.9646
 9525TIP3   OH249989   3.473   0.411  15.267  0.0256 -0.5240 -0.4532
 9525TIP3    H149990   3.518   0.345  15.215 -1.0569 -1.0084 -0.7970
 9525TIP3    H249991   3.430   0.361  15.336 -2.4546 -0.4720 -1.8528
 9526TIP3   OH249992   4.137   1.223   3.777  0.7357  0.1634  0.1974
 9526TIP3    H149993   4.217   1.270   3.800  1.6724 -0.5293 -1.5173
 9526TIP3    H249994   4.156   1.132   3.799  0.5269 -0.0420 -0.4626
 9527TIP3   OH249995   2.146   3.123   3.706 -0.0970 -0.4809  0.0283
 9527TIP3    H149996   2.113   3.202   3.664 -0.5328 -1.1436 -0.9148
 9527TIP3    H249997   2.241   3.133   3.705 -0.1347 -0.1626 -0.4773
 9528TIP3   OH249998   2.340   0.200  16.050  0.1220 -0.0071 -0.0785
 9528TIP3    H149999   2.285   0.233  15.980  2.2675  1.4057 -1.2249
 9528TIP3    H250000   2.301   0.234  16.130  0.1881  2.3710 -0.9765
 9529TIP3   OH250001   6.235   5.595   2.262  0.3301  0.5602  0.5203
 9529TIP3    H150002   6.310   5.568   2.315  0.5873 -0.9492 -0.5289
 9529TIP3    H250003   6.171   5.524   2.274 -0.4759  1.2676  0.4992
 9530TIP3   OH250004   5.520   5.648  11.694  0.0797  0.1597 -0.4534
 9530TIP3    H150005   5.535   5.743  11.696  0.6540  0.1306 -1.9631
 9530TIP3    H250006   5.424   5.640  11.695  0.0219  0.6691  1.2589
 9531TIP3   OH250007   4.124   3.627   1.558 -0.1162 -0.1278 -0.5720
 9531TIP3    H150008   4.081   3.673   1.630  0.5883  1.2248 -0.9745
 9531TIP3    H250009   4.052   3.597   1.503 -0.6254  1.8792 -1.1031
 9532TIP3   OH250010   1.497   0.888  12.214 -0.1757 -0.6303 -0.0749
 9532TIP3    H150011   1.463   0.844  12.292 -2.9317  1.0276 -0.1934
 9532TIP3    H250012   1.531   0.971  12.246 -0.6596 -0.2501 -0.5219
 9533TIP3   OH250013   5.181   1.341  14.766  0.1206 -0.0865 -0.0170
 9533TIP3    H150014   5.202   1.249  14.776  1.0275  0.2964  2.2369
 9533TIP3    H250015   5.257   1.378  14.720  0.4616 -0.2155  0.4315
 9534TIP3   OH250016   6.760   5.113   6.028  0.5690  0.2144 -0.0629
 9534TIP3    H150017   6.767   5.027   6.068  0.0936  0.8646  1.5098
 9534TIP3    H250018   6.784   5.174   6.098  1.6891  1.3429 -1.3671
 9535TIP3   OH250019   5.395   6.467   0.946  0.1315  0.7980 -0.6290
 9535TIP3    H150020   5.347   6.544   0.977 -0.0396  0.3460  0.2561
 9535TIP3    H250021   5.422   6.490   0.857 -0.9769  1.4044 -0.8323
 9536TIP3   OH250022   3.949   2.393  16.579  0.2176  0.1049  0.8099
 9536TIP3    H150023   4.030   2.437  16.551  0.4106  0.4641  1.8736
 9536TIP3    H250024   3.902   2.460  16.629 -0.7294 -0.1202  0.2507
 9537TIP3   OH250025   5.959   6.183   1.372  0.0099  0.3546  0.3280
 9537TIP3    H150026   5.917   6.184   1.286  2.0944 -1.1255 -0.8240
 9537TIP3    H250027   5.969   6.090   1.393 -0.1619  0.6900  2.0351
 9538TIP3   OH250028   6.514   6.074  14.361  0.0610  0.5280  0.6631
 9538TIP3    H150029   6.450   6.102  14.427 -2.1411 -0.7227 -0.8209
 9538TIP3    H250030   6.540   5.986  14.389 -1.5383 -0.3621 -0.5116
 9539TIP3   OH250031   5.578   1.819  12.536  0.1545 -0.2972 -0.8081
 9539TIP3    H150032   5.547   1.893  12.588 -1.2297 -0.9467 -0.6702
 9539TIP3    H250033   5.668   1.842  12.513  0.5771  0.3358  1.2820
 9540TIP3   OH250034   1.521   1.028  14.949  0.1388  0.1592  0.4124
 9540TIP3    H150035   1.438   1.074  14.939 -0.1916 -0.6655 -0.7262
 9540TIP3    H250036   1.503   0.938  14.923  1.4690  0.0436 -0.1935
 9541TIP3   OH250037   3.912   6.163   4.797  0.1525  0.0680  0.3766
 9541TIP3    H150038   3.828   6.209   4.797 -0.2481 -0.6427  0.6400
 9541TIP3    H250039   3.910   6.109   4.719 -0.1948 -0.9280  1.0624
 9542TIP3   OH250040   0.850   5.180  17.139  0.3525 -0.1710  0.0468
 9542TIP3    H150041   0.883   5.099  17.178 -1.0703 -0.5035  0.6285
 9542TIP3    H250042   0.866   5.170  17.046  0.6185 -0.9184  0.1652
 9543TIP3   OH250043   3.846   5.083   3.923  0.2255 -0.3584 -0.3565
 9543TIP3    H150044   3.794   5.040   3.991  0.2625  0.1646  0.0122
 9543TIP3    H250045   3.935   5.050   3.937  0.9289  2.1768  2.0017
 9544TIP3   OH250046   5.226   4.408  12.452 -0.4059 -0.1780  0.3724
 9544TIP3    H150047   5.264   4.455  12.525  0.4163  1.0321 -0.7909
 9544TIP3    H250048   5.301   4.377  12.401 -0.9232 -2.2027  0.7260
 9545TIP3   OH250049   6.016   1.882   5.439 -0.4409 -0.0094  0.2174
 9545TIP3    H150050   5.926   1.873   5.471 -0.6927 -3.1231 -0.9288
 9545TIP3    H250051   6.071   1.866   5.516 -0.9767 -1.4675  0.3449
 9546TIP3   OH250052   2.612   4.144  13.284 -0.2433  0.1555  0.5083
 9546TIP3    H150053   2.597   4.162  13.377  0.5231 -1.8043  1.0485
 9546TIP3    H250054   2.698   4.180  13.265  0.0054 -0.2840  0.8051
 9547TIP3   OH250055   1.764   2.517   0.082 -0.1250 -0.5350 -0.1201
 9547TIP3    H150056   1.732   2.428   0.068  0.3281 -0.8199  0.6544
 9547TIP3    H250057   1.773   2.526   0.177 -0.1336  0.3248 -0.1897
 9548TIP3   OH250058   2.000   1.358  14.705 -1.0256  0.1667  0.1436
 9548TIP3    H150059   2.038   1.308  14.777 -1.0044  0.0189  0.0290
 9548TIP3    H250060   2.073   1.413  14.674 -1.5525  1.7993  1.6003
 9549TIP3   OH250061   0.545   0.960  11.727  0.1021 -0.0932  0.5248
 9549TIP3    H150062   0.460   1.000  11.742 -0.8984 -1.8778 -0.0176
 9549TIP3    H250063   0.594   1.024  11.675 -1.5683  0.2787 -0.6686
 9550TIP3   OH250064   5.536   6.058   5.478  0.2563 -0.0497 -0.1742
 9550TIP3    H150065   5.564   6.149   5.477 -0.8919  0.3207  0.1306
 9550TIP3    H250066   5.604   6.013   5.528  0.8821  0.6158 -0.4083
 9551TIP3   OH250067   6.629   3.554   5.743  0.4609 -0.1519 -0.5256
 9551TIP3    H150068   6.647   3.589   5.656  0.0164 -0.9554 -0.9448
 9551TIP3    H250069   6.561   3.489   5.730 -0.0689  0.1572  0.5134
 9552TIP3   OH250070   6.680   6.350   2.152  0.4115 -0.1864  0.3927
 9552TIP3    H150071   6.630   6.396   2.220 -0.0394 -0.2671  0.1234
 9552TIP3    H250072   6.725   6.419   2.104 -0.9222  0.0754 -0.5415
 9553TIP3   OH250073   1.445   5.810  14.368 -0.3991  0.3283  0.0537
 9553TIP3    H150074   1.437   5.894  14.414  0.1538 -0.4491  1.6328
 9553TIP3    H250075   1.361   5.767  14.381  0.1373 -0.3686  1.3579
 9554TIP3   OH250076   2.796   1.887   1.793  0.3802  0.2823 -0.4916
 9554TIP3    H150077   2.825   1.958   1.736 -1.0977  0.3056 -1.2805
 9554TIP3    H250078   2.870   1.827   1.797  1.0654  1.0613 -1.1499
 9555TIP3   OH250079   5.411   4.083   0.016 -0.2823 -0.3885 -0.5802
 9555TIP3    H150080   5.422   4.062  -0.076  0.3719 -0.7104 -0.4345
 9555TIP3    H250081   5.457   4.167   0.027 -0.6959 -0.1550 -0.6290
 9556TIP3   OH250082   4.372   6.393  11.473  0.4285 -0.2970 -0.0290
 9556TIP3    H150083   4.320   6.451  11.530 -0.0493 -0.0751 -0.6801
 9556TIP3    H250084   4.325   6.310  11.475 -0.7343  0.2710 -1.6599
 9557TIP3   OH250085   3.701   0.480   3.640 -0.5818 -0.0714  0.0451
 9557TIP3    H150086   3.793   0.485   3.665 -0.9620  0.3358  1.4451
 9557TIP3    H250087   3.677   0.570   3.616 -1.0151  0.1821  1.3072
 9558TIP3   OH250088   2.546   0.149  14.690  0.0946 -0.3920 -0.8149
 9558TIP3    H150089   2.512   0.080  14.747 -2.4854  0.3982 -1.2934
 9558TIP3    H250090   2.570   0.104  14.609 -0.4068 -0.8963 -0.6893
 9559TIP3   OH250091   2.271   6.385   2.427  0.2781  0.2167 -0.0033
 9559TIP3    H150092   2.219   6.305   2.427 -1.1829  1.1071 -1.6222
 9559TIP3    H250093   2.351   6.362   2.380  0.2898 -0.5172  0.3558
 9560TIP3   OH250094   0.895   5.035  12.679  0.5250  0.0521 -0.6083
 9560TIP3    H150095   0.934   5.059  12.763 -0.2720  0.5461 -0.3713
 9560TIP3    H250096   0.935   4.950  12.658  0.3513 -0.3358  0.5300
 9561TIP3   OH250097   2.878   2.520   4.581 -0.2873 -0.1048  0.3540
 9561TIP3    H150098   2.841   2.455   4.522 -0.3760 -0.1263  0.4322
 9561TIP3    H250099   2.807   2.584   4.594 -0.7721 -0.8455  1.5614
 9562TIP3   OH250100   1.387   1.177   0.123 -0.0061  0.6011 -0.3984
 9562TIP3    H150101   1.299   1.153   0.151 -0.5142  2.9326  0.3030
 9562TIP3    H250102   1.373   1.244   0.056  1.2626 -0.9587 -2.3353
 9563TIP3   OH250103   2.475   5.370  16.612  0.0149 -0.1451 -0.0293
 9563TIP3    H150104   2.415   5.419  16.556 -2.4986 -1.9037  0.9630
 9563TIP3    H250105   2.435   5.373  16.699  2.1977 -0.1300  1.0309
 9564TIP3   OH250106   3.171   5.096   3.105  0.2382  0.1733 -0.0133
 9564TIP3    H150107   3.251   5.125   3.150  0.2852  2.2105 -1.3024
 9564TIP3    H250108   3.165   5.153   3.028 -1.0286 -1.7380 -1.4013
 9565TIP3   OH250109   3.992   4.978   5.013 -0.3842 -0.2307 -0.7391
 9565TIP3    H150110   4.051   5.025   5.072  0.2688 -0.2257 -1.3850
 9565TIP3    H250111   3.980   4.893   5.055 -0.2630 -0.0756 -0.3860
 9566TIP3   OH250112   1.334   5.182   5.779 -0.4423 -0.2518 -0.3744
 9566TIP3    H150113   1.422   5.208   5.753 -0.5187  2.5092  1.5976
 9566TIP3    H250114   1.276   5.244   5.735 -1.1604 -0.3994  0.3152
 9567TIP3   OH250115   3.809   5.325  12.518  0.0434  0.0464  0.4151
 9567TIP3    H150116   3.875   5.270  12.475 -0.8756 -0.5048 -0.3323
 9567TIP3    H250117   3.841   5.335  12.608  1.0493 -0.3506  0.1169
 9568TIP3   OH250118   0.233   3.711  16.730 -0.2970  0.3690  0.0328
 9568TIP3    H150119   0.190   3.782  16.778  0.3458 -0.2274  1.5440
 9568TIP3    H250120   0.256   3.750  16.646 -0.7653  1.6845  0.4827
 9569TIP3   OH250121   0.163   1.540   3.150  0.6809 -0.3597  0.5908
 9569TIP3    H150122   0.149   1.459   3.197  0.7002  0.1697  1.5323
 9569TIP3    H250123   0.132   1.523   3.061  1.1787 -1.5520  0.6335
 9570TIP3   OH250124   0.428   5.306   0.663 -0.6627  0.5172  0.6849
 9570TIP3    H150125   0.380   5.387   0.683  0.7295  1.3136  0.9101
 9570TIP3    H250126   0.441   5.308   0.568 -2.1489 -0.3401  0.4357
 9571TIP3   OH250127   4.685   4.108   3.490 -0.1306  0.5453 -0.0237
 9571TIP3    H150128   4.701   4.103   3.396  0.3477  0.8384  0.0375
 9571TIP3    H250129   4.767   4.076   3.529 -1.0365 -1.5249  0.2928
 9572TIP3   OH250130   1.976   1.993  10.786  0.1368 -0.5415  0.1975
 9572TIP3    H150131   2.030   1.963  10.859  0.4478  0.2948  0.3141
 9572TIP3    H250132   1.963   2.086  10.801  0.7302 -0.2227 -1.1314
 9573TIP3   OH250133   3.403   2.258   0.985 -0.1403  0.0335  0.2512
 9573TIP3    H150134   3.345   2.256   1.062 -0.4435 -1.1515  0.0019
 9573TIP3    H250135   3.467   2.189   1.001  1.0242  1.1063  0.3618
 9574TIP3   OH250136   1.167   3.432   4.969  0.0719 -0.2097 -0.2708
 9574TIP3    H150137   1.135   3.503   5.025 -0.8328 -0.1137 -0.8898
 9574TIP3    H250138   1.261   3.450   4.959  0.1808 -0.0440  0.9270
 9575TIP3   OH250139   6.411   1.894   4.379 -0.1397  0.3015 -0.2353
 9575TIP3    H150140   6.461   1.842   4.316  1.5457 -0.2509  1.4710
 9575TIP3    H250141   6.334   1.840   4.398  0.5885 -0.6862  0.0060
 9576TIP3   OH250142   2.524   1.804   1.826 -0.0701  0.8772  0.0985
 9576TIP3    H150143   2.505   1.711   1.814 -0.3272  1.1622 -2.0648
 9576TIP3    H250144   2.618   1.807   1.842  0.0681  0.2967 -0.5506
 9577TIP3   OH250145   6.239   1.997   2.576 -0.1790  0.6241 -0.1504
 9577TIP3    H150146   6.303   1.927   2.589 -1.6272 -0.8269 -0.6093
 9577TIP3    H250147   6.292   2.072   2.549  1.2817 -0.7499 -1.3282
 9578TIP3   OH250148   0.901   2.965   3.009 -0.4489  0.2347 -0.3320
 9578TIP3    H150149   0.970   2.941   3.071 -1.3939 -0.9675  0.2995
 9578TIP3    H250150   0.945   3.020   2.944  0.6051  1.5130  1.3679
 9579TIP3   OH250151   4.071   2.658   1.663  0.5412 -0.1004  0.1735
 9579TIP3    H150152   4.041   2.575   1.625  1.3672  0.3952 -1.6070
 9579TIP3    H250153   3.993   2.693   1.706  0.3694 -2.1673  1.7261
 9580TIP3   OH250154   5.122   4.555  15.433  0.0873 -0.0810  0.0337
 9580TIP3    H150155   5.077   4.639  15.432 -1.2758 -0.7830 -1.0213
 9580TIP3    H250156   5.182   4.561  15.508  0.8187  2.2021 -0.6583
 9581TIP3   OH250157   1.083   2.287  13.401 -0.5366  0.6773 -0.0854
 9581TIP3    H150158   1.006   2.273  13.456 -0.2564 -1.4399 -0.1352
 9581TIP3    H250159   1.086   2.381  13.388 -3.8284  0.7583 -1.1546
 9582TIP3   OH250160   6.351   5.825   0.582 -0.2633 -0.3718 -0.0846
 9582TIP3    H150161   6.423   5.808   0.643 -0.3671 -0.1440  0.1035
 9582TIP3    H250162   6.393   5.832   0.496  0.2190  1.7139  0.2656
 9583TIP3   OH250163   0.946   0.021   1.537 -0.1886 -0.1613  0.1670
 9583TIP3    H150164   0.901   0.020   1.453 -0.5699  0.5944  0.3571
 9583TIP3    H250165   1.039   0.016   1.514 -0.3421 -2.9389 -0.1922
 9584TIP3   OH250166   3.899   6.234  17.288 -0.2040  0.1648 -0.3797
 9584TIP3    H150167   3.837   6.178  17.333  0.4256  0.5271  0.9983
 9584TIP3    H250168   3.878   6.323  17.319  1.3022  0.2396  0.5458
 9585TIP3   OH250169   1.624   0.513   3.837 -0.6922  0.0169  0.3096
 9585TIP3    H150170   1.710   0.529   3.874  0.5299 -2.0253 -1.3907
 9585TIP3    H250171   1.625   0.558   3.753  0.5685 -3.5414 -1.7899
 9586TIP3   OH250172   5.122   2.573   2.047  0.9661  0.1411 -0.3530
 9586TIP3    H150173   5.042   2.595   2.000 -0.2240  1.6969  2.1814
 9586TIP3    H250174   5.109   2.482   2.076 -0.2454  0.5731  0.5693
 9587TIP3   OH250175   1.097   5.162   0.071 -0.3076  0.0300  0.0620
 9587TIP3    H150176   1.098   5.243   0.021  0.5037  0.8469  1.3352
 9587TIP3    H250177   1.181   5.121   0.053 -0.4759 -0.2344 -0.1220
 9588TIP3   OH250178   0.860   0.390   0.638  0.2322  0.2733 -0.5789
 9588TIP3    H150179   0.804   0.467   0.646 -1.8028 -1.1535 -0.2733
 9588TIP3    H250180   0.839   0.353   0.552  0.8961 -0.1611 -0.5702
 9589TIP3   OH250181   0.678   0.661   1.748 -0.2484 -0.1257  0.5866
 9589TIP3    H150182   0.762   0.664   1.703  0.2077 -1.0704  1.3330
 9589TIP3    H250183   0.660   0.752   1.772  0.9643 -0.0153  1.1357
 9590TIP3   OH250184   1.319   1.426  13.389  0.4693 -0.4544 -0.4884
 9590TIP3    H150185   1.345   1.481  13.315  1.4789  1.3941  1.1490
 9590TIP3    H250186   1.232   1.393  13.366 -0.2208  1.9115 -1.5509
 9591TIP3   OH250187   3.433   6.025   5.298 -0.3138 -0.0851 -0.2643
 9591TIP3    H150188   3.358   6.084   5.290 -0.4899 -0.1169  0.9450
 9591TIP3    H250189   3.506   6.081   5.324 -0.3601 -0.3138  0.3807
 9592TIP3   OH250190   6.365   1.621  11.670 -0.0020 -0.5625  0.1427
 9592TIP3    H150191   6.385   1.589  11.582  1.6587  0.0284  0.2845
 9592TIP3    H250192   6.273   1.647  11.665  0.4209  0.7679 -1.8348
 9593TIP3   OH250193   4.035   0.188  13.923  0.3000 -0.5478 -0.4284
 9593TIP3    H150194   3.959   0.155  13.970  0.3439  0.3185  0.2640
 9593TIP3    H250195   4.001   0.216  13.838 -0.1764 -0.0298 -0.0687
 9594TIP3   OH250196   0.385   4.617   3.400 -0.4856 -0.6716  0.1618
 9594TIP3    H150197   0.399   4.538   3.349  1.6332 -0.0466 -0.3128
 9594TIP3    H250198   0.430   4.602   3.483  0.3993  0.2156 -0.1396
 9595TIP3   OH250199   1.193   6.366   1.288  0.3086  0.2638 -0.2704
 9595TIP3    H150200   1.194   6.429   1.360  1.6585  0.1358 -0.1418
 9595TIP3    H250201   1.275   6.384   1.241 -0.5705  0.3647 -1.7945
 9596TIP3   OH250202   1.231   1.796  11.308 -0.6848  0.7865  0.3249
 9596TIP3    H150203   1.320   1.763  11.300 -0.2346  2.0215 -0.0910
 9596TIP3    H250204   1.239   1.873  11.364 -1.7453  0.0574  1.5277
 9597TIP3   OH250205   4.148   2.150  16.634  0.4537  0.0853 -0.1532
 9597TIP3    H150206   4.090   2.220  16.603  1.0254  0.3964 -0.5268
 9597TIP3    H250207   4.105   2.117  16.714  0.4263  1.1974  0.3099
 9598TIP3   OH250208   4.167   0.649  14.470 -0.0036  0.0631  0.0307
 9598TIP3    H150209   4.196   0.706  14.398  1.1864  1.6085  1.6529
 9598TIP3    H250210   4.208   0.564  14.450  1.0560  0.7104 -0.6741
 9599TIP3   OH250211   1.168   3.899  16.312 -0.3541  0.2792 -0.3332
 9599TIP3    H150212   1.101   3.878  16.377 -0.3724  2.2821  0.3470
 9599TIP3    H250213   1.251   3.885  16.357 -0.1144 -3.3161 -1.5054
 9600TIP3   OH250214   0.418   2.178  13.774  0.2999 -0.2250  0.4366
 9600TIP3    H150215   0.337   2.197  13.727  1.1104  0.4860 -0.7359
 9600TIP3    H250216   0.406   2.220  13.860 -0.7580 -0.5739  0.4760
 9601TIP3   OH250217   4.067   0.724  14.705 -0.8817  0.0250 -0.4332
 9601TIP3    H150218   3.987   0.776  14.712  0.6242  2.4460  0.1337
 9601TIP3    H250219   4.073   0.701  14.613 -2.8768 -1.4124 -0.2708
 9602TIP3   OH250220   1.739   3.978   0.831 -0.3696 -0.1705 -0.0728
 9602TIP3    H150221   1.689   4.060   0.832 -2.1630 -1.1915 -0.7318
 9602TIP3    H250222   1.802   3.989   0.760 -0.8153  0.5332 -0.3731
 9603TIP3   OH250223   6.287   4.704   4.385 -0.1311 -0.3807 -0.5522
 9603TIP3    H150224   6.217   4.655   4.343 -1.2587  1.4161 -0.8650
 9603TIP3    H250225   6.310   4.773   4.322 -0.6472  1.2836  0.9772
 9604TIP3   OH250226   5.677   2.198  12.503 -0.1322 -0.6153 -0.1780
 9604TIP3    H150227   5.764   2.197  12.463  0.4226 -0.6357  0.9776
 9604TIP3    H250228   5.656   2.291  12.512 -0.7024 -0.6091 -1.4081
 9605TIP3   OH250229   1.623   6.729  13.432 -0.3916 -0.0733  0.1129
 9605TIP3    H150230   1.598   6.685  13.513  0.5752 -1.3749 -0.2640
 9605TIP3    H250231   1.540   6.755  13.392 -1.1030 -2.5477 -0.1871
 9606TIP3   OH250232   4.074   3.006  16.915 -0.3147 -0.0046 -0.3230
 9606TIP3    H150233   4.067   2.919  16.875 -2.7455  0.7252 -1.6757
 9606TIP3    H250234   4.055   3.066  16.843  1.8262  1.7225  0.4617
 9607TIP3   OH250235   2.234   6.000  15.827 -0.0086  0.2984 -0.1385
 9607TIP3    H150236   2.209   6.090  15.846  0.7880  0.2144  1.5452
 9607TIP3    H250237   2.330   6.001  15.828  0.0592 -0.1617 -2.3289
 9608TIP3   OH250238   6.288   6.403   0.019 -0.1676  0.4715 -0.1462
 9608TIP3    H150239   6.265   6.311   0.012 -0.3389  0.2572  2.3350
 9608TIP3    H250240   6.375   6.410  -0.020  0.1305 -0.8829  0.2517
 9609TIP3   OH250241   3.732   6.024   0.535 -0.0621 -0.0851 -0.0576
 9609TIP3    H150242   3.728   5.986   0.448 -0.2341 -0.5205  0.1356
 9609TIP3    H250243   3.647   6.067   0.546  0.8735  2.1853 -1.0746
 9610TIP3   OH250244   3.837   2.889  11.286  0.6268  0.4847  0.2632
 9610TIP3    H150245   3.846   2.858  11.377  0.2397 -0.9052 -0.1534
 9610TIP3    H250246   3.748   2.865  11.262  1.6274 -1.9670 -1.4534
 9611TIP3   OH250247   0.986   0.352  17.213  0.1833  0.6113 -0.3290
 9611TIP3    H150248   1.074   0.382  17.193  0.2723 -0.1010 -1.0506
 9611TIP3    H250249   0.929   0.406  17.157  0.2140  0.6452 -0.3269
 9612TIP3   OH250250   4.530   6.534  16.100 -0.4798 -0.0334 -0.0019
 9612TIP3    H150251   4.616   6.528  16.142 -0.7647 -0.2653  0.5588
 9612TIP3    H250252   4.493   6.617  16.130 -1.7810 -1.3748  2.3655
 9613TIP3   OH250253   5.405   0.459  16.661  0.2561 -0.2880 -0.5296
 9613TIP3    H150254   5.457   0.535  16.636  0.9230 -1.2408 -2.2204
 9613TIP3    H250255   5.314   0.488  16.652  0.4967  0.1185 -1.8682
 9614TIP3   OH250256   2.740   0.824  13.471 -0.7204 -0.3033 -0.2582
 9614TIP3    H150257   2.735   0.729  13.457 -0.3420 -0.0185 -2.7979
 9614TIP3    H250258   2.676   0.861  13.410  2.7823  1.2681 -3.3368
 9615TIP3   OH250259   2.196   0.528   5.286  0.7833  0.0465 -0.3568
 9615TIP3    H150260   2.156   0.467   5.224  1.0701 -1.0967  0.5512
 9615TIP3    H250261   2.245   0.590   5.231  2.7826 -2.1771 -1.2390
 9616TIP3   OH250262   1.997   3.123  15.538 -0.6402  0.0038  0.2483
 9616TIP3    H150263   1.973   3.215  15.555  0.6154  0.6236 -1.1363
 9616TIP3    H250264   1.923   3.073  15.572 -1.5462  1.5547  0.6709
 9617TIP3   OH250265   6.099   3.960   1.108 -0.4219 -0.1245 -0.3641
 9617TIP3    H150266   6.041   3.992   1.177  1.2621  2.3723  0.0542
 9617TIP3    H250267   6.157   3.898   1.152 -1.1377 -0.6783 -0.1977
 9618TIP3   OH250268   5.532   4.430  15.449 -0.1670 -0.6430  0.0147
 9618TIP3    H150269   5.553   4.518  15.418  1.3777 -1.4703 -1.3850
 9618TIP3    H250270   5.501   4.444  15.539 -0.1070  1.3318 -0.2248
 9619TIP3   OH250271   1.845   2.363   2.778  0.0033  0.5510 -0.5256
 9619TIP3    H150272   1.818   2.438   2.831 -3.0054 -1.1324  0.5256
 9619TIP3    H250273   1.790   2.367   2.700  1.2824  0.5288 -1.4692
 9620TIP3   OH250274   3.559   1.458   4.731 -0.3353  0.1690 -0.1491
 9620TIP3    H150275   3.514   1.522   4.675 -0.6029  1.0560  1.0464
 9620TIP3    H250276   3.529   1.477   4.819 -1.6570 -2.6706  0.1157
 9621TIP3   OH250277   2.497   4.765   2.397 -0.0300 -0.2946 -0.4209
 9621TIP3    H150278   2.429   4.825   2.427  1.2160  0.5480  0.8725
 9621TIP3    H250279   2.557   4.757   2.472  1.8898 -0.0950 -1.8615
 9622TIP3   OH250280   4.312   0.152  12.704 -1.0574 -0.1493  0.4560
 9622TIP3    H150281   4.252   0.227  12.700 -0.7748  0.0458 -0.4152
 9622TIP3    H250282   4.393   0.184  12.664 -1.1204 -1.0900 -0.4762
 9623TIP3   OH250283   2.979   0.016   2.810 -0.7194 -0.1525  0.2933
 9623TIP3    H150284   2.920   0.046   2.741 -0.1111 -0.2063 -0.2580
 9623TIP3    H250285   2.920  -0.018   2.878 -1.3327  0.1022 -0.0967
 9624TIP3   OH250286   2.494   5.736   3.699  0.4945  0.0188 -0.0665
 9624TIP3    H150287   2.550   5.702   3.630  1.4777  0.3398  0.5543
 9624TIP3    H250288   2.529   5.824   3.718  0.8688 -0.4266  1.4874
 9625TIP3   OH250289   0.398   0.661  15.778  0.8723 -0.0552 -0.3515
 9625TIP3    H150290   0.411   0.664  15.873 -0.9849 -3.3705  0.1315
 9625TIP3    H250291   0.392   0.568  15.757  2.8148  0.4680 -4.0359
 9626TIP3   OH250292   6.224   1.834   3.793  0.0740  0.2431 -0.4001
 9626TIP3    H150293   6.149   1.862   3.846 -0.2057  1.0550 -1.1982
 9626TIP3    H250294   6.203   1.744   3.768  0.7248 -0.5625  1.7421
 9627TIP3   OH250295   5.818   2.680  17.153  0.7376  0.2954  0.2181
 9627TIP3    H150296   5.752   2.624  17.112  2.6529 -1.2621 -0.8830
 9627TIP3    H250297   5.862   2.724  17.080  1.1984  1.0166  0.9064
 9628TIP3   OH250298   5.349   2.002   4.127  0.1734  0.5084 -0.3099
 9628TIP3    H150299   5.384   2.035   4.044 -0.5402 -0.7479 -1.1356
 9628TIP3    H250300   5.320   2.081   4.173 -1.1571  1.1106 -2.0669
 9629TIP3   OH250301   5.521   5.901   0.126  0.3887  0.2940 -0.4088
 9629TIP3    H150302   5.487   5.961   0.192  3.7719  2.8498 -0.7476
 9629TIP3    H250303   5.483   5.931   0.044 -0.7719 -0.4313 -0.1627
 9630TIP3   OH250304   3.052   1.451   2.404  0.3321  0.4307  0.2804
 9630TIP3    H150305   3.075   1.512   2.474 -1.1712  1.7511 -0.3339
 9630TIP3    H250306   3.136   1.411   2.379  1.0689  0.7887  2.0065
 9631TIP3   OH250307   4.263   3.196  13.679  0.6476  0.4064 -0.0612
 9631TIP3    H150308   4.185   3.179  13.627  0.0389  0.2476  0.8812
 9631TIP3    H250309   4.334   3.151  13.632  0.1539  0.4485 -0.8543
 9632TIP3   OH250310   0.655   6.469   5.365 -0.4333 -0.3669 -0.1122
 9632TIP3    H150311   0.706   6.414   5.306  0.1898  0.1036 -0.0235
 9632TIP3    H250312   0.720   6.525   5.407 -1.0094  0.1443  0.1049
 9633TIP3   OH250313   6.150   6.055   5.068 -0.0869 -0.5914 -0.0674
 9633TIP3    H150314   6.206   6.121   5.109 -1.5440  0.9570 -0.4333
 9633TIP3    H250315   6.116   6.099   4.989 -2.9000 -0.8986  0.8902
 9634TIP3   OH250316   4.244   4.951  15.986  0.0635 -0.6304 -0.4602
 9634TIP3    H150317   4.267   4.886  16.052  1.8159  1.2245  0.9057
 9634TIP3    H250318   4.155   4.978  16.007 -0.1750 -1.5729 -0.2152
 9635TIP3   OH250319   2.407   0.573  16.076  0.1359 -0.0928 -0.0846
 9635TIP3    H150320   2.374   0.547  15.990  0.6128  0.3977 -0.4238
 9635TIP3    H250321   2.492   0.614  16.057  0.9235 -1.2818  0.7572
 9636TIP3   OH250322   6.696   3.286   1.924 -0.1573  0.1048  0.1655
 9636TIP3    H150323   6.732   3.341   1.994 -0.6996 -0.1373  0.6461
 9636TIP3    H250324   6.772   3.261   1.872 -0.1641  3.4712 -1.6801
 9637TIP3   OH250325   5.329   5.064  14.918  0.0088 -0.3097  0.1988
 9637TIP3    H150326   5.341   5.044  15.011  0.0859 -0.2251  0.2070
 9637TIP3    H250327   5.323   4.978  14.876 -0.1968 -0.3493  0.3045
 9638TIP3   OH250328   2.799   1.190   0.868  0.3637 -0.1726 -0.2869
 9638TIP3    H150329   2.717   1.185   0.917  0.0417  0.6623 -0.7229
 9638TIP3    H250330   2.821   1.099   0.850 -0.2641 -0.4245  0.1660
 9639TIP3   OH250331   2.318   4.077  16.125 -0.1377 -0.0929  0.2675
 9639TIP3    H150332   2.349   4.084  16.216  0.5040  1.5342 -0.0385
 9639TIP3    H250333   2.293   4.166  16.102  0.5783 -0.3048 -1.4565
 9640TIP3   OH250334   1.747   1.479  12.614 -0.1687 -0.2913  0.1860
 9640TIP3    H150335   1.724   1.406  12.671 -0.3925 -1.1499 -0.9614
 9640TIP3    H250336   1.668   1.535  12.613 -0.8322 -1.1957 -0.6421
 9641TIP3   OH250337   6.362   4.954  13.373  0.2457 -0.3108 -0.1886
 9641TIP3    H150338   6.291   4.908  13.417  1.4302 -0.7466  1.3640
 9641TIP3    H250339   6.422   4.978  13.444  1.7955 -0.2164 -1.4876
 9642TIP3   OH250340   5.756   2.429  11.416 -0.0647  0.6540 -0.4389
 9642TIP3    H150341   5.775   2.353  11.361  1.5537  0.5428  0.2215
 9642TIP3    H250342   5.732   2.499  11.354  1.2221  0.3926 -1.2551
 9643TIP3   OH250343   6.278   2.665  12.190  0.2786  0.1377 -0.2379
 9643TIP3    H150344   6.292   2.636  12.280  4.1242  0.2166 -0.6703
 9643TIP3    H250345   6.291   2.587  12.136 -0.0157  0.4969 -0.8511
 9644TIP3   OH250346   4.468   5.547   2.588  0.3151  0.0709 -0.0777
 9644TIP3    H150347   4.559   5.524   2.574  0.6636  1.5485 -0.3979
 9644TIP3    H250348   4.464   5.577   2.679 -0.1342 -1.1880  0.3410
 9645TIP3   OH250349   3.234   5.888  16.775  0.1794  0.5388 -0.4140
 9645TIP3    H150350   3.269   5.971  16.807  1.3301 -0.1449  0.2177
 9645TIP3    H250351   3.286   5.869  16.696 -1.2199  1.2032 -1.5303
 9646TIP3   OH250352   2.729   4.728  11.098 -0.2630 -0.2116 -0.2176
 9646TIP3    H150353   2.809   4.778  11.085 -0.8578  0.8440  0.0912
 9646TIP3    H250354   2.663   4.793  11.122 -2.0589 -0.5508 -3.6746
 9647TIP3   OH250355   3.665   2.251  15.171  0.3354  0.0938  0.3426
 9647TIP3    H150356   3.591   2.228  15.113 -1.4508  2.0800  1.7186
 9647TIP3    H250357   3.686   2.341  15.149  1.1503  0.1405  1.2491
 9648TIP3   OH250358   0.182   4.355   1.170 -0.1168  0.1659  0.2283
 9648TIP3    H150359   0.209   4.437   1.212  0.7406  0.4442 -0.8033
 9648TIP3    H250360   0.223   4.287   1.223  1.6547  0.5397 -0.5710
 9649TIP3   OH250361   2.253   6.322  15.838  0.0043  0.7424  0.0194
 9649TIP3    H150362   2.302   6.327  15.920 -0.8828 -1.0509  0.7085
 9649TIP3    H250363   2.321   6.328  15.770  1.2479 -1.5209  0.9478
 9650TIP3   OH250364   2.358   3.125   1.581  0.0143  0.0915  0.0651
 9650TIP3    H150365   2.340   3.045   1.532  0.3874 -1.3868  2.2075
 9650TIP3    H250366   2.385   3.094   1.667 -0.0706  2.5586  1.0352
 9651TIP3   OH250367   3.138   0.014   0.298 -0.1835 -0.3131 -0.3984
 9651TIP3    H150368   3.052  -0.025   0.289 -0.4038 -0.1772  0.9416
 9651TIP3    H250369   3.162  -0.001   0.389  1.1650 -0.2501 -0.7159
 9652TIP3   OH250370   2.800   2.376   3.476 -0.0032  0.1454  0.5133
 9652TIP3    H150371   2.871   2.402   3.416 -1.3406 -0.9208 -1.6597
 9652TIP3    H250372   2.727   2.356   3.418 -1.2233 -1.4981  2.5147
 9653TIP3   OH250373   6.375   6.451  16.186  0.0247  0.0488 -0.1155
 9653TIP3    H150374   6.317   6.511  16.233  0.3227  0.7483 -0.6272
 9653TIP3    H250375   6.439   6.423  16.252 -0.3447 -0.0039  0.2193
 9654TIP3   OH250376   1.703   2.331  12.528  0.1404 -0.2071 -0.0894
 9654TIP3    H150377   1.758   2.298  12.457 -0.0073 -1.8143  0.5085
 9654TIP3    H250378   1.613   2.326  12.493  0.3244  4.3198 -1.8401
 9655TIP3   OH250379   1.995   5.985   4.783 -0.8324 -0.5897 -0.0699
 9655TIP3    H150380   1.926   5.929   4.747 -1.7336  0.8813 -0.7287
 9655TIP3    H250381   2.037   6.024   4.706  0.1427 -0.7608  0.3586
 9656TIP3   OH250382   4.865   2.443   2.622  0.4256  0.2362 -0.4715
 9656TIP3    H150383   4.901   2.355   2.636  1.3835  0.6714 -0.1033
 9656TIP3    H250384   4.816   2.436   2.540  2.0009 -0.2124 -1.4271
 9657TIP3   OH250385   0.185   0.388  12.005  0.2791 -0.5865 -0.3982
 9657TIP3    H150386   0.126   0.336  11.950  0.9499 -2.1773  0.3046
 9657TIP3    H250387   0.132   0.462  12.034 -1.1839 -1.6300 -0.3039
 9658TIP3   OH250388   1.981   0.180   0.561 -0.2465  0.2133 -0.3405
 9658TIP3    H150389   2.023   0.261   0.589 -0.3107  0.3305 -0.5773
 9658TIP3    H250390   1.899   0.209   0.521 -0.6281 -0.0202  0.2540
 9659TIP3   OH250391   1.623   0.642   3.602 -0.0690 -0.5494 -0.2021
 9659TIP3    H150392   1.638   0.643   3.507  1.5839  0.5963  0.0269
 9659TIP3    H250393   1.583   0.727   3.620  2.3665  0.5331  0.4597
 9660TIP3   OH250394   0.918   3.812   6.162 -0.5151 -0.2388 -0.0896
 9660TIP3    H150395   0.907   3.889   6.106 -2.7144 -0.3036  0.1617
 9660TIP3    H250396   0.837   3.808   6.213  0.4401 -1.5418  1.3945
 9661TIP3   OH250397   3.723   3.423   0.458 -0.8820 -0.3294  0.7035
 9661TIP3    H150398   3.672   3.380   0.389  0.2022 -1.9544  0.8578
 9661TIP3    H250399   3.735   3.512   0.427 -0.8640 -0.8846 -0.9746
 9662TIP3   OH250400   5.179   4.791   0.256  0.0344  0.0296 -0.4536
 9662TIP3    H150401   5.132   4.865   0.218 -1.7645 -1.2474 -0.8551
 9662TIP3    H250402   5.157   4.717   0.200 -0.2257 -1.2945  1.3009
 9663TIP3   OH250403   0.103   6.271  16.095  0.8340  0.2278 -0.3511
 9663TIP3    H150404   0.131   6.271  16.186  0.0473  0.2247 -0.1100
 9663TIP3    H250405   0.173   6.318  16.049  0.7774  1.0459  0.3840
 9664TIP3   OH250406   0.803   0.465   0.211 -0.1234 -0.6632  0.0338
 9664TIP3    H150407   0.898   0.473   0.218 -0.1680  0.1877 -0.2286
 9664TIP3    H250408   0.789   0.379   0.174  0.5907 -0.4355 -0.7955
 9665TIP3   OH250409   3.531   6.551  15.107  0.2099 -0.3965 -0.6249
 9665TIP3    H150410   3.576   6.606  15.171 -1.6696  0.3552  0.1117
 9665TIP3    H250411   3.492   6.480  15.158 -3.9588  1.8490 -0.2318
 9666TIP3   OH250412   0.622   6.034  10.622  0.0248 -0.1095  0.6355
 9666TIP3    H150413   0.715   6.033  10.598 -0.3375  0.0659 -0.8841
 9666TIP3    H250414   0.580   6.083  10.552 -1.2108 -0.0654  1.3796
 9667TIP3   OH250415   5.623   3.507   4.448  0.8366  0.5185 -0.5069
 9667TIP3    H150416   5.539   3.516   4.403 -0.1047  0.3459  1.1460
 9667TIP3    H250417   5.662   3.594   4.443  0.2144  0.7976 -0.6172
 9668TIP3   OH250418   1.426   1.007   0.376 -0.1342  0.4062 -0.4201
 9668TIP3    H150419   1.411   1.065   0.301  1.5047  2.8245  0.9761
 9668TIP3    H250420   1.445   1.067   0.448 -0.6139 -1.8731  1.6965
 9669TIP3   OH250421   0.780   5.960  16.040  0.3755 -1.0983 -0.2665
 9669TIP3    H150422   0.705   5.903  16.060  0.2685 -1.1611 -0.8322
 9669TIP3    H250423   0.855   5.915  16.079 -0.1083 -0.1285  1.9206
 9670TIP3   OH250424   0.013   3.008   2.015 -0.0497  0.3783 -0.6362
 9670TIP3    H150425  -0.023   3.082   1.967  1.0911  2.1449  1.1236
 9670TIP3    H250426   0.088   3.043   2.063 -0.8158 -1.3517  2.0832
 9671TIP3   OH250427   4.304   1.932  16.584  0.0088  0.2345  0.3583
 9671TIP3    H150428   4.260   2.017  16.582 -0.1798  0.1951  1.8165
 9671TIP3    H250429   4.233   1.868  16.587  0.1348 -0.0475 -1.5173
 9672TIP3   OH250430   5.459   2.562  14.783  0.1094 -0.1459  0.5542
 9672TIP3    H150431   5.440   2.584  14.691  0.9564  0.1962  0.4537
 9672TIP3    H250432   5.546   2.598  14.799 -0.5043  0.8569  1.8495
 9673TIP3   OH250433   2.573   6.767  15.839 -0.4856  0.5289  0.6058
 9673TIP3    H150434   2.659   6.732  15.816 -0.7564 -0.4152  0.9824
 9673TIP3    H250435   2.592   6.851  15.879  0.1176  1.3771 -1.3028
 9674TIP3   OH250436   3.353   1.114  13.760 -0.3932 -0.4283  0.6074
 9674TIP3    H150437   3.449   1.119  13.755 -0.3866 -0.0051  1.0972
 9674TIP3    H250438   3.322   1.165  13.685 -0.2373 -0.6092  0.4183
 9675TIP3   OH250439   3.959   5.367  13.228  0.5717  0.3215  0.5632
 9675TIP3    H150440   3.866   5.358  13.250  0.3576  1.9499  0.4719
 9675TIP3    H250441   3.977   5.293  13.170 -0.7628  0.1498  0.3266
 9676TIP3   OH250442   2.273   4.218  14.910  0.2169 -0.0057 -0.1199
 9676TIP3    H150443   2.317   4.303  14.901  0.0490 -0.0364 -1.4716
 9676TIP3    H250444   2.202   4.234  14.973  1.6985  0.2077  1.5564
 9677TIP3   OH250445   6.706   1.298  13.650  0.0304  0.6131  0.1567
 9677TIP3    H150446   6.767   1.368  13.628  0.7094  0.0988  0.3629
 9677TIP3    H250447   6.743   1.220  13.608 -0.1941  0.1917  0.7250
 9678TIP3   OH250448   3.541   5.453   1.749  0.2887  0.2032  0.5680
 9678TIP3    H150449   3.522   5.500   1.668  0.0112 -1.0610 -0.1185
 9678TIP3    H250450   3.620   5.402   1.729  1.1485  1.0606  1.6011
 9679TIP3   OH250451   6.565   3.219  15.414 -0.1802 -0.1596  0.1143
 9679TIP3    H150452   6.561   3.232  15.319  1.3693 -0.5663 -0.0324
 9679TIP3    H250453   6.608   3.134  15.425 -0.3476 -0.1229  1.1848
 9680TIP3   OH250454   5.723   3.723   1.320 -0.4161  0.1168 -0.2081
 9680TIP3    H150455   5.682   3.796   1.365  0.3976  0.0438  0.6894
 9680TIP3    H250456   5.724   3.652   1.385  2.4352  0.5626  0.3800
 9681TIP3   OH250457   2.868   1.869  13.180 -0.3317  0.2436 -0.0719
 9681TIP3    H150458   2.959   1.841  13.186  0.2447  2.1292  1.0644
 9681TIP3    H250459   2.862   1.943  13.240 -2.2914  1.0022 -1.1031
 9682TIP3   OH250460   0.663   4.462   4.548 -0.4939 -0.0567 -0.4843
 9682TIP3    H150461   0.708   4.400   4.607  0.0739  0.9403  0.1544
 9682TIP3    H250462   0.580   4.481   4.592 -0.5765 -0.2016 -0.5772
 9683TIP3   OH250463   2.397   2.041   3.375 -0.2025  0.1177 -0.2719
 9683TIP3    H150464   2.475   2.083   3.339 -1.0645  2.2697  0.2158
 9683TIP3    H250465   2.430   1.963   3.419  1.9872  1.9310  1.5758
 9684TIP3   OH250466   4.007   0.155   3.081 -0.5511  0.3561  0.0556
 9684TIP3    H150467   4.069   0.085   3.065  1.6143  2.2236 -0.2790
 9684TIP3    H250468   3.974   0.139   3.169 -0.7486 -1.4837 -0.3196
 9685TIP3   OH250469   0.500   6.744  11.476  0.4719  0.7771 -0.3248
 9685TIP3    H150470   0.573   6.807  11.469  1.5639 -0.3921  0.1085
 9685TIP3    H250471   0.472   6.750  11.567  0.1644  1.0548 -0.4337
 9686TIP3   OH250472   6.165   3.456   5.828 -0.3045 -0.6173  0.2233
 9686TIP3    H150473   6.118   3.373   5.831 -0.1659 -0.7719 -1.2746
 9686TIP3    H250474   6.111   3.513   5.774  0.9201 -0.6216 -1.0574
 9687TIP3   OH250475   1.684   4.529   2.134 -0.3471 -0.4301 -0.5895
 9687TIP3    H150476   1.672   4.484   2.218  0.5789 -0.2323 -0.3447
 9687TIP3    H250477   1.634   4.476   2.071 -2.4587  0.3230  0.3443
 9688TIP3   OH250478   1.338   0.428   0.696 -0.4315  0.1927 -0.0970
 9688TIP3    H150479   1.327   0.493   0.767 -2.5966 -1.2080  0.9522
 9688TIP3    H250480   1.321   0.344   0.739 -1.6931 -0.7139 -2.2458
 9689TIP3   OH250481   1.027   4.440   4.534  0.1750 -0.1311 -0.2860
 9689TIP3    H150482   1.097   4.378   4.550 -0.7231 -1.4126 -1.1418
 9689TIP3    H250483   0.946   4.391   4.551 -0.5684  0.6679 -1.3722
 9690TIP3   OH250484   2.293   0.410  16.497  0.0272  0.2489  0.3813
 9690TIP3    H150485   2.338   0.403  16.413 -1.8848 -0.2591 -0.6451
 9690TIP3    H250486   2.205   0.441  16.475  0.1020  2.1882  2.4143
 9691TIP3   OH250487   0.766   4.595   0.652  0.3002  0.1001  0.4757
 9691TIP3    H150488   0.737   4.681   0.623 -0.3235 -0.7098 -1.4090
 9691TIP3    H250489   0.688   4.539   0.645  0.8271 -0.7444  1.1496
 9692TIP3   OH250490   5.569   2.262   5.266 -0.1786 -0.1675  0.4016
 9692TIP3    H150491   5.505   2.252   5.336  0.4370 -0.0592  0.9850
 9692TIP3    H250492   5.639   2.316   5.303 -0.8890  1.8386 -1.0021
 9693TIP3   OH250493   4.703   4.900  11.718  0.4931 -0.2003 -0.1066
 9693TIP3    H150494   4.624   4.908  11.772  0.2814  0.2134 -0.4679
 9693TIP3    H250495   4.750   4.825  11.755  0.0616 -0.2880  0.2776
 9694TIP3   OH250496   2.226   2.439  12.218 -0.5855 -0.1794  0.4209
 9694TIP3    H150497   2.295   2.483  12.169 -1.1502  1.7002  1.1843
 9694TIP3    H250498   2.271   2.371  12.268  0.1732 -1.2717 -1.6642
 9695TIP3   OH250499   3.583   0.331  16.619 -0.2097  0.6407 -0.2468
 9695TIP3    H150500   3.547   0.419  16.627 -0.6038  0.3846  1.0546
 9695TIP3    H250501   3.522   0.286  16.559 -1.5447  0.5042  1.1520
 9696TIP3   OH250502   5.646   3.522  17.268  0.8670 -0.0929 -0.0215
 9696TIP3    H150503   5.735   3.545  17.292  1.4016 -0.7178 -1.2893
 9696TIP3    H250504   5.656   3.461  17.195 -0.6122  0.6601 -0.9005
 9697TIP3   OH250505   5.802   4.902   5.509 -0.5133 -0.1533  0.3222
 9697TIP3    H150506   5.855   4.824   5.495 -1.2861 -0.3929 -1.5502
 9697TIP3    H250507   5.775   4.897   5.601  2.2525 -0.2402  1.2045
 9698TIP3   OH250508   3.527   0.519  14.919 -1.0938 -0.3388  0.5691
 9698TIP3    H150509   3.501   0.427  14.915  1.9733 -1.3439  0.6104
 9698TIP3    H250510   3.510   0.552  14.831 -0.2542 -1.6391 -0.1274
 9699TIP3   OH250511   5.993   5.021   1.024  0.6850 -0.2714 -0.1153
 9699TIP3    H150512   6.067   4.967   0.995  0.8420 -0.8053  1.2156
 9699TIP3    H250513   6.032   5.105   1.048  0.8475 -0.5162  0.4811
 9700TIP3   OH250514   5.302   1.188   0.707  0.0750 -0.0054  0.2409
 9700TIP3    H150515   5.276   1.214   0.618 -0.2301 -1.9365 -0.2746
 9700TIP3    H250516   5.220   1.176   0.753  0.2299  0.7746  0.7270
 9701TIP3   OH250517   4.510   2.992  12.708  0.2107  0.1747  0.2920
 9701TIP3    H150518   4.553   2.981  12.623 -0.9903 -0.7144 -0.2227
 9701TIP3    H250519   4.534   2.912  12.757 -0.4563 -0.1006  0.1743
 9702TIP3   OH250520   3.735   1.890   0.534  0.6075 -0.2099 -0.4293
 9702TIP3    H150521   3.662   1.838   0.568 -0.9749  0.4652 -2.5912
 9702TIP3    H250522   3.717   1.979   0.562  1.3110 -0.2249  0.1009
 9703TIP3   OH250523   2.824   4.045   0.878  0.0867  0.6330  0.2535
 9703TIP3    H150524   2.858   4.116   0.932 -0.2119  1.3744 -0.5160
 9703TIP3    H250525   2.759   4.086   0.821  1.5801  0.2402 -1.8756
 9704TIP3   OH250526   2.051   1.722   2.452 -0.1131  0.6679 -0.5373
 9704TIP3    H150527   1.967   1.720   2.497  0.6099  0.1365  0.8571
 9704TIP3    H250528   2.065   1.632   2.423  0.1791  0.6473 -0.3422
 9705TIP3   OH250529   2.580   0.859   4.669 -0.1638  0.0613 -0.4085
 9705TIP3    H150530   2.598   0.765   4.661  1.3847  0.4286 -1.8935
 9705TIP3    H250531   2.661   0.896   4.706  0.1127  1.0517 -1.8887
 9706TIP3   OH250532   3.798   0.980  16.836  0.1173  0.0296 -0.1192
 9706TIP3    H150533   3.816   0.889  16.857  1.3063  0.1442 -0.5404
 9706TIP3    H250534   3.785   1.022  16.921 -0.4202 -0.5275  0.0745
 9707TIP3   OH250535   2.043   2.952   1.222 -0.5841  0.3619  0.2219
 9707TIP3    H150536   1.977   2.902   1.173  0.1874 -0.1148 -0.3664
 9707TIP3    H250537   2.058   3.030   1.168  1.2188 -0.7839 -1.0472
 9708TIP3   OH250538   1.715   0.298   4.603  0.2734 -0.0483 -0.2354
 9708TIP3    H150539   1.689   0.300   4.695  0.9259  0.4886 -0.0541
 9708TIP3    H250540   1.738   0.207   4.586 -0.1197 -0.2032  0.0516
 9709TIP3   OH250541   6.427   3.223  12.209  0.2915 -0.2072  0.1176
 9709TIP3    H150542   6.439   3.172  12.289 -0.6701 -0.8015 -0.0936
 9709TIP3    H250543   6.342   3.194  12.175  0.1250  0.9082 -0.4764
 9710TIP3   OH250544   5.797   1.943   3.741  0.3926 -0.0861  0.4852
 9710TIP3    H150545   5.836   1.879   3.681 -0.7491  0.4742 -0.9249
 9710TIP3    H250546   5.808   1.904   3.828  0.6018 -1.7373 -0.2384
 9711TIP3   OH250547   0.358   1.668   0.606 -0.4274  0.1858 -0.2794
 9711TIP3    H150548   0.419   1.596   0.591  0.1138  0.6693 -0.4493
 9711TIP3    H250549   0.281   1.645   0.553 -0.2998 -0.3094 -0.2566
 9712TIP3   OH250550   3.237   1.583   5.137  0.1924 -0.5187 -0.2459
 9712TIP3    H150551   3.178   1.579   5.062 -2.8984  1.1306  1.8689
 9712TIP3    H250552   3.260   1.492   5.154  0.3116 -1.0049 -2.6105
 9713TIP3   OH250553   1.441   2.038  10.075  0.4244  0.1328 -0.2651
 9713TIP3    H150554   1.350   2.014  10.058  0.3107 -0.1573  0.7006
 9713TIP3    H250555   1.440   2.133  10.087  0.3991  0.2492 -1.1504
 9714TIP3   OH250556   0.438   1.644   1.226  0.5558  0.1240 -0.2601
 9714TIP3    H150557   0.526   1.664   1.257  0.5133  0.2030 -0.1919
 9714TIP3    H250558   0.438   1.672   1.134  1.1036 -1.3202 -0.7428
 9715TIP3   OH250559   4.827   6.317   5.893  0.2404  0.0212  0.3210
 9715TIP3    H150560   4.859   6.283   5.976 -0.3101 -0.7929  0.2151
 9715TIP3    H250561   4.852   6.251   5.828 -1.5316 -0.6255  0.2273
 9716TIP3   OH250562   2.839   4.262  14.423  0.0680  0.3347 -0.1970
 9716TIP3    H150563   2.767   4.201  14.439 -0.3879  1.0579  0.5585
 9716TIP3    H250564   2.797   4.346  14.406  0.7167  0.6334 -0.3574
 9717TIP3   OH250565   3.164   6.565  14.476  0.3022 -0.7039  0.2297
 9717TIP3    H150566   3.171   6.653  14.513  1.7909 -0.3495 -0.7683
 9717TIP3    H250567   3.077   6.562  14.437  0.1677  0.2621  0.4323
 9718TIP3   OH250568   5.198   0.310   1.984  0.2291  0.1637 -0.1028
 9718TIP3    H150569   5.288   0.314   1.954  0.4866 -0.2561  0.5749
 9718TIP3    H250570   5.188   0.221   2.018 -0.3909  0.2580 -0.0153
 9719TIP3   OH250571   5.112   5.472   5.688  0.5768  0.1958 -0.3632
 9719TIP3    H150572   5.146   5.560   5.703  1.0813  0.2008 -1.4047
 9719TIP3    H250573   5.150   5.419   5.757  0.8460  0.6611 -0.1485
 9720TIP3   OH250574   6.009   1.865   5.936 -0.6559 -0.0447  0.1619
 9720TIP3    H150575   6.087   1.814   5.956 -0.3245  0.7907  1.0947
 9720TIP3    H250576   5.944   1.800   5.908 -0.4291 -1.0586  1.8536
 9721TIP3   OH250577   1.060   6.085   3.281 -0.1253 -0.7458  0.2219
 9721TIP3    H150578   1.012   6.005   3.301  1.8081 -1.7677  1.1480
 9721TIP3    H250579   1.084   6.077   3.189 -2.0870  0.0356 -0.4063
 9722TIP3   OH250580   0.613   3.422  12.536 -0.1514  0.0960  0.2096
 9722TIP3    H150581   0.683   3.444  12.476  1.0654  0.6259  1.7540
 9722TIP3    H250582   0.609   3.326  12.535  1.0502  0.0276  0.5710
 9723TIP3   OH250583   4.253   2.710  11.479  0.6815  0.0011  0.5501
 9723TIP3    H150584   4.189   2.652  11.521  1.2717  0.0317  1.5169
 9723TIP3    H250585   4.312   2.651  11.433  0.2007 -0.0507 -0.0112
 9724TIP3   OH250586   0.037   0.491   4.485  0.4821 -0.5501  0.2170
 9724TIP3    H150587   0.003   0.480   4.574  0.3326 -0.3275  0.1892
 9724TIP3    H250588   0.127   0.521   4.497 -0.3351  2.1566  0.3423
 9725TIP3   OH250589   5.036   4.818   4.639 -0.1517  0.8467 -0.0363
 9725TIP3    H150590   5.033   4.788   4.548 -0.4319 -0.2176  0.3094
 9725TIP3    H250591   5.077   4.745   4.687 -0.7709  1.0442  0.8177
 9726TIP3   OH250592   0.404   5.123   2.676 -0.3154  0.7118 -0.1458
 9726TIP3    H150593   0.423   5.053   2.613  1.6350  2.0628 -1.1739
 9726TIP3    H250594   0.362   5.079   2.749  0.6922 -1.5223 -0.8253
 9727TIP3   OH250595   6.414   6.742  11.991  0.1263  0.4004 -0.4337
 9727TIP3    H150596   6.408   6.814  12.054 -0.4560  0.1985 -0.2420
 9727TIP3    H250597   6.333   6.747  11.941 -0.2132 -0.4748 -0.0108
 9728TIP3   OH250598   1.054   3.728   0.762  0.5891 -0.5897  0.5746
 9728TIP3    H150599   0.997   3.652   0.758  0.3547 -0.7271  4.0493
 9728TIP3    H250600   1.142   3.693   0.747  0.2113 -0.9475 -1.0492
 9729TIP3   OH250601   4.244   2.076  13.227  0.2464  0.3199  0.1882
 9729TIP3    H150602   4.302   2.080  13.304 -0.0990 -1.8011  0.6141
 9729TIP3    H250603   4.165   2.121  13.254 -0.7648 -2.3118  1.9826
 9730TIP3   OH250604   5.308   3.786   2.644 -0.1526 -0.2356 -0.1154
 9730TIP3    H150605   5.242   3.717   2.644  0.5693 -0.9414  0.0522
 9730TIP3    H250606   5.392   3.739   2.642  0.3519  0.6292  0.2651
 9731TIP3   OH250607   4.391   4.815  14.608 -0.2271 -0.2139  0.4801
 9731TIP3    H150608   4.379   4.822  14.703  1.1584 -0.2325  0.6822
 9731TIP3    H250609   4.431   4.729  14.595  1.6358  0.6342  0.1476
 9732TIP3   OH250610   4.883   3.602  13.410 -0.0635 -0.8707  0.4227
 9732TIP3    H150611   4.820   3.669  13.384  0.3091 -1.1946 -1.4606
 9732TIP3    H250612   4.848   3.521  13.373  0.7423 -1.2872  0.5520
 9733TIP3   OH250613   6.433   5.390   0.070 -0.0034  0.0990 -0.0904
 9733TIP3    H150614   6.373   5.351   0.006  0.1043  0.3494 -0.3479
 9733TIP3    H250615   6.424   5.335   0.148 -0.9245  0.4175  0.0389
 9734TIP3   OH250616   0.641   2.356   2.412 -0.2245  0.1901  0.4939
 9734TIP3    H150617   0.634   2.372   2.506 -1.1765 -2.1343  0.8651
 9734TIP3    H250618   0.615   2.439   2.372 -1.8638  0.6107  2.2742
 9735TIP3   OH250619   5.218   3.168  15.792  0.7962  1.1532 -0.3366
 9735TIP3    H150620   5.271   3.091  15.813  0.9307  0.8840 -1.5820
 9735TIP3    H250621   5.221   3.174  15.696 -3.8972 -0.7458 -0.9177
 9736TIP3   OH250622   2.488   3.925   4.839  0.1263 -0.3765 -0.2655
 9736TIP3    H150623   2.548   3.948   4.910  0.0625  0.2006 -0.3887
 9736TIP3    H250624   2.523   3.843   4.804  1.0708  0.1331 -0.5719
 9737TIP3   OH250625   4.613   5.085   1.598  0.4067 -0.2938 -0.3657
 9737TIP3    H150626   4.561   5.096   1.518 -0.4474  0.5411  0.2714
 9737TIP3    H250627   4.704   5.096   1.570  0.0419  1.3533 -1.0391
 9738TIP3   OH250628   4.266   0.792   5.950 -0.0751 -0.0930  0.0021
 9738TIP3    H150629   4.350   0.757   5.977 -1.0693 -2.4176  0.3526
 9738TIP3    H250630   4.236   0.843   6.025  0.3401 -0.5286  0.4675
 9739TIP3   OH250631   2.188   4.851  15.576 -0.3277  0.6642  0.5131
 9739TIP3    H150632   2.262   4.839  15.634  1.0836 -1.0510 -1.4801
 9739TIP3    H250633   2.175   4.946  15.572 -0.2755  0.8577  3.2471
 9740TIP3   OH250634   1.474   0.735  16.606  0.2390 -0.3355  0.3941
 9740TIP3    H150635   1.524   0.693  16.537 -0.6762 -0.2551 -0.3443
 9740TIP3    H250636   1.504   0.693  16.687  1.7423 -0.0105  0.0195
 9741TIP3   OH250637   3.056   1.772   6.120 -0.0368 -0.3387  0.2818
 9741TIP3    H150638   2.989   1.840   6.130 -1.7015 -1.7271 -0.7677
 9741TIP3    H250639   3.036   1.732   6.035  1.9221 -1.0786  0.1183
 9742TIP3   OH250640   4.126   5.639  12.585  0.4353  0.0354  1.0833
 9742TIP3    H150641   4.195   5.662  12.648 -0.9143  1.2172  2.1927
 9742TIP3    H250642   4.154   5.683  12.504  1.1602  0.2242  1.4205
 9743TIP3   OH250643   0.938   0.847   3.804  0.1032 -0.5535  0.6435
 9743TIP3    H150644   0.842   0.846   3.808 -0.0804 -3.6176 -1.3521
 9743TIP3    H250645   0.959   0.908   3.733 -0.4847 -1.1604 -0.0661
 9744TIP3   OH250646   3.221   5.952   4.684  0.2052  0.1933 -0.2219
 9744TIP3    H150647   3.128   5.942   4.704  0.3955 -1.0414  0.0842
 9744TIP3    H250648   3.242   6.041   4.713 -1.4419  1.4766 -2.5889
 9745TIP3   OH250649   2.621   1.098   1.471 -1.0279 -0.7752 -0.2846
 9745TIP3    H150650   2.601   1.142   1.554  1.2670 -1.3125  0.6127
 9745TIP3    H250651   2.711   1.123   1.452 -1.5110 -0.6666 -2.6706
 9746TIP3   OH250652   2.697   5.589  14.429  0.5695  0.6168 -0.4527
 9746TIP3    H150653   2.684   5.633  14.345  0.1507  0.7098 -0.3447
 9746TIP3    H250654   2.781   5.621  14.461  0.4279  1.0836 -0.5365
 9747TIP3   OH250655   0.515   1.684   2.483  0.1132  0.0874 -0.5714
 9747TIP3    H150656   0.426   1.690   2.449 -0.3051 -0.7836  0.3034
 9747TIP3    H250657   0.538   1.592   2.473  2.0910  0.7814 -3.5468
 9748TIP3   OH250658   2.476   5.906  13.742  0.6425 -0.3956  0.4320
 9748TIP3    H150659   2.478   5.846  13.816 -0.4984 -1.0351 -0.0214
 9748TIP3    H250660   2.508   5.989  13.776  1.9267 -1.1544  1.1629
 9749TIP3   OH250661   4.520   0.291  12.896  0.2585  0.2470 -0.6679
 9749TIP3    H150662   4.479   0.330  12.819 -1.3709 -0.0812 -0.0096
 9749TIP3    H250663   4.507   0.357  12.965  1.9602  0.6653 -0.7120
 9750TIP3   OH250664   2.789   4.081  14.188 -0.4556 -0.2792  0.1539
 9750TIP3    H150665   2.726   4.010  14.184  0.8350 -1.4431 -0.0099
 9750TIP3    H250666   2.852   4.054  14.255 -0.4928  1.1814  0.8183
 9751TIP3   OH250667   6.521   2.413   1.259 -0.2277 -0.1888  0.7123
 9751TIP3    H150668   6.467   2.464   1.198  0.3747  1.3105  1.3587
 9751TIP3    H250669   6.547   2.336   1.210  2.3882  2.1326 -1.9792
 9752TIP3   OH250670   3.917   0.537  11.798 -0.0586  0.1349  0.5496
 9752TIP3    H150671   3.886   0.474  11.863 -2.0728  1.9467  1.4761
 9752TIP3    H250672   3.853   0.531  11.727 -0.0195  0.7838  0.4526
 9753TIP3   OH250673   6.247   5.539   1.168  0.0862 -0.3142  0.0056
 9753TIP3    H150674   6.313   5.528   1.101 -0.2529 -0.6208 -0.2792
 9753TIP3    H250675   6.250   5.633   1.189  1.3469 -0.4995  0.7674
 9754TIP3   OH250676   2.957   0.576  15.440 -0.0842  0.3581 -0.0656
 9754TIP3    H150677   2.972   0.663  15.403 -0.4476 -0.4154 -2.2011
 9754TIP3    H250678   3.036   0.557  15.490  0.6150  1.3372 -0.7497
 9755TIP3   OH250679   1.438   4.113   5.561  0.3025 -0.6482  0.2537
 9755TIP3    H150680   1.394   4.106   5.476  1.6768  1.3709 -0.6908
 9755TIP3    H250681   1.523   4.150   5.542  0.5604  0.1304  2.5611
 9756TIP3   OH250682   3.661   2.936  13.845  0.1047  0.0791 -0.1113
 9756TIP3    H150683   3.670   3.022  13.886 -1.7335 -0.1618  0.8833
 9756TIP3    H250684   3.720   2.939  13.770 -1.0957  2.8250 -1.0701
 9757TIP3   OH250685   2.924   1.244  16.335 -0.2348 -0.1853 -0.0549
 9757TIP3    H150686   2.961   1.182  16.273  0.1734 -0.0816  0.0783
 9757TIP3    H250687   2.992   1.255  16.402 -0.8375 -0.6358  0.6451
 9758TIP3   OH250688   3.374   5.486  14.517  0.2999  0.3469  0.1718
 9758TIP3    H150689   3.450   5.535  14.488 -0.5254  1.2194 -0.5593
 9758TIP3    H250690   3.405   5.396  14.525  1.1976  0.5375 -0.9525
 9759TIP3   OH250691   6.211   2.094  14.981 -0.1863 -0.6582  0.2988
 9759TIP3    H150692   6.236   2.001  14.979 -0.0919 -0.7021  2.1073
 9759TIP3    H250693   6.120   2.095  14.952  0.3236 -1.0688 -1.4948
 9760TIP3   OH250694   1.242   2.679  16.493  0.1059 -0.6551 -0.1405
 9760TIP3    H150695   1.169   2.739  16.478  1.2236  0.8823  0.1837
 9760TIP3    H250696   1.276   2.705  16.579  0.6699 -1.7331 -0.0224
 9761TIP3   OH250697   1.940   5.808  16.480  0.0962 -0.7484  0.2488
 9761TIP3    H150698   1.948   5.822  16.386  0.3940  0.9584  0.5049
 9761TIP3    H250699   2.029   5.810  16.513 -0.0899 -0.1460  0.7270
 9762TIP3   OH250700   5.786   6.203  14.576  0.4951  0.4816  0.3166
 9762TIP3    H150701   5.718   6.267  14.552  2.6109  2.1203 -1.8145
 9762TIP3    H250702   5.799   6.151  14.497 -1.2196 -2.8246  2.0272
 9763TIP3   OH250703   3.581   2.975  15.629 -0.2772  0.0190  0.0652
 9763TIP3    H150704   3.617   3.029  15.699  0.8239 -1.1852  0.4687
 9763TIP3    H250705   3.512   2.924  15.670  0.0354 -0.3253  0.1719
 9764TIP3   OH250706   5.757   4.056  14.966  0.3515 -0.1799  0.0841
 9764TIP3    H150707   5.793   3.987  15.023 -2.2288 -1.8658 -0.1560
 9764TIP3    H250708   5.728   4.124  15.027  2.7025  0.6832  0.3446
 9765TIP3   OH250709   4.031   5.830  11.769 -0.2122 -0.2653  0.2396
 9765TIP3    H150710   4.033   5.737  11.793 -0.6476  0.4011  3.1570
 9765TIP3    H250711   3.969   5.833  11.696  0.6662 -2.3707 -0.7026
 9766TIP3   OH250712   0.639   5.559   5.995  0.6235  0.1151 -0.0051
 9766TIP3    H150713   0.600   5.479   5.959  1.0130 -0.2043  0.2673
 9766TIP3    H250714   0.732   5.539   6.002  0.4908 -0.0995  1.8176
 9767TIP3   OH250715   5.324   5.213   3.891  0.2897 -0.4114  0.3254
 9767TIP3    H150716   5.405   5.187   3.933  0.6585 -0.1080 -0.1924
 9767TIP3    H250717   5.350   5.250   3.807 -0.5908 -3.5877 -1.5088
 9768TIP3   OH250718   3.620   3.338  12.845  0.0054 -0.6169  0.7040
 9768TIP3    H150719   3.617   3.394  12.767  0.3788 -2.3090 -0.6087
 9768TIP3    H250720   3.537   3.290  12.842 -1.0205  0.9052  2.6920
 9769TIP3   OH250721   5.965   3.545   6.690 -0.3275  0.1584 -0.3167
 9769TIP3    H150722   5.882   3.525   6.648 -0.6425  0.6462  0.0586
 9769TIP3    H250723   6.032   3.509   6.631 -0.7635  0.6992 -1.1488
 9770TIP3   OH250724   2.373   2.629   4.768 -0.3241 -0.0832  0.2897
 9770TIP3    H150725   2.396   2.641   4.860 -0.6064  0.5940  0.2800
 9770TIP3    H250726   2.277   2.634   4.766 -0.2917  0.5777 -0.1218
 9771TIP3   OH250727   6.760   3.969  12.102  0.9118 -0.1004 -0.0218
 9771TIP3    H150728   6.834   3.965  12.162  1.7338 -1.3886 -1.0669
 9771TIP3    H250729   6.735   3.878  12.089 -0.1674  0.2545 -0.5331
 9772TIP3   OH250730   4.018   2.412  16.935  0.1134  0.1253 -0.0425
 9772TIP3    H150731   4.097   2.435  16.885  0.8659  0.8836  1.4302
 9772TIP3    H250732   4.047   2.345  16.996 -0.4885  0.1145  0.2353
 9773TIP3   OH250733   5.150   1.138  12.862  0.0475 -0.2579  0.4247
 9773TIP3    H150734   5.071   1.186  12.887  0.3594  0.3503  0.2562
 9773TIP3    H250735   5.137   1.050  12.897 -1.2126 -0.4992 -0.5921
 9774TIP3   OH250736   1.188   3.072   1.790  0.8498  0.3644 -0.1100
 9774TIP3    H150737   1.112   3.114   1.752 -0.3607  0.1229  1.8674
 9774TIP3    H250738   1.256   3.139   1.790  0.7027  0.5610 -1.9676
 9775TIP3   OH250739   1.444   5.877  15.236 -0.5552  0.4519 -0.1653
 9775TIP3    H150740   1.426   5.964  15.271 -0.3289  0.2200  0.5243
 9775TIP3    H250741   1.384   5.869  15.161 -3.9929 -0.5363  2.4363
 9776TIP3   OH250742   4.172   2.863  16.309 -0.1545  0.0450  0.2266
 9776TIP3    H150743   4.141   2.948  16.278  2.7975  1.8428  1.6785
 9776TIP3    H250744   4.217   2.825  16.235 -1.4606 -0.3055 -0.4231
 9777TIP3   OH250745   0.416   1.434  15.866  0.0566  0.4129 -1.3393
 9777TIP3    H150746   0.346   1.498  15.856 -0.6462 -0.0787  0.2524
 9777TIP3    H250747   0.496   1.486  15.865 -0.2975  1.0027 -2.9124
 9778TIP3   OH250748   2.874   2.002  16.730  0.3333 -0.5002  0.0459
 9778TIP3    H150749   2.960   2.035  16.704 -0.3954  0.6200 -1.0753
 9778TIP3    H250750   2.885   1.976  16.821  2.2209 -1.7135 -0.4686
 9779TIP3   OH250751   0.900   5.168   0.576  0.0074  0.3225  0.2797
 9779TIP3    H150752   0.975   5.222   0.601 -0.6277  1.6497 -0.5469
 9779TIP3    H250753   0.934   5.079   0.575  1.4192  0.8300  0.5245
 9780TIP3   OH250754   2.346   5.797  11.979 -0.4475  0.5131 -0.3592
 9780TIP3    H150755   2.420   5.754  11.937 -0.6856 -0.3706  0.1173
 9780TIP3    H250756   2.386   5.862  12.038 -0.1010  1.3309 -1.4584
 9781TIP3   OH250757   6.470   4.510   4.075 -0.4489  0.3151 -0.1511
 9781TIP3    H150758   6.552   4.549   4.107 -0.0219  0.0007 -0.8451
 9781TIP3    H250759   6.428   4.475   4.154  0.8368 -0.9209  0.0384
 9782TIP3   OH250760   4.219   0.016   2.755 -0.8259 -0.0252 -0.7816
 9782TIP3    H150761   4.243   0.089   2.698 -0.3956  0.5370  0.0994
 9782TIP3    H250762   4.302  -0.027   2.775 -1.1641 -1.2771 -1.9648
 9783TIP3   OH250763   0.703   5.082  14.206  0.5320 -0.9538  0.6503
 9783TIP3    H150764   0.622   5.037  14.183  0.2747  0.2350 -1.0033
 9783TIP3    H250765   0.719   5.060  14.298 -1.6737 -1.1788  1.0178
 9784TIP3   OH250766   6.017   0.145   0.245 -0.5487  0.2593 -0.1895
 9784TIP3    H150767   5.960   0.072   0.220  0.6237  0.1498 -2.8800
 9784TIP3    H250768   6.089   0.104   0.293 -0.6982 -0.1368 -0.2991
 9785TIP3   OH250769   1.172   1.602  17.176  0.0839  0.8641  0.1662
 9785TIP3    H150770   1.241   1.666  17.156  0.0109  1.3154  1.2894
 9785TIP3    H250771   1.099   1.655  17.208 -0.0554  0.2341  0.8971
 9786TIP3   OH250772   2.872   4.815   2.447  0.5415  0.1779 -0.0603
 9786TIP3    H150773   2.836   4.806   2.359  0.1744  1.3837 -0.0445
 9786TIP3    H250774   2.835   4.741   2.496 -1.0014  0.7375 -0.3448
 9787TIP3   OH250775   4.093   0.309   4.323 -0.1421  0.3765 -0.3071
 9787TIP3    H150776   4.064   0.325   4.233 -1.9566  1.0121  0.3607
 9787TIP3    H250777   4.045   0.231   4.350 -1.0224  1.2584  0.7192
 9788TIP3   OH250778   4.633   3.786   1.961 -0.1242 -0.3597  0.2270
 9788TIP3    H150779   4.619   3.880   1.972  1.2572 -0.1041  0.0385
 9788TIP3    H250780   4.599   3.747   2.041 -0.6983  0.2932  0.3124
 9789TIP3   OH250781   2.650   4.190   1.721  0.3827 -0.0882 -0.0045
 9789TIP3    H150782   2.590   4.143   1.663  0.7770 -1.4954  0.6847
 9789TIP3    H250783   2.680   4.265   1.669 -3.4460  1.8836  0.2713
 9790TIP3   OH250784   1.119   3.832  10.738 -0.0226 -0.2909 -0.0658
 9790TIP3    H150785   1.204   3.790  10.754 -1.6669 -2.8250  3.4725
 9790TIP3    H250786   1.082   3.784  10.663  0.5193 -1.2035  0.2341
 9791TIP3   OH250787   1.325   0.570   1.171  0.0649 -0.1284  0.2657
 9791TIP3    H150788   1.369   0.485   1.180  4.4348  1.7613 -0.6795
 9791TIP3    H250789   1.396   0.633   1.168 -2.9300  3.5488 -0.2128
 9792TIP3   OH250790   4.082   5.140   4.154  0.3964 -0.8218  0.5751
 9792TIP3    H150791   4.055   5.229   4.176  0.1211 -0.3758 -1.3936
 9792TIP3    H250792   4.015   5.084   4.193 -1.8778  0.1039 -1.7246
 9793TIP3   OH250793   0.854   0.845  11.544  0.0717  0.3113 -0.3169
 9793TIP3    H150794   0.789   0.775  11.542  1.2006 -0.8234  0.6542
 9793TIP3    H250795   0.803   0.926  11.540 -1.3569 -0.5437  0.0110
 9794TIP3   OH250796   0.003   0.619  17.077 -0.0206 -0.4776  0.0864
 9794TIP3    H150797  -0.054   0.654  17.009  0.4289  0.7490  0.3104
 9794TIP3    H250798   0.007   0.688  17.143  1.8773 -0.4303 -0.0284
 9795TIP3   OH250799   3.729   0.508  12.349 -0.5855 -0.0758 -0.0039
 9795TIP3    H150800   3.707   0.542  12.262 -1.6062 -0.3751  0.1134
 9795TIP3    H250801   3.817   0.541  12.367 -0.1263 -0.4739 -1.3860
 9796TIP3   OH250802   3.900   0.806  12.697  0.4655  0.3300 -0.4048
 9796TIP3    H150803   3.910   0.777  12.788  0.2784  1.5353  0.0207
 9796TIP3    H250804   3.884   0.725  12.648 -0.6188 -0.2325  0.7960
 9797TIP3   OH250805   0.381   6.358  16.237  0.3143  0.4728  0.5232
 9797TIP3    H150806   0.389   6.302  16.314 -0.3838  0.1248  0.3508
 9797TIP3    H250807   0.324   6.429  16.265  0.4510  0.6061  0.4654
 9798TIP3   OH250808   4.166   3.850   2.223 -0.7214 -0.4118 -0.0973
 9798TIP3    H150809   4.159   3.812   2.311 -1.2284 -0.1273 -0.0145
 9798TIP3    H250810   4.076   3.867   2.197 -0.5146  0.4795 -0.2482
 9799TIP3   OH250811   1.420   1.071   4.007  0.1790  0.2709  0.0735
 9799TIP3    H150812   1.383   1.003   4.064  0.5599  1.5448  1.9172
 9799TIP3    H250813   1.465   1.131   4.066  1.1950  1.3153 -1.6503
 9800TIP3   OH250814   4.559   1.644   2.170  0.2547 -0.5538 -0.2673
 9800TIP3    H150815   4.564   1.663   2.076 -0.7690 -1.1220 -0.4441
 9800TIP3    H250816   4.634   1.690   2.207  0.7374 -0.4134 -1.3781
 9801TIP3   OH250817   4.228   2.802   1.503  0.2996  0.0126  0.2060
 9801TIP3    H150818   4.174   2.763   1.572 -0.7518  0.4338 -0.3699
 9801TIP3    H250819   4.307   2.747   1.502  0.7483  0.5297  2.3447
 9802TIP3   OH250820   1.768   3.099   5.600 -0.0242  0.3728 -0.3784
 9802TIP3    H150821   1.812   3.083   5.684 -1.3501  1.9844  0.6682
 9802TIP3    H250822   1.825   3.160   5.554  0.2235  0.2571 -0.2258
 9803TIP3   OH250823   6.427   3.280  11.107 -0.3087  0.0533 -0.1717
 9803TIP3    H150824   6.435   3.294  11.013  0.6458 -1.7427 -0.4078
 9803TIP3    H250825   6.493   3.338  11.145 -2.6820  3.0793 -0.2755
 9804TIP3   OH250826   0.259   4.544   1.825  0.0070  0.0574  0.5311
 9804TIP3    H150827   0.304   4.628   1.817  0.9540 -0.5488 -1.0503
 9804TIP3    H250828   0.321   4.488   1.872 -0.0347 -0.1419  0.3512
 9805TIP3   OH250829   5.926   4.137   2.712 -0.3850  0.8444  0.0658
 9805TIP3    H150830   5.960   4.224   2.733  1.1724  0.2472  0.1572
 9805TIP3    H250831   5.838   4.154   2.677 -0.2791  2.4095  0.4553
 9806TIP3   OH250832   3.255   3.202  15.079 -0.5932  0.0709 -0.1107
 9806TIP3    H150833   3.242   3.153  14.998  0.6088 -1.5342  0.6013
 9806TIP3    H250834   3.167   3.211  15.116 -1.0395  0.0385 -1.1425
 9807TIP3   OH250835   3.074   1.550  13.568  0.1501 -0.1102 -0.3102
 9807TIP3    H150836   3.156   1.592  13.542  0.6771 -0.6215  0.4883
 9807TIP3    H250837   3.021   1.551  13.489  0.4026  1.4445 -0.4891
 9808TIP3   OH250838   2.592   6.057   6.345  0.3042 -0.0944 -0.7088
 9808TIP3    H150839   2.631   5.975   6.314 -0.8248 -0.3897 -1.4034
 9808TIP3    H250840   2.587   6.047   6.440  1.9281 -0.0252 -0.5903
 9809TIP3   OH250841   2.002   0.714   0.210 -0.0317  0.1439 -0.1877
 9809TIP3    H150842   1.918   0.741   0.173 -0.4589  1.1921  1.4151
 9809TIP3    H250843   2.064   0.780   0.179 -0.0278  0.0272 -0.4323
 9810TIP3   OH250844   2.463   5.852  14.482 -0.1133 -0.1003 -0.0683
 9810TIP3    H150845   2.426   5.940  14.495  0.0791 -0.4318  3.9476
 9810TIP3    H250846   2.387   5.794  14.486 -0.0419 -0.2361 -0.7062
 9811TIP3   OH250847   4.556   4.722   5.846  0.3194 -0.3240  0.0122
 9811TIP3    H150848   4.623   4.785   5.817  0.5329 -0.3119  0.5134
 9811TIP3    H250849   4.599   4.637   5.838  0.7722 -0.2425  1.3010
 9812TIP3   OH250850   4.185   0.361  14.439 -0.0220 -0.5846  0.1203
 9812TIP3    H150851   4.132   0.312  14.377  0.0332 -0.2573 -0.1898
 9812TIP3    H250852   4.161   0.326  14.524 -0.6245 -0.5502 -0.0307
 9813TIP3   OH250853   4.689   5.454  15.201  0.0478 -0.3744  0.2375
 9813TIP3    H150854   4.780   5.461  15.231 -0.4944  0.3095  1.7866
 9813TIP3    H250855   4.646   5.532  15.236 -1.7726 -2.0005  1.7995
 9814TIP3   OH250856   5.154   3.585   5.163 -0.3355 -0.1333  0.1944
 9814TIP3    H150857   5.203   3.631   5.231  1.4578 -1.6155 -0.0461
 9814TIP3    H250858   5.065   3.577   5.199 -0.4686  2.4897  0.6870
 9815TIP3   OH250859   0.326   5.066  10.780 -0.5084 -0.4447  0.7458
 9815TIP3    H150860   0.249   5.034  10.732 -0.0640 -1.1147  0.4577
 9815TIP3    H250861   0.397   5.009  10.751 -0.2985 -1.1172  2.4719
 9816TIP3   OH250862   0.852   1.561   2.763 -0.2487  0.5629  0.3086
 9816TIP3    H150863   0.779   1.612   2.727 -0.9649 -0.1971  0.6514
 9816TIP3    H250864   0.927   1.620   2.756 -0.4748  0.7074 -1.8199
 9817TIP3   OH250865   2.518   4.623   2.678  0.6121 -0.5967  0.1695
 9817TIP3    H150866   2.495   4.560   2.610 -0.4615  1.3618 -1.3954
 9817TIP3    H250867   2.433   4.657   2.708  1.1141  2.2364 -1.2224
 9818TIP3   OH250868   4.540   4.233  12.896  0.1223 -0.4868 -0.1490
 9818TIP3    H150869   4.588   4.181  12.961 -0.2405 -0.9578 -0.2439
 9818TIP3    H250870   4.567   4.323  12.912  1.5509 -0.8007 -0.6365
 9819TIP3   OH250871   4.440   0.123  16.844  0.8274 -0.2831 -0.3100
 9819TIP3    H150872   4.404   0.130  16.933 -0.1884 -1.0846 -0.6356
 9819TIP3    H250873   4.524   0.080  16.855  1.2477  0.6950  0.3793
 9820TIP3   OH250874   1.635   4.064  16.089  0.1289 -0.3273 -0.0224
 9820TIP3    H150875   1.729   4.077  16.087  0.0291  0.4293  0.1498
 9820TIP3    H250876   1.623   3.979  16.132  0.7427 -0.6556 -0.4795
 9821TIP3   OH250877   4.258   2.773   0.009  0.1865  0.1704 -0.0311
 9821TIP3    H150878   4.183   2.745  -0.044 -0.4770  0.4352  0.7475
 9821TIP3    H250879   4.301   2.691   0.035  0.8379  0.0574 -1.4120
 9822TIP3   OH250880   0.352   1.988   5.108 -0.0860  0.4538 -0.3580
 9822TIP3    H150881   0.355   1.974   5.202 -1.8968 -1.4055 -0.5023
 9822TIP3    H250882   0.321   2.077   5.097  0.5231  0.8203  0.7763
 9823TIP3   OH250883   5.868   6.278   0.132  0.5253  0.1298  0.0601
 9823TIP3    H150884   5.852   6.228   0.212 -0.6208 -0.1708 -0.3415
 9823TIP3    H250885   5.897   6.364   0.163 -0.1483  0.0963  0.8176
 9824TIP3   OH250886   0.270   3.000   0.453 -0.0299  0.1837 -0.0586
 9824TIP3    H150887   0.221   2.933   0.501 -0.8473 -0.4453 -1.6655
 9824TIP3    H250888   0.205   3.066   0.430 -0.4492 -1.0853 -2.9764
 9825TIP3   OH250889   0.938   1.562  11.961  0.5423  0.5866 -0.1053
 9825TIP3    H150890   0.889   1.489  11.922  1.5824  0.2228 -0.7721
 9825TIP3    H250891   0.878   1.637  11.954 -0.4962 -0.1554  0.4790
 9826TIP3   OH250892   1.030   3.861  12.327 -0.0785  0.3761  0.2069
 9826TIP3    H150893   0.989   3.893  12.408 -1.0898 -0.3242 -0.0066
 9826TIP3    H250894   0.967   3.881  12.259 -0.1214 -0.8184 -0.1224
 9827TIP3   OH250895   4.606   0.774  15.909 -0.5175 -0.5018  0.1085
 9827TIP3    H150896   4.657   0.693  15.904 -0.9351 -0.7405 -0.2803
 9827TIP3    H250897   4.557   0.777  15.827 -0.4268  0.2007  0.0720
 9828TIP3   OH250898   4.710   2.872  13.569 -0.5599  0.6650  0.1083
 9828TIP3    H150899   4.700   2.865  13.664  0.7425  1.0840  0.2898
 9828TIP3    H250900   4.798   2.840  13.552 -1.1889 -0.5175 -1.1051
 9829TIP3   OH250901   0.342   4.906   1.025  0.1521  0.5066  0.4643
 9829TIP3    H150902   0.266   4.849   1.016  0.4730 -0.0458  1.1353
 9829TIP3    H250903   0.417   4.846   1.023  0.5005  0.9089  1.1255
 9830TIP3   OH250904   5.564   0.514  11.942  0.1504  0.1388  0.1129
 9830TIP3    H150905   5.599   0.508  11.853  1.0385  0.4261  0.4343
 9830TIP3    H250906   5.496   0.582  11.936 -1.1346 -1.1675 -0.7449
 9831TIP3   OH250907   2.057   0.190  14.196  1.0807 -0.3322 -0.0284
 9831TIP3    H150908   2.072   0.120  14.259 -1.5143 -0.0636  0.9997
 9831TIP3    H250909   2.031   0.265  14.249  0.8751  0.5220 -1.2885
 9832TIP3   OH250910   1.693   5.863   4.087  0.1801  0.2954  0.0110
 9832TIP3    H150911   1.631   5.901   4.149  1.1209  0.5002  0.8396
 9832TIP3    H250912   1.726   5.784   4.130 -0.3552 -0.4497 -0.9119
 9833TIP3   OH250913   1.859   4.824  16.105  0.0353  0.0789  0.5790
 9833TIP3    H150914   1.878   4.815  16.011 -0.3441 -0.1890  0.5265
 9833TIP3    H250915   1.938   4.865  16.141  0.6589 -0.8760  0.3358
 9834TIP3   OH250916   5.067   3.377   2.948 -0.1064  0.2856 -0.8290
 9834TIP3    H150917   4.978   3.413   2.942  0.1593  1.0900 -0.1028
 9834TIP3    H250918   5.124   3.450   2.927  0.4105 -0.0005 -0.4399
 9835TIP3   OH250919   1.481   5.290  14.146  0.0607  0.6948  0.7670
 9835TIP3    H150920   1.492   5.259  14.236 -0.8165  0.1450  0.7003
 9835TIP3    H250921   1.544   5.239  14.096 -2.1645 -2.0246  0.4629
 9836TIP3   OH250922   3.979   3.206   4.643  0.0691  0.1841  1.2018
 9836TIP3    H150923   3.980   3.270   4.713 -0.4635  0.7746  0.6848
 9836TIP3    H250924   3.933   3.250   4.571  0.1202 -0.6018  0.6762
 9837TIP3   OH250925   6.213   0.394   5.182 -0.1596 -0.8301 -0.2157
 9837TIP3    H150926   6.262   0.394   5.264 -1.2702 -0.0617  0.4839
 9837TIP3    H250927   6.122   0.375   5.209 -0.8478  1.0676 -1.0316
 9838TIP3   OH250928   1.975   2.403  17.185  0.4895 -0.0327  0.5981
 9838TIP3    H150929   1.954   2.441  17.270  2.0518  1.5964  0.3237
 9838TIP3    H250930   1.912   2.333  17.174 -1.0797  1.0404  2.1769
 9839TIP3   OH250931   4.050   5.185  11.483  0.0219 -0.1334 -0.3920
 9839TIP3    H150932   4.103   5.162  11.407 -0.0185 -0.2523 -0.3833
 9839TIP3    H250933   3.962   5.199  11.447  0.0328 -0.0531 -0.3883
 9840TIP3   OH250934   5.313   2.668   0.163 -0.5895  0.8666 -0.3839
 9840TIP3    H150935   5.371   2.743   0.177 -0.8590  1.0066 -0.0070
 9840TIP3    H250936   5.253   2.670   0.238 -1.1764  0.8134 -0.8488
 9841TIP3   OH250937   2.120   4.549   6.828  0.4724  0.1929  0.1130
 9841TIP3    H150938   2.040   4.497   6.819 -0.3211  1.4849 -0.6886
 9841TIP3    H250939   2.191   4.486   6.821 -0.4102 -1.4856  3.9594
 9842TIP3   OH250940   4.324   1.860   1.461 -0.0724  0.3854  0.2849
 9842TIP3    H150941   4.348   1.775   1.499 -0.3985  0.6659  1.1499
 9842TIP3    H250942   4.384   1.922   1.503  0.1457  0.5879 -0.3242
 9843TIP3   OH250943   6.748   4.239   3.966  0.2269 -0.0373  0.3309
 9843TIP3    H150944   6.696   4.305   3.920 -1.1574 -0.9669  0.4978
 9843TIP3    H250945   6.684   4.176   3.998  1.4465 -1.0818  0.8148
 9844TIP3   OH250946   4.546   5.969   1.105  0.7557  0.7271  0.6586
 9844TIP3    H150947   4.634   6.006   1.116  0.5410  1.2921  0.5354
 9844TIP3    H250948   4.487   6.043   1.123  0.2937  0.2037  1.3071
 9845TIP3   OH250949   3.186   6.647   1.611  0.1999 -0.4973 -0.3271
 9845TIP3    H150950   3.224   6.695   1.537  0.3905  0.0246  0.1023
 9845TIP3    H250951   3.219   6.693   1.688 -1.0511 -0.2409  0.0627
 9846TIP3   OH250952   6.587   0.071  13.241 -0.4357 -0.4174 -0.5163
 9846TIP3    H150953   6.586  -0.017  13.278  1.5514 -0.5010 -0.5436
 9846TIP3    H250954   6.606   0.129  13.315  2.2724 -0.4618 -1.0863
 9847TIP3   OH250955   3.160   6.139  11.856 -0.0235 -0.5848 -0.2337
 9847TIP3    H150956   3.193   6.212  11.907  0.3570 -0.3495 -0.8029
 9847TIP3    H250957   3.237   6.100  11.816 -0.3118 -0.7336 -0.6600
 9848TIP3   OH250958   4.980   5.460  13.848 -0.2197  0.1344  0.4845
 9848TIP3    H150959   5.032   5.511  13.786 -0.6065 -0.2842 -0.1981
 9848TIP3    H250960   5.019   5.372  13.844 -1.6242 -0.4723 -0.8545
 9849TIP3   OH250961   5.085   0.473   0.318 -0.2786 -0.5762  0.3431
 9849TIP3    H150962   5.163   0.468   0.374 -1.2520 -1.6134  1.6831
 9849TIP3    H250963   5.012   0.483   0.380 -1.3090 -0.6929 -0.8208
 9850TIP3   OH250964   5.826   6.291   3.100  0.5673  0.5649  0.1245
 9850TIP3    H150965   5.788   6.209   3.132  0.5414  0.8894  0.9581
 9850TIP3    H250966   5.754   6.354   3.105 -0.0028  0.2166 -2.4300
 9851TIP3   OH250967   4.146   0.941   3.182 -0.0126  0.0592 -0.4362
 9851TIP3    H150968   4.081   1.010   3.170 -1.3144 -1.1547 -0.6816
 9851TIP3    H250969   4.102   0.876   3.236  1.0570 -0.7327 -0.4871
 9852TIP3   OH250970   0.438   4.442   4.947  0.4413 -0.6710 -0.0843
 9852TIP3    H150971   0.473   4.531   4.943  0.3171 -0.6222 -0.0964
 9852TIP3    H250972   0.424   4.427   5.041 -0.7093 -0.2157 -0.1657
 9853TIP3   OH250973   4.594   2.287  12.318 -0.2227  0.2685 -0.4363
 9853TIP3    H150974   4.685   2.294  12.289 -0.1635 -0.3754 -0.4133
 9853TIP3    H250975   4.588   2.201  12.359 -0.5798  0.7366  0.5112
 9854TIP3   OH250976   0.516   3.957   3.179 -0.0619 -0.2058 -0.0934
 9854TIP3    H150977   0.517   3.956   3.275 -1.5697  2.0099  0.0297
 9854TIP3    H250978   0.602   3.989   3.155  0.0539  0.0212  0.5868
 9855TIP3   OH250979   1.672   5.555   2.087 -0.1081 -0.0501 -0.0636
 9855TIP3    H150980   1.619   5.493   2.038 -0.8087  0.4181  0.0814
 9855TIP3    H250981   1.700   5.506   2.165 -0.0589 -0.3992 -0.2992
 9856TIP3   OH250982   6.653   4.370  15.048  0.0784 -0.4046 -0.2917
 9856TIP3    H150983   6.579   4.365  14.987  1.2735  1.9032 -2.1116
 9856TIP3    H250984   6.730   4.361  14.991  1.2571 -1.6508  1.4090
 9857TIP3   OH250985   2.196   0.034   4.006 -0.2310  0.3272  0.3760
 9857TIP3    H150986   2.250   0.012   3.930  2.1328 -1.4688  2.3765
 9857TIP3    H250987   2.247   0.101   4.053 -0.8821  0.3006  1.1488
 9858TIP3   OH250988   3.581   1.427   1.054  0.0270  0.1538  0.0206
 9858TIP3    H150989   3.543   1.489   1.117 -1.1952 -1.5511  1.0311
 9858TIP3    H250990   3.510   1.408   0.993  1.1408  1.6337 -1.8464
 9859TIP3   OH250991   5.283   2.238   2.827  0.1382  0.6247 -0.2173
 9859TIP3    H150992   5.270   2.249   2.732 -1.3199 -2.6231 -0.5303
 9859TIP3    H250993   5.376   2.216   2.835  0.4815  1.7784 -0.7496
 9860TIP3   OH250994   3.273   0.580  15.154  0.6609  0.4795 -0.2517
 9860TIP3    H150995   3.222   0.549  15.080  0.9633  0.6922 -0.5488
 9860TIP3    H250996   3.336   0.510  15.171 -1.4102 -1.0606  1.8318
 9861TIP3   OH250997   5.155   3.251  14.399  0.3548  0.1608 -0.4120
 9861TIP3    H150998   5.186   3.199  14.473 -0.0476  1.3419  0.6177
 9861TIP3    H250999   5.229   3.308  14.378  1.9923 -2.7421 -3.5374
 9862TIP3   OH251000   3.122   2.371  12.886 -0.5747 -0.4954  0.1797
 9862TIP3    H151001   3.071   2.388  12.807 -2.3176  0.5265  1.4645
 9862TIP3    H251002   3.203   2.420  12.873 -1.9465  1.8936  0.1276
 9863TIP3   OH251003   6.506   1.883  13.497 -0.2592  0.2071  0.4369
 9863TIP3    H151004   6.427   1.866  13.549 -1.5884 -0.2719 -1.6424
 9863TIP3    H251005   6.523   1.976  13.511 -1.8537  0.5905  0.0779
 9864TIP3   OH251006   4.429   3.304   6.394 -0.8702  0.1744  0.3664
 9864TIP3    H151007   4.524   3.309   6.390 -0.9500  2.3365 -0.4360
 9864TIP3    H251008   4.408   3.213   6.372  0.9640 -0.1306 -0.2916
 9865TIP3   OH251009   4.570   2.061  15.232 -0.2153  0.3265 -0.1540
 9865TIP3    H151010   4.479   2.077  15.206 -0.5080  1.3601  1.3742
 9865TIP3    H251011   4.564   2.021  15.318  0.7885  0.1586 -0.1489
 9866TIP3   OH251012   2.949   5.617  14.554 -0.5169 -0.3510  0.3705
 9866TIP3    H151013   2.965   5.704  14.590 -0.2697 -0.1661 -0.1620
 9866TIP3    H251014   2.912   5.566  14.626  0.5462 -0.1770  1.0513
 9867TIP3   OH251015   5.640   5.746   0.489  0.1546  0.9941 -0.1170
 9867TIP3    H151016   5.667   5.739   0.581  0.3369  2.4292 -0.0347
 9867TIP3    H251017   5.660   5.837   0.465  1.8212  0.1762 -2.1352
 9868TIP3   OH251018   3.661   4.401  10.787 -0.3249 -0.7810  0.0570
 9868TIP3    H151019   3.668   4.488  10.825 -1.4887 -1.0679  0.9688
 9868TIP3    H251020   3.750   4.380  10.759  0.2294  0.1488  1.0621
 9869TIP3   OH251021   3.607   0.709  12.860  0.0645  0.1099 -0.0998
 9869TIP3    H151022   3.574   0.632  12.814 -0.7779 -0.0486  0.7340
 9869TIP3    H251023   3.662   0.674  12.930  0.4778  0.3080 -0.3200
 9870TIP3   OH251024   5.948   5.647   4.513 -0.0374  0.1038  0.9405
 9870TIP3    H151025   5.965   5.569   4.566  1.4450 -1.2196 -1.2888
 9870TIP3    H251026   6.011   5.711   4.546  2.6518 -1.5098 -0.6722
 9871TIP3   OH251027   4.259   3.349  12.974 -1.2292  0.1735  0.6604
 9871TIP3    H151028   4.305   3.269  12.950 -1.8966  0.0564 -0.2696
 9871TIP3    H251029   4.323   3.419  12.961 -1.6157  0.1470 -1.7699
 9872TIP3   OH251030   6.137   5.356   5.253  0.2086  0.1502 -0.2794
 9872TIP3    H151031   6.161   5.433   5.201  1.5687 -1.0856 -1.5708
 9872TIP3    H251032   6.205   5.351   5.320 -1.1541  1.3340  1.2688
 9873TIP3   OH251033   3.202   3.543   6.022 -0.1755  0.0073 -0.3883
 9873TIP3    H151034   3.153   3.602   6.080  0.4299 -0.2291  0.3784
 9873TIP3    H251035   3.134   3.489   5.981 -0.5907 -0.1293  0.4457
 9874TIP3   OH251036   6.694   0.152  12.851 -0.2237 -0.2720  0.2920
 9874TIP3    H151037   6.744   0.078  12.886  3.0563  2.3809  1.8493
 9874TIP3    H251038   6.729   0.164  12.763 -0.1673 -0.0973  0.3382
 9875TIP3   OH251039   3.571   5.674   2.240  0.1573 -0.1016  0.7431
 9875TIP3    H151040   3.601   5.589   2.207 -0.1109 -0.1397  0.5934
 9875TIP3    H251041   3.482   5.682   2.207  1.0752  1.4630 -1.5664
 9876TIP3   OH251042   3.417   5.307  15.585 -0.3231 -0.5175 -0.1111
 9876TIP3    H151043   3.446   5.342  15.669  0.2585 -1.7249  0.2237
 9876TIP3    H251044   3.415   5.382  15.527  1.0711  0.0508  0.5148
 9877TIP3   OH251045   1.110   0.598  16.908 -0.1845 -0.1697  0.3654
 9877TIP3    H151046   1.033   0.593  16.851  0.5680 -0.6753 -0.6480
 9877TIP3    H251047   1.173   0.650  16.858  0.2240  0.0258  1.0755
 9878TIP3   OH251048   4.636   0.345  17.212  0.4941  0.1909  0.1131
 9878TIP3    H151049   4.615   0.438  17.202  0.5547  0.4987  2.3471
 9878TIP3    H251050   4.552   0.300  17.203  0.4675  0.4300 -0.9934
 9879TIP3   OH251051   6.193   0.561   2.568  0.0591  0.1417 -0.6562
 9879TIP3    H151052   6.103   0.542   2.596 -0.1790 -0.6996 -1.8729
 9879TIP3    H251053   6.182   0.608   2.485  0.7111 -2.2569 -2.1912
 9880TIP3   OH251054   6.516   0.632   0.598 -0.2931  0.3044 -0.4536
 9880TIP3    H151055   6.573   0.708   0.610  1.8492 -1.2368 -0.2596
 9880TIP3    H251056   6.448   0.642   0.664  0.3573  1.6881  0.0504
 9881TIP3   OH251057   4.230   3.284  13.261 -0.5140 -0.2096 -0.1411
 9881TIP3    H151058   4.191   3.222  13.200  0.7121  0.1958 -1.3939
 9881TIP3    H251059   4.296   3.330  13.209  0.7483 -0.0082  1.5548
 9882TIP3   OH251060   6.572   5.996   3.725 -0.2050 -0.5130 -0.1102
 9882TIP3    H151061   6.571   6.016   3.819  1.1334 -4.2708  0.9234
 9882TIP3    H251062   6.602   6.076   3.683 -0.7504  1.2793  2.6670
 9883TIP3   OH251063   3.747   6.496   5.513 -0.0021 -0.0915 -1.0271
 9883TIP3    H151064   3.759   6.534   5.599  0.4146  0.7000 -1.4287
 9883TIP3    H251065   3.835   6.471   5.485  0.0000  0.5688 -1.6332
 9884TIP3   OH251066   2.081   6.217   1.455 -0.2035 -0.5727 -0.0587
 9884TIP3    H151067   2.079   6.128   1.420  0.9961 -0.7339  0.2279
 9884TIP3    H251068   2.113   6.207   1.544 -3.4612 -0.1928  1.2749
 9885TIP3   OH251069   6.495   5.666  14.869  0.7178 -0.0993  0.1299
 9885TIP3    H151070   6.583   5.641  14.898 -0.5010 -2.5936  2.1670
 9885TIP3    H251071   6.505   5.755  14.835  4.0094 -0.3115  0.1849
 9886TIP3   OH251072   3.253   3.243   0.323  0.1933  0.1360  0.1565
 9886TIP3    H151073   3.316   3.186   0.277 -0.4884 -0.7791  0.3348
 9886TIP3    H251074   3.307   3.292   0.385  0.6417 -1.3330  0.9883
 9887TIP3   OH251075   6.466   0.581  11.659  0.1242 -0.1989  0.6335
 9887TIP3    H151076   6.414   0.651  11.699 -0.4131  0.7890 -1.6394
 9887TIP3    H251077   6.449   0.505  11.714 -3.0179  0.3276  0.5845
 9888TIP3   OH251078   5.371   6.111   5.250  0.6301  0.4781 -1.2010
 9888TIP3    H151079   5.434   6.105   5.322  0.5141  1.5716 -0.9906
 9888TIP3    H251080   5.331   6.024   5.246 -0.4574  0.8079  1.0761
 9889TIP3   OH251081   5.411   2.369   3.968 -0.0751  0.0046 -0.1827
 9889TIP3    H151082   5.370   2.435   4.024  1.1495  1.1973 -0.6347
 9889TIP3    H251083   5.411   2.408   3.881  1.8437  0.0090 -0.2264
 9890TIP3   OH251084   0.551   4.841  16.031 -0.7336 -0.1765 -0.3145
 9890TIP3    H151085   0.601   4.760  16.022  1.1691  0.7489  1.1509
 9890TIP3    H251086   0.508   4.853  15.946  1.7363 -0.9440 -1.7548
 9891TIP3   OH251087   0.502   0.653   2.311  0.2873 -0.0060 -0.0391
 9891TIP3    H151088   0.532   0.641   2.220 -1.0982 -0.9950 -0.3930
 9891TIP3    H251089   0.501   0.748   2.323 -0.7001  0.1973 -1.4828
 9892TIP3   OH251090   4.259   3.475   1.746  0.2531 -0.0152 -0.0464
 9892TIP3    H151091   4.298   3.532   1.812  0.1020 -1.3204  1.2415
 9892TIP3    H251092   4.212   3.534   1.687  1.8607  1.3511 -0.0524
 9893TIP3   OH251093   0.211   2.080  13.470 -0.0055 -0.4628  0.0451
 9893TIP3    H151094   0.162   2.117  13.543  1.4082  1.0836  0.2798
 9893TIP3    H251095   0.270   2.150  13.443  0.9855 -1.7178 -1.2172
 9894TIP3   OH251096   5.885   5.034  11.919 -0.3312 -0.6378 -0.0783
 9894TIP3    H151097   5.930   4.950  11.926 -0.0396 -0.3788  2.1325
 9894TIP3    H251098   5.831   5.038  11.999  0.0067  1.4452  0.1023
 9895TIP3   OH251099   5.996   2.766  12.281  0.4787 -0.1825  0.4527
 9895TIP3    H151100   5.959   2.716  12.354 -0.6760 -1.0457 -0.6919
 9895TIP3    H251101   6.017   2.852  12.319  1.0731 -1.0137  2.0829
 9896TIP3   OH251102   3.338   3.527  14.024 -0.0239  0.2443 -0.0062
 9896TIP3    H151103   3.275   3.580  14.073 -0.4154  1.1282 -1.4098
 9896TIP3    H251104   3.345   3.446  14.074 -3.9144 -0.8166 -0.8637
 9897TIP3   OH251105   0.966   3.561   6.352  0.2176  0.1811 -0.1955
 9897TIP3    H151106   1.005   3.510   6.423 -2.8137 -0.6634  1.0062
 9897TIP3    H251107   0.954   3.498   6.280  0.7795  0.3784 -0.4689
 9898TIP3   OH251108   5.387   2.997  13.711 -0.0780 -0.1004  0.1614
 9898TIP3    H151109   5.321   3.058  13.745  0.5525  0.4699  0.3743
 9898TIP3    H251110   5.336   2.924  13.677 -0.7617 -0.4252  1.7969
 9899TIP3   OH251111   4.516   0.837   6.266  0.2132  0.3141  0.4353
 9899TIP3    H151112   4.610   0.853   6.255 -0.0239  0.9314 -0.7971
 9899TIP3    H251113   4.499   0.861   6.357  1.6099 -1.7079  1.3180
 9900TIP3   OH251114   0.733   1.343  14.809 -0.0863 -0.1973 -0.2341
 9900TIP3    H151115   0.750   1.420  14.755 -0.7898 -0.2523 -0.5488
 9900TIP3    H251116   0.818   1.300  14.818  0.2522  0.4400 -0.3189
 9901TIP3   OH251117   2.188   6.251   2.029  0.3256 -0.4180 -0.0695
 9901TIP3    H151118   2.122   6.214   2.089 -0.5853 -0.9325 -1.3417
 9901TIP3    H251119   2.177   6.346   2.038  1.0566 -0.4435  1.4725
 9902TIP3   OH251120   5.833   2.728   5.017 -0.1205  0.4504  0.3301
 9902TIP3    H151121   5.849   2.745   5.110 -1.2120  0.6521  0.4951
 9902TIP3    H251122   5.914   2.687   4.986  0.0068 -0.2464  1.5216
 9903TIP3   OH251123   5.434   1.092   6.049 -0.3986  0.3010 -0.2245
 9903TIP3    H151124   5.374   1.159   6.082  0.4230 -0.3886  3.0532
 9903TIP3    H251125   5.519   1.117   6.084  0.0614 -1.9715  0.4552
 9904TIP3   OH251126   0.444   4.527   3.667  0.0734 -0.4760 -0.2107
 9904TIP3    H151127   0.369   4.586   3.674  1.6642  1.6100  0.0879
 9904TIP3    H251128   0.490   4.536   3.751  1.6710 -0.2380 -1.0763
 9905TIP3   OH251129   1.683   6.626   2.564 -0.2802  0.0867 -0.1690
 9905TIP3    H151130   1.694   6.531   2.569  0.7551  0.1319 -1.2283
 9905TIP3    H251131   1.694   6.647   2.471 -2.5659  1.0206 -0.2884
 9906TIP3   OH251132   4.950   5.690   3.612  0.3527 -0.3520  0.5524
 9906TIP3    H151133   4.990   5.733   3.688 -0.8102  0.0538  0.9674
 9906TIP3    H251134   5.021   5.640   3.572  1.0316 -0.4261  1.8015
 9907TIP3   OH251135   2.152   3.740  16.368 -0.4410 -0.2892 -0.4605
 9907TIP3    H151136   2.088   3.810  16.380  0.1461  0.2652 -0.5003
 9907TIP3    H251137   2.202   3.767  16.291  1.2271  0.3666  0.8031
 9908TIP3   OH251138   4.150   2.069   2.475 -0.6278  0.2461  0.1596
 9908TIP3    H151139   4.164   1.989   2.526  0.0402  1.1091  1.3921
 9908TIP3    H251140   4.236   2.090   2.439 -1.0521 -0.2388 -1.2102
 9909TIP3   OH251141   0.361   3.493  11.676  0.4471 -0.3760  0.5473
 9909TIP3    H151142   0.348   3.475  11.769  1.3421  1.5377  1.0950
 9909TIP3    H251143   0.402   3.579  11.674 -1.0070  0.3613 -1.6815
 9910TIP3   OH251144   5.240   2.088   5.094 -0.2383 -0.7085 -0.0879
 9910TIP3    H151145   5.204   2.168   5.134 -1.7697 -1.6787  0.5700
 9910TIP3    H251146   5.303   2.057   5.158 -0.1213 -0.3873 -0.0419
 9911TIP3   OH251147   6.751   5.419  12.578 -0.0626  0.3673  0.6405
 9911TIP3    H151148   6.680   5.476  12.549 -0.1960 -0.6842 -1.2276
 9911TIP3    H251149   6.720   5.383  12.661 -1.2932  0.6671  0.3348
 9912TIP3   OH251150   1.518   5.208  11.178  0.3942  0.0611 -0.4171
 9912TIP3    H151151   1.587   5.265  11.144 -0.3418  0.8259 -0.6771
 9912TIP3    H251152   1.519   5.132  11.119  0.3907  0.5019 -0.9992
 9913TIP3   OH251153   5.461   1.544   2.465 -0.6600 -0.3673 -0.8862
 9913TIP3    H151154   5.472   1.600   2.543 -3.1842 -1.0561  0.0778
 9913TIP3    H251155   5.542   1.556   2.416  0.5204  1.0925  1.2117
 9914TIP3   OH251156   0.622   6.696   3.953 -0.7188 -0.3897  0.5208
 9914TIP3    H151157   0.628   6.765   4.020 -0.9797  0.5241 -0.3800
 9914TIP3    H251158   0.560   6.730   3.889  0.7753 -0.5066 -1.0502
 9915TIP3   OH251159   0.904   5.335  15.328 -0.5772  0.6869  0.3319
 9915TIP3    H151160   0.899   5.431  15.331  1.4663  0.9022 -0.9488
 9915TIP3    H251161   0.921   5.315  15.236 -1.6099 -0.9846  0.4723
 9916TIP3   OH251162   4.246   1.266   1.964  0.1694  0.5373  0.0204
 9916TIP3    H151163   4.322   1.309   2.001  0.6227  3.0731 -3.3641
 9916TIP3    H251164   4.274   1.238   1.877 -1.8120 -1.7475 -0.0128
 9917TIP3   OH251165   5.888   1.469   1.302 -0.3481 -0.0156 -0.1970
 9917TIP3    H151166   5.835   1.543   1.274 -1.3608 -0.5269  0.3023
 9917TIP3    H251167   5.881   1.469   1.398 -2.7205 -2.3464 -0.2293
 9918TIP3   OH251168   4.773   1.486  13.953  0.1554 -0.2560  0.5115
 9918TIP3    H151169   4.701   1.435  13.990  1.9173 -1.6086  2.2363
 9918TIP3    H251170   4.732   1.570  13.929 -1.8654 -0.7356  1.9683
 9919TIP3   OH251171   0.667   3.986  12.941 -0.0166 -0.4168 -0.0728
 9919TIP3    H151172   0.656   3.955  13.030 -2.5616 -1.1394 -0.5636
 9919TIP3    H251173   0.631   4.075  12.942  0.4289 -0.2330 -0.2685
 9920TIP3   OH251174   4.724   0.634   4.189 -0.2577  0.4879  0.2759
 9920TIP3    H151175   4.701   0.565   4.250  0.5527  1.4474  1.7206
 9920TIP3    H251176   4.785   0.689   4.237  1.4969  0.5371 -1.8566
 9921TIP3   OH251177   4.822   1.503  11.641 -0.0014 -0.3035  0.0576
 9921TIP3    H151178   4.865   1.575  11.686  0.1105 -0.3429  0.0129
 9921TIP3    H251179   4.881   1.480  11.568 -0.6368  0.3961 -0.6959
 9922TIP3   OH251180   2.223   4.744  11.254  0.0573 -0.7744 -0.1081
 9922TIP3    H151181   2.175   4.824  11.274 -2.5664 -2.2109 -0.2494
 9922TIP3    H251182   2.232   4.744  11.159  1.1820 -0.0867 -0.0189
 9923TIP3   OH251183   2.989   4.706   0.118  0.0174 -0.3092  0.0848
 9923TIP3    H151184   2.974   4.762   0.193 -0.4706 -1.4611  0.8795
 9923TIP3    H251185   3.084   4.696   0.114  0.0707  0.1281  0.2586
 9924TIP3   OH251186   0.568   2.962   3.550  0.1732  0.8786  0.0375
 9924TIP3    H151187   0.592   3.048   3.584 -1.0883  0.5602  1.8415
 9924TIP3    H251188   0.639   2.904   3.579  0.1684  0.9946  0.2811
 9925TIP3   OH251189   4.412   4.885   3.585 -0.5113  0.2916 -0.5121
 9925TIP3    H151190   4.384   4.910   3.497  1.0598  3.1539 -0.3234
 9925TIP3    H251191   4.384   4.957   3.641  1.6314  0.2723  0.6829
 9926TIP3   OH251192   1.523   1.727  10.459 -0.4091  0.0354 -0.0612
 9926TIP3    H151193   1.579   1.763  10.390  0.3329  0.9995  1.0014
 9926TIP3    H251194   1.455   1.793  10.471  0.9916  1.2135  1.9409
 9927TIP3   OH251195   5.276   5.877  11.881  0.2902  0.1007 -0.1469
 9927TIP3    H151196   5.263   5.799  11.827  0.8175  0.3273 -0.6072
 9927TIP3    H251197   5.339   5.930  11.832  1.2234  0.0418  0.9725
 9928TIP3   OH251198   3.515   2.647  16.578  0.0086 -0.0378 -0.2266
 9928TIP3    H151199   3.516   2.709  16.651 -0.1540  1.7371 -1.6656
 9928TIP3    H251200   3.426   2.613  16.576 -0.0267  0.0096  0.2713
 9929TIP3   OH251201   6.210   6.199   2.084  0.1323 -0.0482  0.1235
 9929TIP3    H151202   6.230   6.125   2.026 -1.6217 -1.1002  0.7831
 9929TIP3    H251203   6.118   6.187   2.108  0.2310  1.5114  1.4895
 9930TIP3   OH251204   5.005   0.049   3.025  0.4948  0.3406  0.4147
 9930TIP3    H151205   4.920   0.092   3.025 -0.7257 -1.9279  1.0791
 9930TIP3    H251206   5.060   0.104   3.081 -1.2186  0.6309  1.8820
 9931TIP3   OH251207   1.313   1.870  10.527 -0.3022  0.3279 -0.1651
 9931TIP3    H151208   1.272   1.892  10.443 -1.0969 -2.0687 -0.5057
 9931TIP3    H251209   1.238   1.855  10.586  0.1169 -1.0364  0.0681
 9932TIP3   OH251210   5.403   1.766   0.541  0.5852 -0.0547  0.1570
 9932TIP3    H151211   5.409   1.805   0.628  0.1676 -1.0348  0.6291
 9932TIP3    H251212   5.485   1.716   0.531  0.4273 -0.3154  0.1689
 9933TIP3   OH251213   2.534   2.381  12.842 -0.7046 -0.5688 -0.0803
 9933TIP3    H151214   2.608   2.430  12.808  0.2403 -1.1241  1.0933
 9933TIP3    H251215   2.509   2.428  12.922 -3.0324  0.8640 -1.5512
 9934TIP3   OH251216   0.971   1.266   4.024 -0.1510 -0.1050 -0.0678
 9934TIP3    H151217   0.955   1.274   3.930 -2.2293 -1.2838  0.1271
 9934TIP3    H251218   1.014   1.181   4.034 -0.9877 -0.5136  0.1326
 9935TIP3   OH251219   3.182   4.540  14.676  0.1549 -0.2769  0.4062
 9935TIP3    H151220   3.132   4.461  14.655  0.1987  0.0103 -0.8462
 9935TIP3    H251221   3.120   4.594  14.726 -0.4036 -0.4281 -0.1070
 9936TIP3   OH251222   3.629   5.510   0.686 -0.7758 -0.3642 -0.0899
 9936TIP3    H151223   3.547   5.555   0.669 -0.0906  1.3699  0.9859
 9936TIP3    H251224   3.697   5.570   0.654  0.1328 -1.1966  0.2121
 9937TIP3   OH251225   2.675   2.442  16.594  0.7262  0.6592  0.2725
 9937TIP3    H151226   2.740   2.393  16.644  0.6882  0.8571  0.5187
 9937TIP3    H251227   2.624   2.376  16.548  0.2817  0.4295  1.0750
 9938TIP3   OH251228   6.416   4.415   0.386 -0.2277 -0.4135  0.1853
 9938TIP3    H151229   6.485   4.480   0.394  1.9762 -2.3407 -1.5109
 9938TIP3    H251230   6.437   4.368   0.305 -3.0457 -1.7054  0.0856
 9939TIP3   OH251231   4.489   1.917   2.272  0.6064 -0.4992  0.4925
 9939TIP3    H151232   4.448   1.977   2.209 -0.5211 -2.3207 -0.5922
 9939TIP3    H251233   4.497   1.834   2.225  0.5704 -1.6898  2.4610
 9940TIP3   OH251234   2.779   4.440   0.141 -0.1427 -0.5125 -0.0171
 9940TIP3    H151235   2.781   4.372   0.074 -1.0973  0.6076 -1.2257
 9940TIP3    H251236   2.861   4.488   0.129  0.2580 -1.0672  0.4494
 9941TIP3   OH251237   2.103   5.067  10.711 -0.5002  0.2851  0.5179
 9941TIP3    H151238   2.113   4.986  10.761 -0.3959 -1.4188 -2.0801
 9941TIP3    H251239   2.186   5.114  10.723 -0.3982 -0.1632  1.6945
 9942TIP3   OH251240   2.601   5.793   0.666 -0.3483 -0.0968  0.3469
 9942TIP3    H151241   2.543   5.779   0.591  0.2901 -0.1193 -0.1537
 9942TIP3    H251242   2.584   5.883   0.693 -0.2870  0.0482 -0.0906
 9943TIP3   OH251243   3.601   3.964  12.466 -0.2404 -0.1444  0.2389
 9943TIP3    H151244   3.596   3.888  12.524 -1.3977  0.7736  1.3819
 9943TIP3    H251245   3.519   4.011  12.480  0.1217  0.9236 -1.0217
 9944TIP3   OH251246   6.254   6.280   5.159 -0.3985  0.1717  0.5975
 9944TIP3    H151247   6.335   6.299   5.206  0.3306 -0.4600 -0.3778
 9944TIP3    H251248   6.230   6.364   5.119  0.4380  0.0824 -0.1108
 9945TIP3   OH251249   3.234   2.594   1.443 -0.1487 -0.7982 -0.4409
 9945TIP3    H151250   3.285   2.515   1.426  0.2975 -0.8414  0.9814
 9945TIP3    H251251   3.293   2.666   1.422  1.0376 -0.8286  2.4221
 9946TIP3   OH251252   4.507   0.247   2.904  0.2663 -0.2942  0.2904
 9946TIP3    H151253   4.419   0.267   2.936 -1.4277 -1.3922 -3.1269
 9946TIP3    H251254   4.539   0.179   2.963 -1.2286  0.0059  1.5201
 9947TIP3   OH251255   2.631   5.221  12.447 -0.1736 -0.2148  0.4717
 9947TIP3    H151256   2.663   5.252  12.532 -2.0292 -0.7366  1.4064
 9947TIP3    H251257   2.692   5.259  12.384  1.0432  0.4971  1.9914
 9948TIP3   OH251258   5.971   0.477  14.583  0.8803  0.6465 -0.0340
 9948TIP3    H151259   5.962   0.404  14.644 -0.6048  1.5581  0.8848
 9948TIP3    H251260   6.064   0.476  14.559  1.2680 -0.4375  1.3481
 9949TIP3   OH251261   6.423   0.161   1.165 -0.1181  0.2352 -0.2656
 9949TIP3    H151262   6.359   0.213   1.117 -0.6156  0.2155  0.3562
 9949TIP3    H251263   6.429   0.204   1.250  1.6971  1.0289 -0.7464
 9950TIP3   OH251264   0.952   2.273   3.410  0.1858  0.0925  0.3351
 9950TIP3    H151265   0.907   2.342   3.360 -0.3351 -0.4369  0.0626
 9950TIP3    H251266   0.881   2.220   3.447  0.5646  0.3286  1.4437
 9951TIP3   OH251267   0.973   0.399   3.849 -0.8677 -0.4631 -0.2376
 9951TIP3    H151268   0.968   0.484   3.806 -1.9767 -0.1469  0.4618
 9951TIP3    H251269   1.035   0.348   3.796  0.6840  1.1296 -0.0302
 9952TIP3   OH251270   5.829   2.740  15.171  0.0086 -0.0059 -0.0271
 9952TIP3    H151271   5.921   2.721  15.187  0.1072  1.2251  0.9778
 9952TIP3    H251272   5.814   2.824  15.214 -1.8079 -0.6183  0.6269
 9953TIP3   OH251273   0.197   3.324  11.288  0.2963  0.5962  0.0063
 9953TIP3    H151274   0.166   3.366  11.208 -0.8256  1.2745  0.7762
 9953TIP3    H251275   0.185   3.231  11.273 -0.5079  0.7530 -0.3804
 9954TIP3   OH251276   3.477   6.211  14.725  0.3276  0.3326  0.4805
 9954TIP3    H151277   3.405   6.148  14.721  1.3486 -0.8684  0.3976
 9954TIP3    H251278   3.438   6.294  14.697 -0.7606 -0.5298 -0.6720
 9955TIP3   OH251279   1.501   4.483  14.186 -0.3716  0.1057 -0.0241
 9955TIP3    H151280   1.437   4.415  14.207 -0.0451 -0.1620  0.1101
 9955TIP3    H251281   1.448   4.556  14.153 -0.6759 -0.5412 -1.0432
 9956TIP3   OH251282   1.455   2.481   2.390 -0.6237 -0.0463  0.0150
 9956TIP3    H151283   1.480   2.533   2.313  2.6738 -0.5068  0.5997
 9956TIP3    H251284   1.407   2.542   2.445 -0.7073  1.0730 -1.2277
 9957TIP3   OH251285   5.453   0.089  14.439 -0.1221  0.5924  0.4878
 9957TIP3    H151286   5.499   0.070  14.358 -1.5125  1.2250 -0.4928
 9957TIP3    H251287   5.522   0.109  14.502  1.1849 -2.6862  0.3079
 9958TIP3   OH251288   6.284   6.497  16.484 -0.6165  0.0672  0.2288
 9958TIP3    H151289   6.342   6.450  16.543 -0.6608 -1.4784 -0.8913
 9958TIP3    H251290   6.326   6.582  16.471  1.9510 -1.3195 -1.2897
 9959TIP3   OH251291   0.896   2.633  11.909 -0.1538 -0.0097 -0.1963
 9959TIP3    H151292   0.961   2.620  11.977 -2.3915  0.6522  2.2266
 9959TIP3    H251293   0.896   2.727  11.893  2.2115 -0.3708 -3.2365
 9960TIP3   OH251294   0.806   6.717   3.718  0.6833  0.3081  0.4044
 9960TIP3    H151295   0.759   6.685   3.795  0.4031 -1.0946 -0.3240
 9960TIP3    H251296   0.752   6.689   3.644  1.7753  0.2191 -0.3723
 9961TIP3   OH251297   5.703   4.813   3.606 -0.1808 -0.2304  0.4492
 9961TIP3    H151298   5.736   4.804   3.696  1.8287  0.1945 -0.1796
 9961TIP3    H251299   5.763   4.758   3.554 -1.5991 -0.8420 -0.5928
 9962TIP3   OH251300   1.882   0.167  10.928  0.0775 -0.0548  0.4854
 9962TIP3    H151301   1.787   0.168  10.942 -0.1961 -0.1479 -1.1389
 9962TIP3    H251302   1.895   0.104  10.857  1.2314  0.7806 -0.0792
 9963TIP3   OH251303   3.692   2.423  13.197 -0.0289 -0.2561  0.0809
 9963TIP3    H151304   3.712   2.505  13.242 -1.8215 -0.2684  1.0071
 9963TIP3    H251305   3.639   2.374  13.261 -0.1538 -1.5421 -0.9743
 9964TIP3   OH251306   3.049   0.918  10.661 -0.3992 -0.2170  0.0341
 9964TIP3    H151307   2.993   0.884  10.590  1.1602 -0.8667 -0.9486
 9964TIP3    H251308   3.128   0.864  10.656  0.2016  0.4776  1.5750
 9965TIP3   OH251309   0.920   6.674   2.187  0.6883  0.0648 -0.2570
 9965TIP3    H151310   0.890   6.763   2.169 -0.6672 -0.2440  0.3367
 9965TIP3    H251311   0.892   6.623   2.112 -1.2769 -0.4186  0.7337
 9966TIP3   OH251312   3.773   6.200  16.831 -0.0275 -0.4216  0.7467
 9966TIP3    H151313   3.736   6.240  16.752  2.3817 -1.3961 -0.9959
 9966TIP3    H251314   3.765   6.106  16.817  2.4692 -0.6773  0.4950
 9967TIP3   OH251315   4.606   1.819   5.231 -0.2433 -0.3046  0.1722
 9967TIP3    H151316   4.619   1.914   5.223 -0.7591 -0.1959  0.5386
 9967TIP3    H251317   4.560   1.809   5.315  2.0462 -1.0874  1.4019
 9968TIP3   OH251318   0.204   6.056  13.840  0.2472 -0.7709 -0.4691
 9968TIP3    H151319   0.226   5.970  13.875  2.3087  0.4315  1.4987
 9968TIP3    H251320   0.285   6.107  13.848 -1.1152  1.5982 -0.6804
 9969TIP3   OH251321   0.434   3.473  14.846 -0.2312  0.0885  0.3617
 9969TIP3    H151322   0.353   3.429  14.819  0.3580  0.1484 -1.6211
 9969TIP3    H251323   0.404   3.555  14.885 -1.1349  0.4866 -1.0778
 9970TIP3   OH251324   1.932   1.456   5.100 -0.2156  0.4624  0.2899
 9970TIP3    H151325   1.900   1.389   5.039 -4.7831  1.1973  1.5315
 9970TIP3    H251326   1.904   1.539   5.061  2.0076  1.4579  0.6369
 9971TIP3   OH251327   5.715   6.583   0.638  0.1138  0.2009  0.5608
 9971TIP3    H151328   5.676   6.660   0.596  0.9850  0.3042 -0.0838
 9971TIP3    H251329   5.641   6.522   0.648 -0.0309 -0.1300 -1.8048
 9972TIP3   OH251330   1.075   0.323   2.703 -0.4896 -0.3734 -0.7938
 9972TIP3    H151331   1.056   0.393   2.765  0.7564 -0.7262  0.0111
 9972TIP3    H251332   1.131   0.364   2.637  3.2685 -1.2915  1.5356
 9973TIP3   OH251333   2.278   3.125   0.159  0.2289 -0.2295 -0.0251
 9973TIP3    H151334   2.344   3.181   0.201 -1.8989  1.5896  1.0998
 9973TIP3    H251335   2.320   3.039   0.153  2.1807  0.4815  1.9594
 9974TIP3   OH251336   0.380   1.366  12.045 -0.6337 -0.6613  0.0687
 9974TIP3    H151337   0.461   1.333  12.083  0.8252  3.9914  1.7514
 9974TIP3    H251338   0.319   1.371  12.118 -0.1135  1.8848  0.4394
 9975TIP3   OH251339   1.654   5.019   0.278 -0.0565  0.0810 -0.4732
 9975TIP3    H151340   1.597   4.960   0.327  0.0107 -1.4140 -2.1107
 9975TIP3    H251341   1.737   5.018   0.327 -0.3194 -0.5251 -0.0260
 9976TIP3   OH251342   3.324   0.267   5.900 -0.0774 -0.2705  0.0540
 9976TIP3    H151343   3.353   0.291   5.988 -1.0108  1.3057 -0.0273
 9976TIP3    H251344   3.400   0.284   5.844 -0.0892  0.6274  0.2952
 9977TIP3   OH251345   5.096   0.377   4.596  0.1495  0.0758 -0.5852
 9977TIP3    H151346   5.011   0.418   4.577  0.9840  1.5711 -1.2670
 9977TIP3    H251347   5.141   0.375   4.511  1.3674  0.6888  0.0303
 9978TIP3   OH251348   3.436   5.742  16.244  0.3119 -0.3280 -0.0942
 9978TIP3    H151349   3.411   5.824  16.200  1.1810 -0.5283 -0.9955
 9978TIP3    H251350   3.369   5.679  16.217  0.5243 -0.3065 -0.6823
 9979TIP3   OH251351   1.984   6.122  13.506 -0.6709  0.2851  0.3860
 9979TIP3    H151352   2.067   6.125  13.553 -0.4808 -0.4879  0.1196
 9979TIP3    H251353   1.959   6.029  13.507 -1.3784  0.4649  0.2003
 9980TIP3   OH251354   4.010   0.102  11.467 -0.7926 -0.2917  0.4051
 9980TIP3    H151355   4.024   0.023  11.416  0.1317  0.2359 -0.1932
 9980TIP3    H251356   4.048   0.172  11.413 -1.2254  0.4951  1.1029
 9981TIP3   OH251357   0.981   3.563  13.954  0.1526 -0.2306 -0.1360
 9981TIP3    H151358   0.920   3.605  13.893  1.4497  0.1563 -1.2006
 9981TIP3    H251359   0.944   3.476  13.967 -0.8028  0.0976 -0.4907
 9982TIP3   OH251360   1.713   4.252   5.151 -0.0080  0.0769 -0.0230
 9982TIP3    H151361   1.633   4.207   5.126  0.3074 -0.5437  0.0563
 9982TIP3    H251362   1.731   4.221   5.240 -0.9349  1.9945  0.8940
 9983TIP3   OH251363   6.184   2.467   0.549 -0.5041  0.6227 -0.1815
 9983TIP3    H151364   6.205   2.445   0.458  0.0674  1.2847 -0.2207
 9983TIP3    H251365   6.251   2.531   0.574 -3.1094  3.8775 -0.7435
 9984TIP3   OH251366   3.163   5.141  14.188 -0.6411 -0.4831  0.2798
 9984TIP3    H151367   3.204   5.070  14.237 -2.2752 -2.0233 -0.4683
 9984TIP3    H251368   3.227   5.165  14.121  0.7166  0.1496  1.7419
 9985TIP3   OH251369   2.369   2.250  16.905  0.5279  0.5626  0.0206
 9985TIP3    H151370   2.310   2.290  16.969  0.6206  0.8662 -0.0804
 9985TIP3    H251371   2.313   2.224  16.832  0.6381  1.7620 -0.5195
 9986TIP3   OH251372   2.334   5.168  16.820 -0.8977 -0.2992  0.1193
 9986TIP3    H151373   2.424   5.201  16.823 -0.5927 -0.7386 -2.2175
 9986TIP3    H251374   2.281   5.247  16.813 -0.7825 -0.0129  1.8966
 9987TIP3   OH251375   1.384   1.710  14.073  0.0988  0.2739  0.1842
 9987TIP3    H151376   1.354   1.624  14.043 -2.5754  0.6239  1.5059
 9987TIP3    H251377   1.340   1.722  14.157  1.4048  2.4239  0.6342
 9988TIP3   OH251378   3.077   0.128  15.207 -0.3554 -0.1365 -0.0081
 9988TIP3    H151379   3.006   0.096  15.152 -1.7242 -0.0926  1.6338
 9988TIP3    H251380   3.044   0.211  15.242  0.6072  0.0071  0.6030
 9989TIP3   OH251381   4.885   1.051   3.578  0.0851  0.5209 -0.7681
 9989TIP3    H151382   4.792   1.052   3.555 -0.0681 -1.7511 -0.4726
 9989TIP3    H251383   4.913   0.961   3.563  1.5327  0.4367  1.8786
 9990TIP3   OH251384   3.751   1.508   0.576  0.4173  0.7083  0.3038
 9990TIP3    H151385   3.657   1.528   0.568  0.7500  2.3380  0.1267
 9990TIP3    H251386   3.757   1.455   0.656 -0.8594 -1.0784 -0.6991
 9991TIP3   OH251387   2.128   3.075  12.012  0.5133 -0.0221 -0.1039
 9991TIP3    H151388   2.054   3.117  11.968  0.6980 -0.4239 -0.8031
 9991TIP3    H251389   2.125   3.109  12.101 -0.9095 -0.5309  0.0620
 9992TIP3   OH251390   5.347   2.559   1.757 -0.1537 -0.0734 -0.3826
 9992TIP3    H151391   5.395   2.553   1.674 -0.3007  0.7971 -0.5423
 9992TIP3    H251392   5.386   2.491   1.811  0.8551  0.2023 -0.7202
 9993TIP3   OH251393   6.329   3.896   2.566  0.1674  0.6580 -0.0810
 9993TIP3    H151394   6.379   3.815   2.567 -0.8708 -0.0994 -2.2349
 9993TIP3    H251395   6.296   3.906   2.656 -0.3737 -1.7838  0.0488
 9994TIP3   OH251396   5.087   4.601  16.280  0.1035 -0.4463 -0.0675
 9994TIP3    H151397   5.069   4.611  16.186 -0.0652  1.3141  0.1121
 9994TIP3    H251398   5.020   4.655  16.323  0.2102 -1.1891  1.0720
 9995TIP3   OH251399   4.455   1.331  12.855 -0.6212  0.2503  0.2211
 9995TIP3    H151400   4.395   1.263  12.887 -1.0279  0.1831 -0.6390
 9995TIP3    H251401   4.542   1.295  12.871 -0.8110 -1.2014 -1.5742
 9996TIP3   OH251402   4.500   0.601  14.442 -0.1228 -0.1484 -0.1201
 9996TIP3    H151403   4.530   0.690  14.462 -1.5143  1.0678 -2.8182
 9996TIP3    H251404   4.509   0.594  14.347  0.0175 -2.9700  0.0207
 9997TIP3   OH251405   4.165   1.301   0.166 -0.0758 -0.1259 -0.1985
 9997TIP3    H151406   4.081   1.283   0.209 -0.0795 -1.6316 -0.7807
 9997TIP3    H251407   4.143   1.362   0.095 -0.5077  0.2310  0.2342
 9998TIP3   OH251408   3.527   3.047  13.473  0.4425 -0.5849 -0.1571
 9998TIP3    H151409   3.489   3.000  13.547  1.2216 -0.2539  0.4510
 9998TIP3    H251410   3.488   3.135  13.478  1.2074 -0.2734  0.4137
 9999TIP3   OH251411   2.251   1.022   3.040 -0.1130  0.3035 -0.1584
 9999TIP3    H151412   2.225   1.114   3.041 -1.0205  0.0543  0.6283
 9999TIP3    H251413   2.187   0.978   3.097 -0.4396 -1.0167 -1.4759
10000TIP3   OH251414   0.477   0.288   1.216  0.2385 -0.3192  0.0395
10000TIP3    H151415   0.549   0.260   1.158 -0.4129 -0.8003 -0.5580
10000TIP3    H251416   0.511   0.365   1.261  1.2979 -0.8132  0.1068
10001TIP3   OH251417   6.669   6.610  14.740  0.0077 -0.5002  0.6757
10001TIP3    H151418   6.711   6.556  14.806  1.6911  0.7182  0.6527
10001TIP3    H251419   6.683   6.564  14.658  0.3742 -0.6194  0.8056
10002TIP3   OH251420   5.553   3.981  13.014  0.5104 -0.0808 -0.2333
10002TIP3    H151421   5.638   4.021  12.996 -1.1172  3.1325 -1.7687
10002TIP3    H251422   5.519   4.030  13.089 -0.4675 -0.4394 -0.4246
10003TIP3   OH251423   4.192   6.582  16.868  0.5313  0.0666  0.0028
10003TIP3    H151424   4.116   6.523  16.863  1.5989 -1.4546  0.8928
10003TIP3    H251425   4.231   6.579  16.781 -1.0365  1.8246 -0.8593
10004TIP3   OH251426   5.867   6.335   3.499  0.6561  0.3854 -0.5039
10004TIP3    H151427   5.939   6.314   3.558 -0.1979  0.1958  0.5023
10004TIP3    H251428   5.908   6.383   3.427  1.6765  0.9325  0.4078
10005TIP3   OH251429   1.045   3.048  12.389  0.0200  0.5334 -0.6841
10005TIP3    H151430   1.111   3.008  12.446 -0.2184  0.9462 -0.1044
10005TIP3    H251431   0.971   3.065  12.447 -0.1553  1.1416 -1.0762
10006TIP3   OH251432   2.587   3.252   1.037  0.5273  0.1870 -0.1817
10006TIP3    H151433   2.511   3.196   1.028  0.9009 -0.1749 -1.2192
10006TIP3    H251434   2.556   3.339   1.011 -0.1395  0.5711  1.7597
10007TIP3   OH251435   6.545   3.439   0.183  0.3271 -0.2053 -0.0650
10007TIP3    H151436   6.471   3.429   0.122 -0.0046 -2.7742  0.6662
10007TIP3    H251437   6.607   3.494   0.136 -2.9771  4.3776  0.2248
10008TIP3   OH251438   3.689   3.596  14.950  0.0963  0.2594 -0.1542
10008TIP3    H151439   3.730   3.682  14.959 -0.1820  0.2502  1.7380
10008TIP3    H251440   3.598   3.615  14.925 -0.2354  0.6003  1.2368
10009TIP3   OH251441   3.513   6.011  14.120  0.1477 -0.2510  0.2222
10009TIP3    H151442   3.464   6.087  14.090 -0.8585 -1.3797 -1.0972
10009TIP3    H251443   3.581   6.048  14.177 -1.7382  1.4399  1.5562
10010TIP3   OH251444   6.155   1.064  11.671 -0.2005  0.7365  0.2188
10010TIP3    H151445   6.180   1.146  11.630  0.4769  2.1355  3.1819
10010TIP3    H251446   6.061   1.072  11.685 -0.2848  0.6080 -0.2357
10011TIP3   OH251447   0.753   6.040   0.670 -0.5389 -0.3722 -0.6582
10011TIP3    H151448   0.798   6.124   0.680  0.5629 -0.7206 -2.1204
10011TIP3    H251449   0.693   6.034   0.744 -0.7495  1.7651 -0.6187
10012TIP3   OH251450   5.753   4.359   3.521  0.2848  0.3245 -0.7053
10012TIP3    H151451   5.843   4.338   3.496 -0.5762 -2.4539 -1.7421
10012TIP3    H251452   5.759   4.377   3.615  2.0135  0.9912 -0.8971
10013TIP3   OH251453   5.455   5.617  11.083  0.4020 -0.6392  0.2794
10013TIP3    H151454   5.492   5.661  11.006 -0.1664 -1.7705 -0.6679
10013TIP3    H251455   5.380   5.670  11.107  1.0643  0.1840  0.5672
10014TIP3   OH251456   4.275   4.034  13.875  0.3473 -0.4923 -0.8150
10014TIP3    H151457   4.288   4.044  13.781 -0.1207  1.8975 -0.6915
10014TIP3    H251458   4.203   4.094  13.896  0.7479 -0.6203  1.1369
10015TIP3   OH251459   1.598   1.222  11.568 -0.2501  0.4370  0.0159
10015TIP3    H151460   1.661   1.264  11.627  1.1950  0.4143 -1.4196
10015TIP3    H251461   1.603   1.129  11.590  0.4017  0.4091 -0.2140
10016TIP3   OH251462   1.962   5.312   3.135  0.0200  0.3158 -0.4243
10016TIP3    H151463   2.052   5.293   3.160  0.1339  1.1765 -0.1389
10016TIP3    H251464   1.909   5.272   3.205  0.1216 -0.8744 -1.0023
10017TIP3   OH251465   5.515   6.628   6.693 -0.7037 -0.1203  0.2453
10017TIP3    H151466   5.486   6.609   6.604  0.0915  0.0547 -0.0605
10017TIP3    H251467   5.441   6.673   6.734 -0.8491  0.3614 -0.5293
10018TIP3   OH251468   6.014   1.861   4.682  0.4010  0.1405 -0.5293
10018TIP3    H151469   6.093   1.855   4.628  1.2009 -0.2982  0.6501
10018TIP3    H251470   6.021   1.946   4.725  1.8212 -1.0819  1.8720
10019TIP3   OH251471   2.030   2.223   2.379  0.2536 -0.5722 -0.3401
10019TIP3    H151472   1.964   2.179   2.432  1.2419 -0.0721  1.3942
10019TIP3    H251473   2.095   2.155   2.360 -0.2871 -0.8457 -1.2880
10020TIP3   OH251474   0.866   4.057   6.028 -0.1437  0.3336  0.6134
10020TIP3    H151475   0.774   4.048   6.001 -0.6731  0.9693  2.1302
10020TIP3    H251476   0.875   4.149   6.052  1.1266  0.4655 -0.2378
10021TIP3   OH251477   6.577   5.476  13.550 -0.0823  0.3513  0.0509
10021TIP3    H151478   6.533   5.517  13.625  0.2010  1.2795 -0.2822
10021TIP3    H251479   6.505   5.452  13.491 -0.4316 -1.5821  1.1524
10022TIP3   OH251480   1.186   5.601  15.895  0.3773  0.8062 -0.3950
10022TIP3    H151481   1.127   5.658  15.944  0.1449 -0.3300  0.6955
10022TIP3    H251482   1.249   5.569  15.960  0.4102 -0.2979 -0.9471
10023TIP3   OH251483   0.603   0.524   5.473 -0.9269  0.0249  0.0288
10023TIP3    H151484   0.662   0.543   5.400 -0.2318  0.0081  0.5695
10023TIP3    H251485   0.540   0.462   5.437  0.4214 -1.3199 -0.1226
10024TIP3   OH251486   3.286   3.178   5.643  0.5938  0.1550 -0.1687
10024TIP3    H151487   3.312   3.188   5.735 -0.3302  1.0118  0.0177
10024TIP3    H251488   3.352   3.227   5.594  0.6092  0.4210  0.1113
10025TIP3   OH251489   2.921   1.385  12.794 -0.1074 -0.1963 -0.6098
10025TIP3    H151490   2.958   1.384  12.705  2.0102 -1.8378  0.1925
10025TIP3    H251491   2.840   1.435  12.785  1.3064  1.9620 -2.9351
10026TIP3   OH251492   1.170   2.554  14.132 -0.1627 -0.0618  0.2932
10026TIP3    H151493   1.147   2.538  14.223  2.0094 -0.0618  0.8986
10026TIP3    H251494   1.206   2.471  14.101 -1.4273 -0.2428 -0.7876
10027TIP3   OH251495   4.254   3.823  15.033  0.0518  0.8514 -0.6213
10027TIP3    H151496   4.193   3.851  14.964 -0.9105  0.3420  0.0081
10027TIP3    H251497   4.311   3.760  14.990 -0.1335  1.0129 -1.1141
10028TIP3   OH251498   4.679   0.097   3.715  0.2505 -0.0141 -0.3162
10028TIP3    H151499   4.682   0.149   3.795  1.4934 -0.6911  0.1107
10028TIP3    H251500   4.721   0.151   3.649  1.5977 -0.4694  0.1416
10029TIP3   OH251501   3.659   5.257  16.804  0.0788 -0.0059  0.2032
10029TIP3    H151502   3.720   5.184  16.792  0.3510  0.4843 -1.7475
10029TIP3    H251503   3.703   5.331  16.763 -0.5896  1.0667  1.3735
10030TIP3   OH251504   1.349   3.481  11.673 -0.0279  0.9080  0.3579
10030TIP3    H151505   1.266   3.457  11.632  0.2031  1.4216 -0.4514
10030TIP3    H251506   1.366   3.570  11.641  1.2461  0.4956 -0.1824
10031TIP3   OH251507   2.076   2.310  14.711  0.0779 -0.1393  0.0284
10031TIP3    H151508   2.146   2.374  14.721 -0.4632  0.4807 -0.0968
10031TIP3    H251509   1.999   2.353  14.748 -0.2760 -0.7438 -0.0018
10032TIP3   OH251510   3.180   4.118   1.307 -0.5837 -0.1901  0.0482
10032TIP3    H151511   3.247   4.090   1.370  0.8785 -0.6856 -1.6342
10032TIP3    H251512   3.214   4.200   1.271 -0.9521 -0.3651 -0.7203
10033TIP3   OH251513   3.321   6.319   3.569  0.0572  0.0801 -0.1474
10033TIP3    H151514   3.260   6.274   3.510 -0.9890 -0.1613  1.0810
10033TIP3    H251515   3.269   6.387   3.611  0.8231  0.3398  0.4045
10034TIP3   OH251516   3.138   2.222   0.047 -0.4336 -0.0282  0.4931
10034TIP3    H151517   3.200   2.191  -0.019 -0.4334  0.4009  0.2862
10034TIP3    H251518   3.121   2.313   0.023 -1.4586 -0.2587  0.3126
10035TIP3   OH251519   6.024   1.548  16.364 -0.1560 -0.3613  0.3130
10035TIP3    H151520   5.965   1.604  16.414  1.3205  1.8035 -0.2072
10035TIP3    H251521   5.999   1.563  16.272  1.2260  0.7173  0.0749
10036TIP3   OH251522   6.453   1.061   3.306 -0.3607  0.0333  0.7745
10036TIP3    H151523   6.539   1.045   3.345 -0.8554  2.2334  3.0610
10036TIP3    H251524   6.469   1.135   3.246 -0.7351  0.9969  1.8214
10037TIP3   OH251525   0.616   2.003  13.635 -0.6246 -0.3532  0.5500
10037TIP3    H151526   0.589   2.056  13.710 -0.8892  0.4712 -0.1114
10037TIP3    H251527   0.560   2.033  13.563  1.2216  0.6036 -0.5825
10038TIP3   OH251528   1.306   6.209   1.680  0.4577 -0.4053  0.2582
10038TIP3    H151529   1.245   6.138   1.697 -2.4958  1.3116 -2.0177
10038TIP3    H251530   1.340   6.191   1.592  1.6404 -0.2593  0.6694
10039TIP3   OH251531   4.721   1.007   1.698  0.3423 -0.8470 -0.1154
10039TIP3    H151532   4.762   0.921   1.694 -0.9697 -1.4680 -0.8342
10039TIP3    H251533   4.684   1.012   1.787 -1.2777 -1.8801 -0.6831
10040TIP3   OH251534   1.693   2.422  14.499 -0.4338  0.2957  0.2300
10040TIP3    H151535   1.619   2.403  14.557  0.0705 -0.3779  0.6662
10040TIP3    H251536   1.660   2.407  14.411 -0.6663 -0.5227  0.4547
10041TIP3   OH251537   0.831   3.254  11.436 -0.5442 -0.0645 -0.3634
10041TIP3    H151538   0.740   3.284  11.435 -0.6250 -0.1361  1.4983
10041TIP3    H251539   0.850   3.238  11.528  1.5378  0.4641 -0.6479
10042TIP3   OH251540   5.772   3.906  14.377  0.5529 -0.1884  0.1124
10042TIP3    H151541   5.758   3.817  14.344  1.7158  0.1389 -1.3343
10042TIP3    H251542   5.723   3.962  14.317  1.5115  0.3079 -0.2196
10043TIP3   OH251543   4.452   3.439  15.857 -0.1467  0.3801  0.2807
10043TIP3    H151544   4.503   3.500  15.804 -0.2280  0.6233  0.4844
10043TIP3    H251545   4.454   3.476  15.945 -0.3183  0.1673  0.3742
10044TIP3   OH251546   2.583   5.724   2.596 -0.0389  1.2013  0.8179
10044TIP3    H151547   2.583   5.732   2.500 -0.3469 -0.3504  0.6547
10044TIP3    H251548   2.520   5.790   2.625 -0.8764  0.8713 -0.1571
10045TIP3   OH251549   5.117   6.179   2.994 -0.1537  0.4994  0.0342
10045TIP3    H151550   5.161   6.164   2.911 -0.5160  1.4269 -0.3398
10045TIP3    H251551   5.116   6.094   3.037  0.5359  0.1335 -0.6642
10046TIP3   OH251552   1.891   5.506   3.733 -0.4047 -0.1384  0.0902
10046TIP3    H151553   1.894   5.559   3.813 -4.6394  1.0388 -0.3120
10046TIP3    H251554   1.934   5.560   3.667  0.1322  0.3789  0.8455
10047TIP3   OH251555   4.464   4.830   2.876 -0.0945 -0.2004  0.3115
10047TIP3    H151556   4.498   4.794   2.794  1.5010  0.4454  0.6614
10047TIP3    H251557   4.374   4.799   2.880  0.0686 -0.9613 -1.2614
10048TIP3   OH251558   5.340   4.116   1.380  0.1845 -0.2459  0.6430
10048TIP3    H151559   5.285   4.108   1.302 -1.4562  2.0300  1.4798
10048TIP3    H251560   5.390   4.197   1.365 -2.5363  2.1123  3.2324
10049TIP3   OH251561   1.132   3.116  16.249  0.5275  0.7067 -0.3483
10049TIP3    H151562   1.178   3.036  16.226 -0.2519  0.0259  0.3907
10049TIP3    H251563   1.094   3.147  16.166  1.2807  0.6166 -0.7312
10050TIP3   OH251564   1.568   2.393   5.663  0.0280  0.4669  0.1505
10050TIP3    H151565   1.556   2.475   5.710  1.9042 -0.0797  1.7506
10050TIP3    H251566   1.562   2.326   5.731  3.0760 -0.3416 -0.2072
10051TIP3   OH251567   5.126   1.536   5.267  0.3438 -0.1429  0.3029
10051TIP3    H151568   5.212   1.579   5.272 -0.3901  1.3607  0.5338
10051TIP3    H251569   5.098   1.530   5.358 -0.2591  0.3601  0.1544
10052TIP3   OH251570   6.095   5.095  15.000 -0.2594  0.5518  0.5643
10052TIP3    H151571   6.156   5.117  15.071 -0.3450  0.1028  0.7801
10052TIP3    H251572   6.104   5.000  14.990  0.4756  0.7224 -0.6850
10053TIP3   OH251573   5.757   3.983  14.640 -0.0775 -0.2258  0.6500
10053TIP3    H151574   5.786   4.070  14.610  2.3391 -1.5584 -1.2008
10053TIP3    H251575   5.727   3.939  14.560 -1.0880 -1.1938  1.5370
10054TIP3   OH251576   1.601   2.778   3.518 -0.1157  0.3086 -0.2893
10054TIP3    H151577   1.685   2.781   3.565 -0.4867  0.4886  0.3654
10054TIP3    H251578   1.626   2.777   3.425  0.6629 -1.3182 -0.0936
10055TIP3   OH251579   5.083   6.636   5.944  0.1732  0.3485  0.1691
10055TIP3    H151580   5.049   6.705   6.001 -0.3842 -0.4361  0.7938
10055TIP3    H251581   5.161   6.604   5.989  0.9741  1.1847 -0.5762
10056TIP3   OH251582   6.430   4.570   5.037 -0.3906 -0.3814 -0.3265
10056TIP3    H151583   6.422   4.641   5.101 -0.1489  0.2120 -0.9325
10056TIP3    H251584   6.391   4.494   5.079  0.8505 -0.3111  1.0018
10057TIP3   OH251585   5.413   5.346   0.787 -0.3491 -0.2035  0.2992
10057TIP3    H151586   5.435   5.357   0.880  2.6074 -1.2482 -0.1769
10057TIP3    H251587   5.346   5.277   0.787 -0.2058 -0.3788  1.6451
10058TIP3   OH251588   1.632   4.207   3.283  0.0616 -0.3976  0.0937
10058TIP3    H151589   1.635   4.296   3.249  1.8284  0.1370  1.4948
10058TIP3    H251590   1.666   4.152   3.213 -1.0170  0.0082 -0.7691
10059TIP3   OH251591   2.349   0.280  11.995 -0.2499  0.2342  0.0925
10059TIP3    H151592   2.253   0.279  11.987 -0.2100  0.7900 -0.4768
10059TIP3    H251593   2.373   0.187  11.996 -0.8474  0.0732  0.9777
10060TIP3   OH251594   4.976   4.017  11.055 -0.1262  0.0795  0.6344
10060TIP3    H151595   4.989   4.000  10.962 -1.9417 -0.4402  0.4421
10060TIP3    H251596   5.003   3.936  11.099  0.3559  0.1855  0.5384
10061TIP3   OH251597   1.572   1.391  13.698  0.1394  0.5835 -0.1211
10061TIP3    H151598   1.641   1.414  13.760  0.7578  1.0729 -0.9682
10061TIP3    H251599   1.524   1.473  13.685 -0.1543  0.4172 -0.0891
10062TIP3   OH251600   4.187   6.633  14.057  0.4267 -0.0631  0.5835
10062TIP3    H151601   4.272   6.675  14.070  1.4245 -1.7643 -0.0684
10062TIP3    H251602   4.157   6.662  13.971 -0.3743  1.6498  1.3944
10063TIP3   OH251603   2.131   0.789  15.871 -0.3957  0.3075  0.4352
10063TIP3    H151604   2.179   0.863  15.908  0.8413 -0.7906  1.1353
10063TIP3    H251605   2.157   0.788  15.778 -1.6230  1.6245  0.0374
10064TIP3   OH251606   5.159   6.731   5.077  0.0628  0.3030 -0.2038
10064TIP3    H151607   5.189   6.640   5.067 -1.3896 -0.6267  2.6778
10064TIP3    H251608   5.083   6.737   5.018 -0.7640 -0.8915  0.6857
10065TIP3   OH251609   2.037   2.800   4.016  0.0576  0.3519 -0.3016
10065TIP3    H151610   2.018   2.847   4.097  2.4471  2.6909 -0.9579
10065TIP3    H251611   2.000   2.856   3.947  0.0842 -0.4234 -0.9607
10066TIP3   OH251612   2.654   5.092  15.571  0.3890  0.1909  0.5437
10066TIP3    H151613   2.670   5.176  15.528  0.7393 -0.0529  0.1878
10066TIP3    H251614   2.724   5.035  15.539  0.3863 -0.1242  1.0914
10067TIP3   OH251615   3.881   5.557   6.176 -0.3664  0.2864  0.1934
10067TIP3    H151616   3.787   5.573   6.173 -0.6218 -0.7047  1.8484
10067TIP3    H251617   3.909   5.590   6.261  0.3290 -1.5338  0.7170
10068TIP3   OH251618   5.479   0.414  11.693  0.0520  0.4847  0.4131
10068TIP3    H151619   5.561   0.449  11.659 -0.0836 -0.6937 -1.2630
10068TIP3    H251620   5.505   0.351  11.760  0.6026 -0.6205 -0.8006
10069TIP3   OH251621   0.992   2.067   1.398  0.2629 -0.7456 -0.2448
10069TIP3    H151622   0.997   2.101   1.487  0.1976  1.3229 -0.9741
10069TIP3    H251623   0.900   2.076   1.374  0.2787 -1.3048 -0.5394
10070TIP3   OH251624   2.242   3.054  14.710 -0.9741  0.5470  0.1824
10070TIP3    H151625   2.276   2.965  14.696  0.9144  0.8182  2.3448
10070TIP3    H251626   2.147   3.044  14.708 -0.8103 -1.3945 -0.3362
10071TIP3   OH251627   5.042   6.382   4.002 -0.7333  0.0172  0.4495
10071TIP3    H151628   5.070   6.413   4.088  0.5371 -1.8308  0.7586
10071TIP3    H251629   5.123   6.356   3.958 -1.4992 -0.3905 -0.7672
10072TIP3   OH251630   4.354   1.693  14.876 -0.2010  0.3622 -0.0071
10072TIP3    H151631   4.334   1.626  14.812  0.3440  0.3821 -0.2080
10072TIP3    H251632   4.271   1.710  14.921 -0.7798  0.9237 -1.2387
10073TIP3   OH251633   0.742   2.481   1.436 -0.4650  0.3844 -0.3407
10073TIP3    H151634   0.786   2.403   1.403 -1.6059  0.1168 -1.2987
10073TIP3    H251635   0.734   2.466   1.530 -0.2626 -0.4489 -0.4488
10074TIP3   OH251636   4.030   6.589  11.670  0.2757 -0.0753  0.0811
10074TIP3    H151637   4.022   6.674  11.712  1.5310  0.5046 -0.7784
10074TIP3    H251638   4.070   6.533  11.737  1.5635  0.6381 -0.0574
10075TIP3   OH251639   4.137   4.291   4.844 -0.2341  0.3595  0.5505
10075TIP3    H151640   4.163   4.309   4.753 -1.5527  0.3319  0.1417
10075TIP3    H251641   4.146   4.375   4.889  2.8674 -0.1307  1.0900
10076TIP3   OH251642   1.595   3.814   2.025 -0.1567  0.4841  0.3466
10076TIP3    H151643   1.592   3.808   2.120 -0.5151  0.0519  0.3092
10076TIP3    H251644   1.686   3.794   2.003 -0.1734  0.1646  0.5687
10077TIP3   OH251645   4.469   2.646   5.334 -0.3330 -0.1860 -0.1168
10077TIP3    H151646   4.517   2.626   5.415 -0.6453 -2.5901 -0.4419
10077TIP3    H251647   4.388   2.687   5.363  0.0355 -0.0053  0.6961
10078TIP3   OH251648   4.838   1.965   4.307  0.3073  0.0667 -0.1034
10078TIP3    H151649   4.785   1.896   4.345 -0.8206 -0.1164 -1.8954
10078TIP3    H251650   4.926   1.928   4.303  0.1032 -0.5324  0.6999
10079TIP3   OH251651   6.630   5.030   2.770 -0.3534 -0.2924 -0.6001
10079TIP3    H151652   6.682   5.094   2.819 -1.7379  0.6905 -0.3673
10079TIP3    H251653   6.682   4.950   2.773 -0.6137 -0.5035  3.0924
10080TIP3   OH251654   1.020   3.175  11.235 -0.4306 -0.4191  0.4155
10080TIP3    H151655   0.956   3.206  11.298 -2.8192 -0.6465 -1.7447
10080TIP3    H251656   0.970   3.160  11.155  2.1293 -1.7877 -1.0645
10081TIP3   OH251657   1.128   2.870   3.243 -1.0974  0.0813 -0.2376
10081TIP3    H151658   1.161   2.959   3.253  1.5945 -0.9938  1.7642
10081TIP3    H251659   1.074   2.855   3.321 -0.3792 -0.4612  0.1670
10082TIP3   OH251660   3.268   5.188   4.774 -0.2432 -0.0090  0.0678
10082TIP3    H151661   3.320   5.113   4.804  2.3377  1.4527 -0.3758
10082TIP3    H251662   3.288   5.195   4.681 -1.0387  0.7805 -0.0565
10083TIP3   OH251663   4.013   2.351   1.179  0.3221  0.0301 -0.6356
10083TIP3    H151664   3.982   2.262   1.197  0.0685  0.5357  1.8015
10083TIP3    H251665   3.952   2.386   1.115 -1.8468 -0.3379  1.1162
10084TIP3   OH251666   5.474   2.594   2.027  0.5671 -0.9014 -0.1375
10084TIP3    H151667   5.451   2.533   2.098 -0.2033 -0.6490 -0.1647
10084TIP3    H251668   5.390   2.632   2.000  1.1685  1.4273  1.0137
10085TIP3   OH251669   4.573   1.628   0.702 -0.2763  0.5893  0.5334
10085TIP3    H151670   4.524   1.709   0.717 -0.3280  0.5020  0.8247
10085TIP3    H251671   4.531   1.588   0.626 -1.2058  0.0746  1.3110
10086TIP3   OH251672   0.356   2.410   3.557  0.5534 -0.7884  0.1948
10086TIP3    H151673   0.334   2.323   3.590  1.3906 -1.6789 -1.4602
10086TIP3    H251674   0.301   2.470   3.608 -1.7628 -2.4487 -0.1614
10087TIP3   OH251675   2.080   6.320  14.784 -0.3304  0.9066 -0.0997
10087TIP3    H151676   2.056   6.305  14.875 -0.3490  1.0562 -0.0803
10087TIP3    H251677   2.171   6.348  14.787  0.4644 -1.3956 -0.2921
10088TIP3   OH251678   4.410   4.695   4.049  0.0082 -0.4461 -0.4259
10088TIP3    H151679   4.451   4.771   4.090 -0.3479 -0.0927 -0.7227
10088TIP3    H251680   4.438   4.699   3.958  2.0154 -2.0473  0.0411
10089TIP3   OH251681   2.411   1.530   1.836 -0.4705  0.0715 -0.6061
10089TIP3    H151682   2.447   1.526   1.747  1.4406  0.4920  0.1202
10089TIP3    H251683   2.413   1.440   1.867 -1.4601 -0.1301 -1.0836
10090TIP3   OH251684   1.143   3.485  11.429  0.2873  0.0455  0.3711
10090TIP3    H151685   1.060   3.510  11.387  0.0810 -0.2131  0.6233
10090TIP3    H251686   1.138   3.391  11.440 -0.0256  0.1978  1.7307
10091TIP3   OH251687   2.487   3.968   3.913 -0.4816  0.0772 -0.3143
10091TIP3    H151688   2.393   3.971   3.893 -0.1972 -1.2053 -2.0320
10091TIP3    H251689   2.511   4.059   3.930 -2.0584  0.4028  0.3772
10092TIP3   OH251690   3.925   2.387   2.725 -0.8218  0.4105  0.3278
10092TIP3    H151691   3.963   2.379   2.812 -0.2274 -0.5354 -0.0033
10092TIP3    H251692   3.848   2.442   2.737 -0.8744  0.0946  1.4860
10093TIP3   OH251693   6.430   1.720  11.980  0.1177  0.0752  0.1732
10093TIP3    H151694   6.335   1.728  11.989 -0.0098  0.6189 -1.4029
10093TIP3    H251695   6.442   1.676  11.896  1.2688  0.1372  0.2913
10094TIP3   OH251696   2.309   1.139  17.008 -0.0263  0.4063  0.3704
10094TIP3    H151697   2.398   1.125  16.975 -0.0260  0.2597  0.4340
10094TIP3    H251698   2.252   1.108  16.938 -0.0599  2.2042 -0.4725
10095TIP3   OH251699   1.347   6.662  13.817 -0.0989 -0.1569  0.6742
10095TIP3    H151700   1.280   6.646  13.750  0.5855 -2.1598  0.4164
10095TIP3    H251701   1.326   6.750  13.850 -1.7089  0.0373 -0.6955
10096TIP3   OH251702   0.762   1.991  12.630  0.4906 -0.6106  0.3225
10096TIP3    H151703   0.814   1.915  12.603  0.5613  0.1520 -1.9033
10096TIP3    H251704   0.678   1.954  12.657 -0.6375 -1.4243 -3.6710
10097TIP3   OH251705   4.284   3.878   6.518 -0.4873  0.5142  0.3298
10097TIP3    H151706   4.196   3.909   6.494 -0.9502 -0.7571  0.3040
10097TIP3    H251707   4.306   3.927   6.597 -1.2169  0.8579  0.3270
10098TIP3   OH251708   6.420   3.425  15.512  0.6443 -1.0960 -0.0691
10098TIP3    H151709   6.470   3.344  15.514  0.5366 -1.1576  0.1112
10098TIP3    H251710   6.470   3.483  15.455  0.3821 -1.5200 -0.7483
10099TIP3   OH251711   6.015   3.745  15.258  0.0451 -0.0659 -0.8739
10099TIP3    H151712   5.994   3.704  15.174  0.7230 -0.1096 -1.0212
10099TIP3    H251713   6.103   3.716  15.279  0.1418  0.4839 -0.4740
10100TIP3   OH251714   6.630   5.827   5.693 -0.3494 -0.3299  0.2636
10100TIP3    H151715   6.638   5.914   5.731 -2.2936  0.1831 -0.3497
10100TIP3    H251716   6.535   5.813   5.687 -0.0821 -1.7909 -1.1918
10101TIP3   OH251717   2.954   4.827   2.062 -0.1805  0.3506 -0.5441
10101TIP3    H151718   2.859   4.815   2.067 -0.2684  0.6883 -1.4038
10101TIP3    H251719   2.987   4.779   2.138 -1.0151 -0.0165 -0.3978
10102TIP3   OH251720   1.264   6.166  13.141 -0.3558 -0.4110  0.2501
10102TIP3    H151721   1.343   6.115  13.123  0.0692  1.0644 -2.5269
10102TIP3    H251722   1.296   6.250  13.173 -0.8942 -0.3649  0.6946
10103TIP3   OH251723   5.054   6.340  16.704  0.4353 -0.1774  0.4698
10103TIP3    H151724   5.008   6.259  16.725 -1.4995  0.1009 -2.2885
10103TIP3    H251725   5.073   6.334  16.610 -0.9487  3.0699 -0.1295
10104TIP3   OH251726   2.557   0.899   4.369 -0.3772 -0.2030  0.4167
10104TIP3    H151727   2.495   0.836   4.332 -0.1318 -1.2177  1.6627
10104TIP3    H251728   2.568   0.872   4.460  0.8596  0.7717  0.5932
10105TIP3   OH251729   5.171   6.439  11.962 -0.2675 -0.1512  0.0751
10105TIP3    H151730   5.123   6.363  11.929  0.3952 -1.5579  2.1682
10105TIP3    H251731   5.258   6.405  11.982 -0.3555  0.7847  2.3548
10106TIP3   OH251732   6.210   1.198   2.321  0.4607 -0.1850 -0.7841
10106TIP3    H151733   6.263   1.158   2.391  0.2906  1.5211  0.3885
10106TIP3    H251734   6.264   1.270   2.289 -0.3423  0.3384 -0.9625
10107TIP3   OH251735   4.776   0.797  15.654 -0.5188 -0.0131  0.3741
10107TIP3    H151736   4.752   0.847  15.577  0.4746 -1.3516 -0.8592
10107TIP3    H251737   4.748   0.707  15.634 -1.6645 -0.1216  2.2331
10108TIP3   OH251738   3.444   4.397  15.043  0.1209  0.3127 -0.2303
10108TIP3    H151739   3.424   4.475  14.991 -1.4349  0.1471  0.0509
10108TIP3    H251740   3.489   4.338  14.983 -0.0109  0.8522 -0.8660
10109TIP3   OH251741   3.593   2.153  12.738  0.2907 -0.1091  0.6421
10109TIP3    H151742   3.633   2.216  12.798  0.8385 -0.7080  0.9105
10109TIP3    H251743   3.658   2.083  12.729 -0.1080 -0.4049 -0.0361
10110TIP3   OH251744   6.503   1.329   2.733 -0.0759  0.3109  0.1921
10110TIP3    H151745   6.513   1.240   2.699 -1.4506  0.1568  0.1077
10110TIP3    H251746   6.412   1.352   2.713 -0.0291  1.3727  1.0808
10111TIP3   OH251747   4.627   4.080   5.241  0.7487  0.3161 -0.3852
10111TIP3    H151748   4.717   4.049   5.232  1.0916  1.4279 -0.9038
10111TIP3    H251749   4.631   4.147   5.309  0.0518 -0.5484  0.5543
10112TIP3   OH251750   0.951   4.482  13.408 -0.3056  0.1760  0.2984
10112TIP3    H151751   0.957   4.394  13.444 -0.5966  0.6570  1.5542
10112TIP3    H251752   1.030   4.492  13.355 -0.4961 -0.9980 -0.2484
10113TIP3   OH251753   2.448   1.503  13.965 -0.4283  0.1673 -0.8004
10113TIP3    H151754   2.419   1.579  14.015 -0.1163  0.0888 -0.4983
10113TIP3    H251755   2.378   1.487  13.902 -1.4418 -0.5393  0.4788
10114TIP3   OH251756   4.218   2.846   0.322 -0.0170  0.2150  0.0983
10114TIP3    H151757   4.239   2.825   0.231 -1.1511 -0.7682  0.0358
10114TIP3    H251758   4.191   2.937   0.321 -3.3142 -0.6375 -1.2129
10115TIP3   OH251759   6.128   2.824  14.305 -0.0683 -0.2899  0.4870
10115TIP3    H151760   6.074   2.903  14.315  1.7417  0.9041  1.4859
10115TIP3    H251761   6.133   2.811  14.210  0.4591  1.4910  0.2165
10116TIP3   OH251762   2.078   4.806  15.121  0.0738 -0.1120  0.5295
10116TIP3    H151763   1.990   4.771  15.108  0.2796 -0.3036 -0.4510
10116TIP3    H251764   2.128   4.734  15.158 -0.2689  0.1095  1.4320
10117TIP3   OH251765   4.826   5.574   4.210  0.2640  0.2318  0.2159
10117TIP3    H151766   4.845   5.482   4.194 -0.1551  0.5299 -2.5697
10117TIP3    H251767   4.770   5.600   4.136 -1.3644  2.2140  2.0066
10118TIP3   OH251768   1.281   2.845   5.110  0.7943  0.0980  0.1772
10118TIP3    H151769   1.331   2.846   5.192 -0.8683 -0.6848  1.2476
10118TIP3    H251770   1.198   2.886   5.133  0.8921  1.3911 -1.5751
10119TIP3   OH251771   2.753   2.112  12.719  0.0999  0.2660 -0.6543
10119TIP3    H151772   2.658   2.097  12.724  0.3729 -1.3908  0.1960
10119TIP3    H251773   2.761   2.194  12.671 -1.7416  0.0947 -1.3584
10120TIP3   OH251774   1.039   2.082   4.650 -0.1665 -0.1668  0.5445
10120TIP3    H151775   0.998   2.167   4.639 -0.0980 -0.0923  0.8569
10120TIP3    H251776   1.131   2.101   4.667 -0.3372 -0.2576  1.6139
10121TIP3   OH251777   2.189   0.785  16.471 -0.4075 -0.2855  0.4882
10121TIP3    H151778   2.272   0.823  16.500  0.1941  0.1728 -1.6588
10121TIP3    H251779   2.127   0.858  16.475 -0.1636 -0.0461  0.0028
10122TIP3   OH251780   5.706   0.809  12.693  0.2988 -0.5555 -0.2681
10122TIP3    H151781   5.772   0.802  12.762 -0.8879  0.1886  0.9790
10122TIP3    H251782   5.654   0.885  12.717 -0.5296 -0.6403 -1.6737
10123TIP3   OH251783   0.160   3.340   2.487 -0.2038  0.0024  0.0925
10123TIP3    H151784   0.113   3.411   2.532  1.5356  0.0598  1.9814
10123TIP3    H251785   0.143   3.263   2.540 -0.5716 -0.6150 -0.9074
10124TIP3   OH251786   5.040   5.801  10.783  0.2613 -1.0881  0.0276
10124TIP3    H151787   5.095   5.878  10.771 -0.9354  0.4946  3.4635
10124TIP3    H251788   5.097   5.727  10.764  2.3976  0.5537 -0.2799
10125TIP3   OH251789   4.566   5.589  11.392  0.4380  0.3711  0.0644
10125TIP3    H151790   4.603   5.547  11.315  0.1912  0.5000 -0.1243
10125TIP3    H251791   4.635   5.583  11.458  1.2447  1.6732 -0.6357
10126TIP3   OH251792   0.041   0.431  13.566  0.1693  0.1512  0.8387
10126TIP3    H151793   0.073   0.463  13.483  0.7381 -0.5077  0.7957
10126TIP3    H251794   0.067   0.497  13.630 -1.7480  1.5215  0.2933
10127TIP3   OH251795   4.860   4.463   0.939  0.1955  0.1028 -0.0098
10127TIP3    H151796   4.921   4.401   0.899 -2.3134 -1.7219 -1.3076
10127TIP3    H251797   4.793   4.408   0.980 -0.3361  1.9969  1.8558
10128TIP3   OH251798   3.512   4.466   2.132 -0.3845  0.6077  0.2771
10128TIP3    H151799   3.558   4.520   2.068 -1.2359 -0.2558 -1.1278
10128TIP3    H251800   3.484   4.528   2.200  1.9603  1.2857  0.7197
10129TIP3   OH251801   6.003   0.743  15.189 -0.2498  0.0199 -0.6239
10129TIP3    H151802   6.050   0.825  15.203 -0.1160 -0.0034 -0.9274
10129TIP3    H251803   5.915   0.771  15.163 -0.4477  0.0624  0.0791
10130TIP3   OH251804   1.628   6.046   2.567  0.2579  0.6466  0.2459
10130TIP3    H151805   1.614   6.141   2.557  0.8487  0.6349 -0.9060
10130TIP3    H251806   1.541   6.010   2.583 -0.0760  1.3057 -0.0561
10131TIP3   OH251807   3.050   5.876  15.451 -0.7124  0.0345 -0.5273
10131TIP3    H151808   3.038   5.831  15.368 -2.2019  0.0190 -0.3298
10131TIP3    H251809   2.980   5.844  15.507 -0.6606  1.1781  0.2382
10132TIP3   OH251810   2.767   1.023  16.062 -0.5576  0.4967 -0.4454
10132TIP3    H151811   2.860   1.011  16.079 -0.9621 -1.4452  0.7419
10132TIP3    H251812   2.725   0.946  16.100 -2.5819  0.8804 -1.7000
10133TIP3   OH251813   1.442   6.082   3.326  0.4584  0.0186  0.3129
10133TIP3    H151814   1.535   6.060   3.335  0.3469 -0.2587  0.8637
10133TIP3    H251815   1.416   6.046   3.241  0.3837 -1.6404  1.0005
10134TIP3   OH251816   2.646   4.182  13.912 -0.3354  0.2037 -0.3965
10134TIP3    H151817   2.563   4.198  13.957  1.3018  1.8539  2.3503
10134TIP3    H251818   2.654   4.087  13.909 -2.2097  0.0170 -0.5735
10135TIP3   OH251819   1.684   1.468   4.010  0.3101 -0.3190  0.2832
10135TIP3    H151820   1.779   1.479   4.002  0.0472  3.3008  0.0947
10135TIP3    H251821   1.649   1.557   4.002 -3.2016 -1.5788 -0.4497
10136TIP3   OH251822   4.436   1.035   5.483 -0.1308 -0.1066 -0.3573
10136TIP3    H151823   4.355   0.997   5.518  2.0438 -2.7417  2.3034
10136TIP3    H251824   4.430   1.128   5.507 -1.2863 -0.7347  2.1903
10137TIP3   OH251825   1.978   3.618   0.061 -0.2733  0.1122 -0.4295
10137TIP3    H151826   1.901   3.575   0.098 -0.8942  0.3325 -1.4316
10137TIP3    H251827   1.944   3.702   0.027  0.9818  1.7289  2.0045
10138TIP3   OH251828   2.232   2.504  11.118  0.7668  0.4698  0.3038
10138TIP3    H151829   2.198   2.453  11.044  0.2474  0.5836  0.4598
10138TIP3    H251830   2.316   2.538  11.087  0.8551 -0.0099 -0.0026
10139TIP3   OH251831   6.357   4.560   5.887  0.9477 -0.3300  0.8902
10139TIP3    H151832   6.344   4.465   5.889 -0.8684 -0.1343  3.2931
10139TIP3    H251833   6.341   4.588   5.978  3.4445  2.0622  0.7173
10140TIP3   OH251834   4.506   5.765   3.855  0.0764 -0.1008  0.1955
10140TIP3    H151835   4.557   5.802   3.783 -0.5100 -1.7121 -1.1203
10140TIP3    H251836   4.419   5.803   3.845  0.2356  0.3945  0.6466
10141TIP3   OH251837   1.390   2.407  16.472 -0.2973  0.1449  0.2539
10141TIP3    H151838   1.367   2.500  16.470 -0.1854  0.1970  1.0355
10141TIP3    H251839   1.472   2.404  16.520  0.5530 -0.2020 -1.1709
10142TIP3   OH251840   6.488   0.768  11.073 -0.2251  0.4330 -0.6689
10142TIP3    H151841   6.480   0.808  11.160  0.1940  0.3382 -0.5835
10142TIP3    H251842   6.577   0.791  11.045  0.6047 -1.6996  0.0213
10143TIP3   OH251843   6.560   1.416  11.968 -0.4330 -0.0892 -0.3231
10143TIP3    H151844   6.616   1.484  12.007  0.3756  0.3267 -2.0951
10143TIP3    H251845   6.485   1.411  12.026 -0.0693  1.6794  0.3787
10144TIP3   OH251846   0.617   3.329  16.293 -0.6936  0.2986  0.4813
10144TIP3    H151847   0.554   3.287  16.235 -1.2854  0.1349  1.2201
10144TIP3    H251848   0.624   3.269  16.367 -0.7354  0.9910  1.0557
10145TIP3   OH251849   1.248   6.703   1.197  0.1850  0.5438 -0.4128
10145TIP3    H151850   1.190   6.733   1.127  1.2451 -1.6505 -2.4025
10145TIP3    H251851   1.256   6.609   1.181 -0.1864 -0.2540  3.2539
10146TIP3   OH251852   3.947   1.583   4.492 -0.0091  0.2934 -0.2639
10146TIP3    H151853   3.959   1.589   4.397 -1.2861  0.7207 -0.4120
10146TIP3    H251854   3.905   1.498   4.505  2.1490 -0.8015  0.1739
10147TIP3   OH251855   5.312   3.195  14.626  0.1964 -0.3537 -0.2094
10147TIP3    H151856   5.334   3.207  14.719 -0.7779  0.2363 -0.0392
10147TIP3    H251857   5.393   3.216  14.580  0.7636 -0.8840  0.5122
10148TIP3   OH251858   5.756   4.187   1.196 -0.0453 -0.3063  0.6952
10148TIP3    H151859   5.771   4.280   1.214  1.8102 -0.3331 -0.4310
10148TIP3    H251860   5.761   4.180   1.101  0.1043 -1.6076  0.7834
10149TIP3   OH251861   3.627   6.753   7.144  0.2963  0.3452  0.1350
10149TIP3    H151862   3.555   6.690   7.150 -0.0410  0.6786 -0.3374
10149TIP3    H251863   3.679   6.724   7.069  1.0880 -0.3264  0.9216
10150TIP3   OH251864   0.304   0.684   6.421  0.4524 -0.2481  0.9437
10150TIP3    H151865   0.242   0.754   6.400  0.2299 -0.5701  0.5195
10150TIP3    H251866   0.292   0.619   6.352  2.3924  0.3847 -0.0281
10151TIP3   OH251867   2.020   5.282  12.216  0.2027  0.2408  0.7434
10151TIP3    H151868   1.954   5.325  12.162  0.4140  0.2873  0.5208
10151TIP3    H251869   2.091   5.345  12.223  0.1411  0.2700  1.1514
10152TIP3   OH251870   4.156   4.763  11.861  0.5306  0.2487  0.1317
10152TIP3    H151871   4.175   4.841  11.914  1.2791 -0.4631  0.9427
10152TIP3    H251872   4.061   4.767  11.846  0.3656  0.6967  1.1908
10153TIP3   OH251873   0.699   5.502  13.702  0.4312 -0.4423  0.4862
10153TIP3    H151874   0.605   5.508  13.716  0.0810 -1.0843 -1.3597
10153TIP3    H251875   0.714   5.412  13.675  1.1639  0.2584 -1.6990
10154TIP3   OH251876   1.220   3.775   2.396  0.2416  0.0434  0.6974
10154TIP3    H151877   1.214   3.695   2.343 -0.8239 -0.2043  1.1645
10154TIP3    H251878   1.178   3.752   2.479 -0.7983  1.3155  0.5597
10155TIP3   OH251879   6.606   3.311  14.923 -0.2260  0.3413  0.2473
10155TIP3    H151880   6.529   3.265  14.887  0.0632  0.0049  0.0529
10155TIP3    H251881   6.600   3.399  14.886 -1.9875  1.1855  2.3283
10156TIP3   OH251882   4.380   1.664  16.693  0.5124 -0.8114  0.6994
10156TIP3    H151883   4.404   1.739  16.639  2.0017 -0.9313  1.1493
10156TIP3    H251884   4.310   1.620  16.644 -0.1301  0.6407  0.2630
10157TIP3   OH251885   1.141   1.600  16.620 -0.3349  0.0117 -0.0801
10157TIP3    H151886   1.164   1.565  16.706  0.6009  0.1930 -0.2381
10157TIP3    H251887   1.193   1.548  16.559 -1.0163 -0.1366 -0.5397
10158TIP3   OH251888   3.322   6.513  13.037  0.1716  0.1195 -0.0915
10158TIP3    H151889   3.265   6.482  12.967 -0.9084  1.2953  0.2165
10158TIP3    H251890   3.406   6.472  13.021 -0.2996 -0.3035 -1.5744
10159TIP3   OH251891   0.511   4.658  15.077 -0.0301 -0.1920  0.0070
10159TIP3    H151892   0.579   4.677  15.012 -0.0221 -0.2178  0.0078
10159TIP3    H251893   0.554   4.604  15.143  1.1088  3.0505  2.1724
10160TIP3   OH251894   0.965   5.073  16.587 -0.2393  0.4415  0.6251
10160TIP3    H151895   1.000   4.998  16.539  0.5094  1.0174  0.2457
10160TIP3    H251896   1.030   5.142  16.573 -1.8744  1.7868 -0.7091
10161TIP3   OH251897   2.283   1.466  13.707 -0.3397  0.5283 -0.1930
10161TIP3    H151898   2.211   1.525  13.731 -0.8331 -0.4515  0.8071
10161TIP3    H251899   2.240   1.389  13.671  0.1783 -0.2701  0.8618
10162TIP3   OH251900   0.925   3.747   4.153 -0.0378 -0.8102  0.2497
10162TIP3    H151901   0.869   3.728   4.228  0.0148  0.0045  0.5039
10162TIP3    H251902   0.909   3.839   4.133  1.2952 -0.5252  0.4079
10163TIP3   OH251903   3.225   5.709   3.703 -0.3966 -0.3954  0.0882
10163TIP3    H151904   3.245   5.793   3.663 -0.2716 -0.5482 -0.1739
10163TIP3    H251905   3.156   5.672   3.649 -1.0901 -0.0640  0.7381
10164TIP3   OH251906   3.139   4.376   0.181 -0.3909  0.0315 -0.2809
10164TIP3    H151907   3.161   4.453   0.234 -0.7885 -0.3792  0.4933
10164TIP3    H251908   3.181   4.303   0.226 -1.9200 -0.5293  0.2846
10165TIP3   OH251909   4.772   0.596   6.247  0.2074 -1.0188 -0.0440
10165TIP3    H151910   4.751   0.684   6.216 -0.5741 -1.0657  0.3179
10165TIP3    H251911   4.835   0.608   6.318  0.3670 -0.7776 -0.2266
10166TIP3   OH251912   6.629   3.418   2.552  0.0382 -0.1963 -0.2677
10166TIP3    H151913   6.695   3.472   2.595 -0.7601  0.9203 -0.3979
10166TIP3    H251914   6.640   3.436   2.459 -1.1035  0.8364 -0.2397
10167TIP3   OH251915   1.067   1.038   0.877 -0.4426  0.2831 -0.8167
10167TIP3    H151916   1.076   0.989   0.796 -1.6370  2.1519 -2.1609
10167TIP3    H251917   1.143   1.097   0.878  1.4544 -2.0056  1.2094
10168TIP3   OH251918   6.418   2.133  12.488 -0.1303 -0.3524  0.3637
10168TIP3    H151919   6.418   2.228  12.476  2.4202 -0.0135  2.1360
10168TIP3    H251920   6.412   2.121  12.583 -0.1837 -1.9594  0.1884
10169TIP3   OH251921   3.717   3.295  13.445 -0.3882 -0.0045 -0.3203
10169TIP3    H151922   3.769   3.340  13.379  1.7697 -2.3106 -0.3171
10169TIP3    H251923   3.628   3.328  13.432  0.4258  1.4754 -2.6719
10170TIP3   OH251924   1.603   0.094   2.027 -0.4960  0.3785 -0.1282
10170TIP3    H151925   1.697   0.090   2.046 -0.9207  0.8882  2.4443
10170TIP3    H251926   1.591   0.033   1.954  1.8040  0.2987 -0.5337
10171TIP3   OH251927   3.990   5.877  15.553  0.1736 -0.1973 -0.4113
10171TIP3    H151928   4.084   5.867  15.571  0.5240  2.7057 -0.0705
10171TIP3    H251929   3.980   5.849  15.462  1.0424 -2.0120  0.0127
10172TIP3   OH251930   0.370   0.386  15.710  0.3189  0.2962 -0.0122
10172TIP3    H151931   0.311   0.333  15.764  1.6086 -0.9993  0.2027
10172TIP3    H251932   0.359   0.352  15.622  1.2513 -0.4570  0.1488
10173TIP3   OH251933   0.156   3.649   0.704 -0.0930  0.1132 -0.3813
10173TIP3    H151934   0.172   3.602   0.786 -2.7784 -1.2983 -0.5451
10173TIP3    H251935   0.125   3.735   0.732 -0.3567 -0.1269  0.0839
10174TIP3   OH251936   2.289   0.956   3.397  0.3774 -0.3767 -0.1271
10174TIP3    H151937   2.248   0.882   3.351  0.5968 -1.0095  0.6695
10174TIP3    H251938   2.303   0.924   3.486  0.9036  0.4752  0.1091
10175TIP3   OH251939   3.315   3.003   0.867  0.2091 -0.2838  0.2082
10175TIP3    H151940   3.355   3.032   0.948  2.0927 -1.3931 -0.2632
10175TIP3    H251941   3.264   3.078   0.837  0.5695  0.6011  1.7162
10176TIP3   OH251942   6.585   6.302   3.798 -0.2946  0.1954 -0.1544
10176TIP3    H151943   6.679   6.294   3.813  0.0029  0.3442 -1.7657
10176TIP3    H251944   6.575   6.299   3.703 -1.7983  1.4243 -0.0918
10177TIP3   OH251945   3.574   5.138   4.634 -0.0920 -0.1171 -0.1660
10177TIP3    H151946   3.639   5.158   4.702  0.0603 -0.2250 -0.2795
10177TIP3    H251947   3.558   5.045   4.643  0.5888 -0.3096 -0.8510
10178TIP3   OH251948   5.419   1.800   6.701 -0.4167 -0.1369 -0.0721
10178TIP3    H151949   5.399   1.872   6.641 -0.1744 -0.2158 -0.2513
10178TIP3    H251950   5.368   1.726   6.669 -0.8880  0.0314  0.2824
10179TIP3   OH251951   0.286   0.968   4.834  0.3998 -0.0309 -0.0218
10179TIP3    H151952   0.301   1.027   4.908 -1.5762 -0.4586  0.7711
10179TIP3    H251953   0.217   0.909   4.863  1.7872 -2.3135 -1.0729
10180TIP3   OH251954   6.599   3.367   0.427 -0.1076 -0.0977 -0.9954
10180TIP3    H151955   6.564   3.382   0.339 -0.0770  2.5727 -0.6457
10180TIP3    H251956   6.541   3.417   0.484  0.7596 -0.5490  0.3318
10181TIP3   OH251957   2.716   0.927  11.908  0.4289 -0.3104 -0.1291
10181TIP3    H151958   2.764   0.940  11.826  1.0890 -0.3532  0.2531
10181TIP3    H251959   2.624   0.922  11.880  0.6282 -0.1347 -0.8482
10182TIP3   OH251960   5.206   6.302   2.007  0.4694  0.0337  0.7025
10182TIP3    H151961   5.133   6.246   1.981 -0.6426  0.9119  1.8339
10182TIP3    H251962   5.223   6.356   1.930  0.9388 -1.1681 -0.0747
10183TIP3   OH251963   6.141   5.624  12.011 -0.0231 -0.3732 -0.4568
10183TIP3    H151964   6.137   5.686  11.939 -0.3723 -0.0226 -0.1418
10183TIP3    H251965   6.150   5.679  12.089  0.7951 -0.7661 -0.2715
10184TIP3   OH251966   1.032   1.881   6.227  0.8454 -0.1473 -0.5241
10184TIP3    H151967   1.071   1.966   6.246 -0.3965  0.6374 -1.3591
10184TIP3    H251968   1.105   1.826   6.201  1.4696  1.1342 -1.5412
10185TIP3   OH251969   6.464   2.964   4.937  0.4925  0.3330 -1.1092
10185TIP3    H151970   6.512   2.963   4.854  1.5791  1.0960 -0.5130
10185TIP3    H251971   6.512   3.026   4.992 -0.2621 -0.0841  0.0605
10186TIP3   OH251972   3.226   5.658  14.354  0.2596 -0.2163 -0.6435
10186TIP3    H151973   3.141   5.623  14.381  0.7548 -0.4119  0.7497
10186TIP3    H251974   3.289   5.594  14.388  1.0961  1.1749  0.4995
10187TIP3   OH251975   2.974   5.634   0.349 -0.0987  0.2475  0.0720
10187TIP3    H151976   2.896   5.684   0.329 -0.6916 -0.6162  0.1614
10187TIP3    H251977   2.960   5.600   0.437 -1.0403 -2.4291 -1.0058
10188TIP3   OH251978   4.575   4.702  13.626 -0.3640  0.5180  0.1537
10188TIP3    H151979   4.656   4.699  13.574 -0.5290 -0.6671 -0.0639
10188TIP3    H251980   4.508   4.666  13.568 -0.4475 -1.3584  1.3208
10189TIP3   OH251981   0.366   5.675   4.695 -0.1768 -0.2017  0.4811
10189TIP3    H151982   0.396   5.612   4.630  0.9466  0.5222  0.2838
10189TIP3    H251983   0.294   5.721   4.652 -0.8521 -1.1617  0.5397
10190TIP3   OH251984   1.724   4.391  17.175  0.2552  0.1054 -0.0152
10190TIP3    H151985   1.767   4.386  17.090  1.1261 -2.8727  0.4782
10190TIP3    H251986   1.793   4.419  17.235  0.5103 -0.9218  0.1824
10191TIP3   OH251987   6.206   5.830   4.033  0.4900 -0.2911 -0.0992
10191TIP3    H151988   6.262   5.808   3.959 -0.8186 -2.4221 -0.5275
10191TIP3    H251989   6.243   5.783   4.107  1.4626  1.3844  0.5319
10192TIP3   OH251990   0.608   6.342  10.676  0.0989 -0.6653 -0.8064
10192TIP3    H151991   0.621   6.374  10.586  0.3383  0.6123 -0.3364
10192TIP3    H251992   0.513   6.347  10.689  0.1489  0.0806 -0.6708
10193TIP3   OH251993   4.804   3.246   4.999  0.4943 -0.5919  0.3369
10193TIP3    H151994   4.836   3.181   4.937 -0.7069 -1.1557  0.2761
10193TIP3    H251995   4.870   3.316   4.998 -0.0617  0.0196 -2.5131
10194TIP3   OH251996   1.987   2.027  12.670  0.2770  0.2228 -0.5516
10194TIP3    H151997   2.024   1.945  12.639 -0.1745  0.2297 -1.1185
10194TIP3    H251998   1.901   2.032  12.629 -0.2717  0.3240  0.5564
10195TIP3   OH251999   2.684   1.526  14.164  1.0765  0.5789 -0.0076
10195TIP3    H152000   2.675   1.476  14.083 -1.1785  3.4841 -1.7799
10195TIP3    H252001   2.766   1.574  14.153  1.4866 -0.0993  0.0791
10196TIP3   OH252002   1.093   2.355  11.513  0.4556  0.1086  0.0604
10196TIP3    H152003   1.079   2.278  11.568  0.4394 -0.1758 -0.3349
10196TIP3    H252004   1.125   2.319  11.430 -1.9995  0.2942 -1.0501
10197TIP3   OH252005   4.738   0.426  12.072  0.3320  0.2303  0.2513
10197TIP3    H152006   4.809   0.442  12.009  1.4262 -1.5534  0.9699
10197TIP3    H252007   4.782   0.422  12.157 -0.6330 -0.7792  0.7274
10198TIP3   OH252008   1.471   0.449  12.356  0.0564 -0.1964 -0.5479
10198TIP3    H152009   1.380   0.453  12.325 -0.2793 -1.3662  0.2150
10198TIP3    H252010   1.517   0.398  12.289 -0.4017 -1.6730  0.2148
10199TIP3   OH252011   6.368   0.818  16.751 -0.0288  0.2821  0.0513
10199TIP3    H152012   6.346   0.729  16.724 -0.7014  0.4582  0.0006
10199TIP3    H252013   6.285   0.866  16.745 -0.1293  0.4207  2.0532
10200TIP3   OH252014   2.182   5.587  14.048  0.0788 -0.0638 -0.8068
10200TIP3    H152015   2.262   5.574  13.996 -0.0337 -1.2078 -0.7169
10200TIP3    H252016   2.212   5.585  14.139  0.0628  0.3671 -0.7924
10201TIP3   OH252017   0.767   2.111   2.484  0.0233  0.3045  0.2937
10201TIP3    H152018   0.746   2.185   2.427 -0.0909  0.2023  0.2033
10201TIP3    H252019   0.694   2.107   2.546 -0.1766  0.0115  0.0411
10202TIP3   OH252020   0.179   4.096   5.788  0.2140 -0.4393 -0.2608
10202TIP3    H152021   0.245   4.118   5.852 -1.4973 -0.4368  1.6032
10202TIP3    H252022   0.198   4.006   5.763  0.7987 -0.4993  0.3957
10203TIP3   OH252023   4.689   3.335  14.884 -0.0135 -0.3850  0.1547
10203TIP3    H152024   4.621   3.394  14.852  0.1594 -1.0069 -1.4393
10203TIP3    H252025   4.645   3.252  14.897  0.6864 -1.2987 -2.5924
10204TIP3   OH252026   3.172   4.609  13.966  0.3666  0.1714  0.2436
10204TIP3    H152027   3.090   4.631  13.921  0.1302 -0.0461  0.5589
10204TIP3    H252028   3.228   4.685  13.951 -0.1380  0.6243  0.6007
10205TIP3   OH252029   4.237   5.453  16.811  0.1462 -1.1936  0.1981
10205TIP3    H152030   4.199   5.368  16.787  1.3740 -1.9718  0.8887
10205TIP3    H252031   4.303   5.431  16.877  2.6451 -0.0688 -1.7705
10206TIP3   OH252032   3.298   2.511  15.598 -0.2287  0.2515 -0.4521
10206TIP3    H152033   3.289   2.471  15.512  0.9610  2.9354 -1.9198
10206TIP3    H252034   3.208   2.529  15.626 -0.6900 -1.6590 -0.5391
10207TIP3   OH252035   2.708   2.513  12.322 -0.5199  0.7279 -0.0788
10207TIP3    H152036   2.617   2.530  12.346 -0.0477 -0.8962  3.4181
10207TIP3    H252037   2.758   2.582  12.365 -0.0176  1.7418 -2.1575
10208TIP3   OH252038   6.511   4.629  13.575  0.2975  0.4269 -0.8846
10208TIP3    H152039   6.591   4.610  13.625 -0.9529 -1.5142  0.5447
10208TIP3    H252040   6.525   4.717  13.541  2.0672  1.1040  1.2873
10209TIP3   OH252041   4.912   2.701  15.258  0.4117 -0.3598  0.0702
10209TIP3    H152042   4.841   2.656  15.211 -1.4122  1.0110  1.3417
10209TIP3    H252043   4.982   2.710  15.194 -0.2205 -2.4611 -1.0331
10210TIP3   OH252044   4.663   2.743  17.252 -0.2240 -0.2308 -0.4458
10210TIP3    H152045   4.730   2.751  17.184  0.1828 -1.0068 -0.1507
10210TIP3    H252046   4.605   2.673  17.220  0.6354 -1.4340  0.5230
10211TIP3   OH252047   6.412   0.215  16.387 -0.1229  0.7401 -1.2435
10211TIP3    H152048   6.327   0.220  16.345  0.4993 -1.8558 -3.0339
10211TIP3    H252049   6.473   0.254  16.324  0.4143 -0.3956 -1.4559
10212TIP3   OH252050   2.209   1.294  15.689 -0.1962  0.5662 -0.3035
10212TIP3    H152051   2.133   1.237  15.678 -2.2417  2.4975  2.3595
10212TIP3    H252052   2.258   1.256  15.762  0.6439  0.1408 -1.0637
10213TIP3   OH252053   1.459   2.162   5.469  0.2009  0.1919 -0.5679
10213TIP3    H152054   1.400   2.100   5.513  0.0788  1.0729  0.5241
10213TIP3    H252055   1.491   2.219   5.538  0.9938  0.8230 -1.4298
10214TIP3   OH252056   2.936   6.536   1.542 -0.1811  0.2900 -0.0028
10214TIP3    H152057   2.982   6.504   1.464 -0.0519 -0.4460  0.3675
10214TIP3    H252058   2.998   6.594   1.585  1.0259 -1.8512  1.2973
10215TIP3   OH252059   3.237   5.497  12.772 -0.2570 -0.1961 -0.1818
10215TIP3    H152060   3.154   5.450  12.758 -0.2673 -0.1416 -0.3069
10215TIP3    H252061   3.304   5.438  12.738 -0.2517 -0.2052 -0.1553
10216TIP3   OH252062   2.352   1.760  11.533  0.1805 -0.1867  0.1187
10216TIP3    H152063   2.302   1.735  11.455  0.7491 -1.5101  0.1477
10216TIP3    H252064   2.420   1.693  11.540  0.8374  0.5585  1.1113
10217TIP3   OH252065   2.814   2.974  11.635 -0.0803  0.3205 -0.1017
10217TIP3    H152066   2.889   3.019  11.598  0.6203  2.1615  3.1617
10217TIP3    H252067   2.772   3.039  11.692 -1.1329 -2.1068  2.0989
10218TIP3   OH252068   5.795   4.332   4.661  0.5864  0.8720 -0.3770
10218TIP3    H152069   5.871   4.389   4.656  0.1139  1.4605 -0.9948
10218TIP3    H252070   5.798   4.282   4.579  1.1373 -0.1839  0.2673
10219TIP3   OH252071   2.761   1.679  12.728  0.0319  0.3009 -0.1498
10219TIP3    H152072   2.680   1.670  12.778  0.6635  1.2410  1.0925
10219TIP3    H252073   2.821   1.723  12.788  1.6879 -0.9765 -0.8287
10220TIP3   OH252074   4.512   3.913   4.850 -0.7657  0.3208  0.1409
10220TIP3    H152075   4.559   3.956   4.779 -0.1716 -2.2056 -1.1159
10220TIP3    H252076   4.430   3.960   4.857 -0.0561  1.7915 -0.9384
10221TIP3   OH252077   3.250   0.487   0.277  0.5422 -0.1968  0.7296
10221TIP3    H152078   3.187   0.415   0.283  0.6852 -0.4707 -0.6126
10221TIP3    H252079   3.207   0.561   0.319 -0.5978 -0.4429  0.0451
10222TIP3   OH252080   1.888   5.368   6.681 -0.2845 -0.0252  0.7891
10222TIP3    H152081   1.892   5.442   6.620 -0.8646  0.5813  1.4669
10222TIP3    H252082   1.808   5.321   6.657 -0.3787  0.0693  0.9161
10223TIP3   OH252083   3.999   2.917   4.455  0.0313 -0.0411  0.3806
10223TIP3    H152084   3.991   2.999   4.406 -2.4396 -0.3000  0.1946
10223TIP3    H252085   4.041   2.942   4.537  1.1660  1.0235 -0.4901
10224TIP3   OH252086   2.200   6.283   5.067  0.0205 -0.2569 -0.0761
10224TIP3    H152087   2.116   6.319   5.096 -0.7425  0.3639 -2.7687
10224TIP3    H252088   2.245   6.357   5.026  1.2817 -0.9005  0.1058
10225TIP3   OH252089   2.935   4.914  13.141 -0.2427  0.8013  1.1471
10225TIP3    H152090   2.909   4.980  13.206  0.4340  0.6581  1.5780
10225TIP3    H252091   2.853   4.877  13.109 -0.7068  2.6705  0.0245
10226TIP3   OH252092   5.535   0.428  14.072 -0.1168  0.0512  0.1463
10226TIP3    H152093   5.486   0.349  14.096 -0.0113 -0.2529 -0.5913
10226TIP3    H252094   5.601   0.396  14.010  0.1546  0.6693  0.1163
10227TIP3   OH252095   5.431   5.375  11.528 -0.0530 -0.0226  0.1380
10227TIP3    H152096   5.473   5.298  11.568 -0.1949  0.3248  0.9740
10227TIP3    H252097   5.337   5.359  11.540 -0.1179 -0.1191 -0.4586
10228TIP3   OH252098   4.620   3.590   3.253 -0.7161 -0.1988 -0.0981
10228TIP3    H152099   4.571   3.513   3.225 -1.9471 -0.0552  1.4872
10228TIP3    H252100   4.554   3.659   3.260  0.0386  0.4971  0.3353
10229TIP3   OH252101   5.150   0.200   4.798  0.3401  0.4578 -0.0473
10229TIP3    H152102   5.139   0.264   4.728  2.2945  0.9995  0.0828
10229TIP3    H252103   5.244   0.197   4.813  0.0059  0.1981  2.4295
10230TIP3   OH252104   1.473   1.219   1.180  0.2415 -0.0941  0.2211
10230TIP3    H152105   1.555   1.182   1.147  1.0057  0.8656  0.9971
10230TIP3    H252106   1.463   1.181   1.267 -0.0748 -0.1036  0.1820
10231TIP3   OH252107   5.294   3.007  12.926  0.2475 -0.5475  0.8376
10231TIP3    H152108   5.219   3.053  12.888  1.3762  0.3134 -0.4513
10231TIP3    H252109   5.255   2.939  12.980 -1.4661 -0.1422  0.1940
10232TIP3   OH252110   3.468   1.217  12.442 -0.0256  0.1261  0.0417
10232TIP3    H152111   3.451   1.281  12.511 -1.2907 -1.6483  1.4754
10232TIP3    H252112   3.498   1.139  12.489 -1.0388 -1.1753 -1.3873
10233TIP3   OH252113   0.176   6.719   0.425 -0.6644 -0.3001 -0.5510
10233TIP3    H152114   0.178   6.641   0.371 -0.5967 -1.5806  1.2141
10233TIP3    H252115   0.083   6.741   0.433 -0.6399  0.3401 -1.7214
10234TIP3   OH252116   0.278   5.666   0.578 -0.6297  0.2923 -0.6452
10234TIP3    H152117   0.362   5.644   0.538 -0.7051 -0.2170 -0.5396
10234TIP3    H252118   0.291   5.651   0.672 -0.7004  0.6631 -0.5758
10235TIP3   OH252119   4.053   0.972  10.852 -0.7775 -0.2593 -0.4920
10235TIP3    H152120   4.034   1.063  10.828 -2.8793 -1.2203 -2.9968
10235TIP3    H252121   4.140   0.955  10.817 -0.5772  0.6480 -0.4561
10236TIP3   OH252122   4.152   3.096  11.447  0.0146 -0.0471  0.1698
10236TIP3    H152123   4.240   3.057  11.452  0.7423  1.3375 -0.9640
10236TIP3    H252124   4.129   3.115  11.538  1.2173  0.2311  0.4433
10237TIP3   OH252125   3.621   5.273  13.853  0.4172 -0.5585 -0.3849
10237TIP3    H152126   3.563   5.316  13.790 -2.6012 -2.4434  0.9181
10237TIP3    H252127   3.676   5.216  13.799  0.7466  0.8609 -1.6257
10238TIP3   OH252128   2.491   3.801  11.986 -0.1793 -0.2780  0.2657
10238TIP3    H152129   2.452   3.870  11.933  2.0065  0.7742 -0.0827
10238TIP3    H252130   2.458   3.720  11.948 -0.0401  0.4943 -1.6158
10239TIP3   OH252131   0.213   2.832   5.307  0.1934 -0.2584 -0.0488
10239TIP3    H152132   0.257   2.757   5.266 -2.2072 -1.1808 -1.1571
10239TIP3    H252133   0.211   2.810   5.400  0.5706 -1.0114 -0.2068
10240TIP3   OH252134   4.623   3.508   0.874 -0.1979 -0.4387  0.4932
10240TIP3    H152135   4.594   3.444   0.938 -0.2309 -0.7216  0.1953
10240TIP3    H252136   4.559   3.579   0.881 -0.4463 -0.6584  0.4756
10241TIP3   OH252137   0.175   2.165   5.339 -0.0013  0.5327 -0.0125
10241TIP3    H152138   0.238   2.232   5.311  0.4447  1.2137  2.3810
10241TIP3    H252139   0.224   2.083   5.336 -0.3906  0.3034 -2.4344
10242TIP3   OH252140   6.112   4.622   1.640 -0.3638 -0.2490 -0.2641
10242TIP3    H152141   6.161   4.661   1.569 -1.8617  1.4917 -0.4207
10242TIP3    H252142   6.040   4.576   1.598  0.2989 -1.5968  0.0237
10243TIP3   OH252143   1.050   4.987  14.091  0.0553  0.0250 -0.1612
10243TIP3    H152144   0.973   5.011  14.039 -0.3459  2.3627  1.3313
10243TIP3    H252145   1.112   5.059  14.076  1.8059 -1.5786 -0.9587
10244TIP3   OH252146   5.358   1.108  14.453 -0.1961 -0.1066 -0.5273
10244TIP3    H152147   5.311   1.165  14.393 -0.7741 -1.6622 -1.6180
10244TIP3    H252148   5.381   1.032  14.401 -0.1309 -1.2375  1.0642
10245TIP3   OH252149   3.239   4.685   3.680  1.2811 -0.0711  0.0450
10245TIP3    H152150   3.189   4.762   3.655  0.7597 -0.0916  0.9809
10245TIP3    H252151   3.281   4.656   3.598  2.5079  1.9050 -0.1081
10246TIP3   OH252152   5.900   1.457   0.943  0.5725 -0.5079 -0.4659
10246TIP3    H152153   5.874   1.385   1.000  0.4751  0.0088  0.1622
10246TIP3    H252154   5.824   1.516   0.944  0.6366 -0.4175 -0.9983
10247TIP3   OH252155   1.141   3.507  14.174  0.1064 -0.1336 -0.0143
10247TIP3    H152156   1.105   3.551  14.098  0.8101  0.6101  0.0751
10247TIP3    H252157   1.074   3.518  14.242 -0.0852  0.0637 -0.2326
10248TIP3   OH252158   2.493   5.099   6.923 -0.0366  0.2513  0.9658
10248TIP3    H152159   2.406   5.128   6.952  0.9616  2.4361  2.0201
10248TIP3    H252160   2.548   5.110   7.001  1.4762  0.3480 -0.0854
10249TIP3   OH252161   4.646   2.343   3.886 -0.2520 -0.2507  0.3536
10249TIP3    H152162   4.716   2.366   3.948  0.6812 -0.5238 -0.5698
10249TIP3    H252163   4.566   2.379   3.926  0.5076  0.6876  1.0953
10250TIP3   OH252164   1.056   4.582   0.245 -0.3994 -0.0768 -0.4408
10250TIP3    H152165   1.022   4.663   0.207 -0.0912  0.3220  0.1093
10250TIP3    H252166   0.983   4.547   0.296 -1.5250 -1.7077 -2.9626
10251TIP3   OH252167   1.636   0.667  12.084 -0.6517 -0.6136  0.5108
10251TIP3    H152168   1.687   0.703  12.011 -1.4743 -1.4242 -0.4892
10251TIP3    H252169   1.605   0.745  12.131 -1.6528  0.0141 -1.0906
10252TIP3   OH252170   0.011   3.430   1.580  0.8530 -0.0447  0.4867
10252TIP3    H152171   0.060   3.464   1.655  0.6140  1.0132  0.1813
10252TIP3    H252172   0.023   3.495   1.511  1.3524 -1.1678 -0.5327
10253TIP3   OH252173   1.021   5.375   5.204  0.3562  0.5122  0.7452
10253TIP3    H152174   1.010   5.306   5.270  0.8754  2.3549  2.9034
10253TIP3    H252175   1.116   5.386   5.197  0.2850  0.8256  0.2155
10254TIP3   OH252176   3.937   0.746   6.696 -0.8556 -0.2421  0.3689
10254TIP3    H152177   3.889   0.707   6.769  1.3930  1.2534  2.7733
10254TIP3    H252178   3.979   0.671   6.653  1.5165 -0.9036  3.5005
10255TIP3   OH252179   0.799   5.980  12.679  0.3353  0.2836  0.0433
10255TIP3    H152180   0.828   6.051  12.736 -0.2900 -0.5689  1.5038
10255TIP3    H252181   0.808   5.901  12.733  0.6122 -0.6986 -1.3832
10256TIP3   OH252182   2.268   6.637  14.478 -0.3991 -0.1261 -0.1386
10256TIP3    H152183   2.195   6.584  14.447 -2.1161  1.5999  0.7750
10256TIP3    H252184   2.276   6.706  14.413  0.2930 -0.1780 -0.1134
10257TIP3   OH252185   5.651   2.987   4.015  0.8221  0.5573  0.6854
10257TIP3    H152186   5.633   3.081   4.020  1.0696  0.6265  0.3240
10257TIP3    H252187   5.710   2.969   4.088  0.6028  0.6420  0.8841
10258TIP3   OH252188   1.152   3.118   5.485 -0.1466  0.3706  0.0444
10258TIP3    H152189   1.059   3.139   5.480  0.2241  1.7631 -1.9644
10258TIP3    H252190   1.155   3.033   5.530 -2.2581  0.8924  1.2893
10259TIP3   OH252191   1.548   3.335  10.389 -0.0161 -0.2176  0.0012
10259TIP3    H152192   1.478   3.332  10.324  0.5455  0.7296 -0.6716
10259TIP3    H252193   1.614   3.274  10.356 -0.6263 -1.3360  0.7881
10260TIP3   OH252194   1.767   3.220   0.798 -0.8868  0.0760  0.4452
10260TIP3    H152195   1.708   3.216   0.873 -1.5437  0.0847 -0.0648
10260TIP3    H252196   1.730   3.158   0.735 -1.1409  1.0862 -0.4341
10261TIP3   OH252197   4.794   1.300  12.245 -0.2723  0.2196  0.0109
10261TIP3    H152198   4.703   1.291  12.216 -0.6646 -0.2271  1.3000
10261TIP3    H252199   4.794   1.264  12.334  0.1613  4.1987  1.8350
10262TIP3   OH252200   2.098   5.451  13.539  0.0992  0.5056 -0.2001
10262TIP3    H152201   2.107   5.518  13.471  0.2608 -0.0266 -0.7044
10262TIP3    H252202   2.086   5.501  13.620 -1.8724  1.1531 -0.8397
10263TIP3   OH252203   1.860   4.950   2.236 -0.4811 -0.2213 -0.0500
10263TIP3    H152204   1.839   4.953   2.329  1.4247  0.7917  0.4004
10263TIP3    H252205   1.934   5.010   2.226 -1.3610  0.5769 -2.4309
10264TIP3   OH252206   1.554   5.835  13.498 -0.1068 -0.4992  0.4041
10264TIP3    H152207   1.606   5.840  13.578  0.9059 -3.3336  0.0442
10264TIP3    H252208   1.465   5.857  13.525  0.7675  1.8859  1.5790
10265TIP3   OH252209   5.726   3.091   2.681 -0.2755 -0.2085  0.4699
10265TIP3    H152210   5.794   3.071   2.617  0.0875  0.8168  0.5161
10265TIP3    H252211   5.767   3.074   2.766  0.6252  2.2089  0.6019
10266TIP3   OH252212   2.783   1.087   5.245  0.1441 -0.1385 -0.3105
10266TIP3    H152213   2.828   1.008   5.275 -1.7138 -1.7596 -1.5388
10266TIP3    H252214   2.776   1.077   5.150 -1.3906  0.8048 -0.3412
10267TIP3   OH252215   6.647   6.502  14.471 -0.2338 -0.3632 -0.3971
10267TIP3    H152216   6.622   6.442  14.401 -1.4152  0.0583 -0.3611
10267TIP3    H252217   6.652   6.588  14.430 -0.0738 -0.2483 -0.1429
10268TIP3   OH252218   3.336   3.482   4.555 -0.8859  0.0537  0.1442
10268TIP3    H152219   3.380   3.411   4.601  0.7407  0.1138 -1.2344
10268TIP3    H252220   3.281   3.523   4.622  0.5695 -0.5093  1.7758
10269TIP3   OH252221   5.712   0.445  13.078  0.2095  0.2681  0.1046
10269TIP3    H152222   5.754   0.448  12.992 -2.1956  0.1854 -1.1495
10269TIP3    H252223   5.653   0.369  13.073 -0.3646  0.5743  1.6491
10270TIP3   OH252224   4.731   0.081   1.067  0.0605 -0.3584 -0.1614
10270TIP3    H152225   4.780   0.119   1.140  1.0146 -1.2010 -0.3485
10270TIP3    H252226   4.641   0.114   1.079  0.4074  0.2737  0.8423
10271TIP3   OH252227   0.463   1.221   1.648  0.5975 -0.2608 -0.2689
10271TIP3    H152228   0.554   1.193   1.649  0.7084  0.1090  0.3587
10271TIP3    H252229   0.447   1.255   1.736 -0.2700 -0.7084 -0.2350
10272TIP3   OH252230   5.776   5.014  17.230  0.7281 -0.4872  0.0049
10272TIP3    H152231   5.780   5.031  17.324  1.3279  0.7734 -0.2299
10272TIP3    H252232   5.775   4.919  17.223  1.0985 -0.6016  1.2733
10273TIP3   OH252233   5.346   6.705   5.338 -0.0864  0.7680  0.6284
10273TIP3    H152234   5.284   6.696   5.266  1.4279 -1.3602 -0.5039
10273TIP3    H252235   5.427   6.735   5.297  0.6788 -0.0615  1.4732
10274TIP3   OH252236   4.115   5.523  11.449 -0.3273  1.0286  0.3515
10274TIP3    H152237   4.160   5.438  11.453  0.1775  1.3127  0.8306
10274TIP3    H252238   4.025   5.503  11.475 -0.5181  0.4370 -0.6942
10275TIP3   OH252239   0.088   4.408  14.273  0.2500  0.5277  0.7264
10275TIP3    H152240   0.166   4.353  14.268 -1.2173 -1.6242  0.2405
10275TIP3    H252241   0.081   4.446  14.185 -0.2111 -0.7012  0.2164
10276TIP3   OH252242   2.512   0.000   5.427 -0.1303 -0.4123 -0.4306
10276TIP3    H152243   2.438   0.057   5.446  0.9507  0.3798  1.7899
10276TIP3    H252244   2.507  -0.069   5.493 -1.1290 -2.7156 -2.7632
10277TIP3   OH252245   5.377   4.742   2.186  0.5017  0.5095  0.5699
10277TIP3    H152246   5.459   4.716   2.144  0.0210 -0.5019  0.2177
10277TIP3    H252247   5.390   4.834   2.209  1.9918  0.1919  1.1452
10278TIP3   OH252248   0.867   2.734   6.352  0.1625  0.1777  0.0397
10278TIP3    H152249   0.794   2.738   6.413 -0.0289  0.5923 -0.2184
10278TIP3    H252250   0.833   2.769   6.270  0.3931 -0.4591 -0.3386
10279TIP3   OH252251   0.479   6.158   2.104  0.0989  0.8728  0.0503
10279TIP3    H152252   0.384   6.156   2.113  0.1330  0.4813  0.3685
10279TIP3    H252253   0.500   6.082   2.050  0.3465  0.1089  1.1914
10280TIP3   OH252254   5.276   0.991  16.349  0.2526 -0.3030  0.4076
10280TIP3    H152255   5.321   0.938  16.414  0.1660 -1.3782 -0.3791
10280TIP3    H252256   5.309   1.080  16.363  0.8720 -0.6627  1.3376
10281TIP3   OH252257   0.444   6.719  11.736  0.4160 -0.7779  0.6429
10281TIP3    H152258   0.538   6.698  11.738  0.2583 -2.3455 -2.7226
10281TIP3    H252259   0.401   6.633  11.737 -0.7680 -0.2843 -1.7966
10282TIP3   OH252260   6.221   5.901  11.120 -0.0227  1.1483 -0.1265
10282TIP3    H152261   6.235   5.810  11.146  1.4732  1.2571 -0.4424
10282TIP3    H252262   6.151   5.932  11.176 -0.3255 -0.0998  0.2183
10283TIP3   OH252263   2.774   3.398  12.229  0.3265  0.3211  0.2065
10283TIP3    H152264   2.709   3.465  12.206 -0.8471 -0.1144  2.0644
10283TIP3    H252265   2.808   3.426  12.313  4.1230  1.6035 -1.5609
10284TIP3   OH252266   5.378   0.433   5.787 -0.1207 -0.1107 -0.0208
10284TIP3    H152267   5.407   0.369   5.853 -1.1167 -0.1301  0.4126
10284TIP3    H252268   5.388   0.518   5.830 -1.5630 -0.1735  0.4864
10285TIP3   OH252269   4.452   5.175   0.496 -0.1999 -0.1805 -0.5214
10285TIP3    H152270   4.504   5.241   0.540  0.0619 -0.1650 -0.8495
10285TIP3    H252271   4.426   5.115   0.566  1.9121 -1.2978 -0.6077
10286TIP3   OH252272   5.890   3.450   5.669  0.0287  0.1802 -0.0786
10286TIP3    H152273   5.818   3.509   5.691 -0.7075  0.5716 -3.1001
10286TIP3    H252274   5.856   3.362   5.688 -1.1913  0.3840 -1.1489
10287TIP3   OH252275   2.081   6.295  12.400  0.4235 -0.1525 -0.3435
10287TIP3    H152276   2.012   6.358  12.376  0.7786 -0.5663 -2.6778
10287TIP3    H252277   2.052   6.212  12.361  1.6199 -0.6310 -0.2487
10288TIP3   OH252278   5.451   4.825  16.063 -0.0487 -0.0086 -0.2875
10288TIP3    H152279   5.378   4.887  16.072  0.7526  0.8463  0.5988
10288TIP3    H252280   5.420   4.759  16.001 -1.7241  0.1261  0.3535
10289TIP3   OH252281   2.657   3.517   1.319 -0.5592  0.1637  0.4547
10289TIP3    H152282   2.580   3.551   1.275  0.5877 -0.8188 -2.5373
10289TIP3    H252283   2.625   3.441   1.368 -1.4955 -0.3180 -0.8509
10290TIP3   OH252284   0.510   2.713   2.581  0.2686  0.3463 -0.1905
10290TIP3    H152285   0.582   2.773   2.566  0.7973 -0.7170 -2.3154
10290TIP3    H252286   0.552   2.634   2.618  0.1351 -0.0757 -0.9260
10291TIP3   OH252287   4.629   0.064  14.265 -0.3541 -0.2498 -0.7567
10291TIP3    H152288   4.713   0.104  14.287 -0.3566 -0.9794  0.6848
10291TIP3    H252289   4.605   0.013  14.343 -1.7015 -0.7750 -1.4780
10292TIP3   OH252290   4.958   1.569  16.990  0.0837 -0.0513 -0.3095
10292TIP3    H152291   5.042   1.613  17.004  1.5234 -2.4528 -0.9774
10292TIP3    H252292   4.920   1.562  17.078  0.3288  1.4388 -0.0533
10293TIP3   OH252293   3.914   3.106  15.656 -0.0930 -0.3149 -0.8275
10293TIP3    H152294   3.892   3.017  15.629  1.8830 -0.9593 -0.4750
10293TIP3    H252295   4.001   3.122  15.619 -0.4806  1.5533 -1.0257
10294TIP3   OH252296   0.903   2.836  10.535 -0.1211 -0.1528 -0.3168
10294TIP3    H152297   0.987   2.862  10.573  1.1066 -2.4704 -1.2517
10294TIP3    H252298   0.851   2.806  10.610  0.5666 -0.4139  0.0628
10295TIP3   OH252299   1.553   4.213   4.882  0.4904  0.7124  0.2033
10295TIP3    H152300   1.543   4.308   4.881 -0.0105  0.6938  1.1462
10295TIP3    H252301   1.463   4.180   4.894  0.8131  0.1974  1.4324
10296TIP3   OH252302   3.760   0.410   3.374 -0.3434 -0.1057 -0.0967
10296TIP3    H152303   3.781   0.483   3.316  0.3788 -0.7980 -0.7295
10296TIP3    H252304   3.746   0.450   3.459 -1.8790  0.9877 -0.8224
10297TIP3   OH252305   4.121   6.051  11.060 -0.0009  0.2979 -0.1593
10297TIP3    H152306   4.085   6.006  11.136  2.1433 -1.2388  0.0467
10297TIP3    H252307   4.104   5.992  10.987 -0.6123  1.0121 -0.6041
10298TIP3   OH252308   1.695   6.093  11.814  0.4190  0.0709  0.5112
10298TIP3    H152309   1.684   6.001  11.791 -2.3132  1.0065 -2.6726
10298TIP3    H252310   1.789   6.110  11.800  0.5001 -1.6435 -1.5370
10299TIP3   OH252311   2.853   3.079  17.022  0.0037 -0.0819 -0.0706
10299TIP3    H152312   2.914   3.152  17.009 -1.7658  1.3362 -0.9620
10299TIP3    H252313   2.844   3.041  16.934 -1.0233  0.3030 -0.1498
10300TIP3   OH252314   5.883   3.737  10.679  0.1661 -0.1759  0.5091
10300TIP3    H152315   5.955   3.674  10.680 -0.8914 -1.4494  0.0909
10300TIP3    H252316   5.821   3.701  10.615 -0.4275  1.3642  0.1700
10301TIP3   OH252317   3.234   3.636   6.670  0.4957  0.0645 -0.2076
10301TIP3    H152318   3.188   3.716   6.644  0.4996  1.0460  2.5436
10301TIP3    H252319   3.312   3.667   6.715  0.5631 -1.5002  0.8158
10302TIP3   OH252320   5.652   4.280   2.029  0.0232  0.3246  0.2143
10302TIP3    H152321   5.675   4.299   1.938 -1.5169  1.4191  0.0252
10302TIP3    H252322   5.730   4.306   2.078  1.5314 -1.8014 -0.8635
10303TIP3   OH252323   4.325   0.155   3.204  0.1492 -0.2859 -0.6314
10303TIP3    H152324   4.367   0.076   3.170 -0.0693 -0.5401 -0.3066
10303TIP3    H252325   4.390   0.193   3.263 -0.7878 -1.7663  1.4971
10304TIP3   OH252326   3.633   4.550   0.489 -0.4708  0.0678  0.0558
10304TIP3    H152327   3.578   4.628   0.496  0.5806  0.9257 -0.8011
10304TIP3    H252328   3.574   4.480   0.462 -1.3491  0.6657  0.3867
10305TIP3   OH252329   2.442   5.388   5.074 -0.4815  0.1430  0.2267
10305TIP3    H152330   2.443   5.307   5.022  2.4089  0.0980  0.1640
10305TIP3    H252331   2.418   5.360   5.162 -2.1004 -0.3259 -0.3341
10306TIP3   OH252332   5.072   3.773   4.755 -0.4167 -0.1739  0.3819
10306TIP3    H152333   5.165   3.753   4.762 -0.4402 -0.0392  1.1684
10306TIP3    H252334   5.046   3.800   4.843 -1.0526  0.4225  0.0279
10307TIP3   OH252335   0.136   4.154   4.654  0.4774 -0.0028  0.5122
10307TIP3    H152336   0.188   4.186   4.728  1.0061  2.5737 -0.8719
10307TIP3    H252337   0.164   4.207   4.580 -1.1574 -1.4325 -1.2369
10308TIP3   OH252338   3.499   3.933  13.564  0.1020  0.0681  0.5231
10308TIP3    H152339   3.489   4.020  13.526 -0.2236 -0.2555 -0.1467
10308TIP3    H252340   3.559   3.946  13.638  0.9985  0.6482 -0.2912
10309TIP3   OH252341   1.661   4.831  14.306 -0.4012  0.0675  0.0735
10309TIP3    H152342   1.733   4.788  14.260  0.3435  2.5756 -1.2908
10309TIP3    H252343   1.696   4.853  14.392 -0.2487 -0.5762  0.1768
10310TIP3   OH252344   5.215   3.352   0.837 -0.0397 -0.1370  0.1248
10310TIP3    H152345   5.239   3.384   0.924  1.1037 -1.6265  0.4003
10310TIP3    H252346   5.122   3.330   0.843  0.3707 -1.6548  1.4657
10311TIP3   OH252347   0.206   3.481   2.845 -0.5227 -0.5804 -0.5896
10311TIP3    H152348   0.300   3.486   2.832 -0.4911 -0.3491 -0.2773
10311TIP3    H252349   0.193   3.496   2.939 -0.9046 -0.1514 -0.7059
10312TIP3   OH252350   6.459   3.011   3.956  0.0661 -0.3544 -0.2589
10312TIP3    H152351   6.470   3.103   3.981  1.9770 -0.3287 -1.0240
10312TIP3    H252352   6.492   3.007   3.866 -0.0886 -1.7754 -0.2713
10313TIP3   OH252353   4.833   5.341   3.097 -0.4202  0.4603  0.7802
10313TIP3    H152354   4.765   5.330   3.163 -1.3752 -1.6183 -0.4486
10313TIP3    H252355   4.880   5.258   3.096 -0.4109  0.4330 -1.0776
10314TIP3   OH252356   5.267   5.010  11.030 -0.1280  0.0915 -0.3508
10314TIP3    H152357   5.318   4.978  10.955  1.7381 -0.1495  0.9366
10314TIP3    H252358   5.309   4.969  11.106 -2.3493 -0.1728  0.8179
10315TIP3   OH252359   1.355   2.106  15.922  0.3686  0.2806 -0.2596
10315TIP3    H152360   1.443   2.132  15.949  0.7098 -0.2770 -0.8193
10315TIP3    H252361   1.336   2.161  15.846  0.5512 -0.1562 -0.6222
10316TIP3   OH252362   3.559   4.664   1.126  0.9547 -0.3571 -0.1308
10316TIP3    H152363   3.638   4.691   1.172 -0.3187  2.2315  0.7529
10316TIP3    H252364   3.560   4.714   1.045  0.9386 -1.4808 -0.8518
10317TIP3   OH252365   3.452   2.667  13.228 -0.1863  0.0668  0.0145
10317TIP3    H152366   3.392   2.594  13.209  0.3112 -0.7100  1.2531
10317TIP3    H252367   3.408   2.744  13.193  0.0120 -0.9994 -2.8697
10318TIP3   OH252368   5.583   1.144  16.835  0.1751  0.0963  0.1974
10318TIP3    H152369   5.503   1.094  16.852 -0.0284 -0.0635 -1.1498
10318TIP3    H252370   5.582   1.161  16.741 -0.6251  4.1539  0.7731
10319TIP3   OH252371   4.309   4.510  11.861  0.4682 -0.5505 -0.1820
10319TIP3    H152372   4.255   4.578  11.903  1.0159 -0.6512  0.7044
10319TIP3    H252373   4.388   4.556  11.833  0.5235 -0.6783 -0.2377
10320TIP3   OH252374   5.127   4.010   2.670 -0.0691  0.2602  0.2473
10320TIP3    H152375   5.199   3.947   2.673  0.0229  0.4035  1.3935
10320TIP3    H252376   5.054   3.961   2.633  0.0475 -0.4819  0.9801
10321TIP3   OH252377   1.102   1.695   2.796 -0.4048 -0.5938  0.1820
10321TIP3    H152378   1.151   1.753   2.738  0.7354 -1.1638  0.5415
10321TIP3    H252379   1.067   1.752   2.864 -0.7078 -0.1001 -0.3826
10322TIP3   OH252380   6.461   3.720   1.686 -0.3267 -0.1827 -0.3412
10322TIP3    H152381   6.439   3.636   1.726 -1.0368 -0.6650 -1.7061
10322TIP3    H252382   6.470   3.780   1.760 -0.0951 -1.3885  0.6298
10323TIP3   OH252383   4.706   2.175   2.006  0.6427 -0.4159  0.3658
10323TIP3    H152384   4.786   2.136   1.971  0.1460 -2.0358  0.9273
10323TIP3    H252385   4.637   2.149   1.944  0.3166 -0.3098  0.6770
10324TIP3   OH252386   5.976   2.504   4.908 -0.0410  0.0786 -0.1152
10324TIP3    H152387   6.037   2.497   4.835  0.6990  2.5883  0.1548
10324TIP3    H252388   6.019   2.460   4.981  1.5037  1.7630  0.0559
10325TIP3   OH252389   5.795   2.764  16.700 -0.0355 -0.2162 -0.6132
10325TIP3    H152390   5.791   2.846  16.650 -2.4937  1.4669  1.9998
10325TIP3    H252391   5.707   2.728  16.694 -0.4265 -0.0091  2.1589
10326TIP3   OH252392   1.646   0.964   3.107  0.0504  0.0886  0.7174
10326TIP3    H152393   1.718   0.965   3.044  0.6951 -0.6514  1.4248
10326TIP3    H252394   1.597   0.885   3.086  0.1380 -0.0427  1.0108
10327TIP3   OH252395   0.087   4.912  13.468 -0.0468 -0.1978 -0.4894
10327TIP3    H152396   0.117   4.911  13.559 -0.9968  1.2439 -0.1308
10327TIP3    H252397   0.144   4.849  13.424  1.9005  0.6552  0.6518
10328TIP3   OH252398   3.445   5.118   3.932  0.0315 -0.8050 -0.4667
10328TIP3    H152399   3.376   5.065   3.972 -1.2964  0.9882 -0.2701
10328TIP3    H252400   3.430   5.111   3.838 -2.0316  1.5105 -0.3894
10329TIP3   OH252401   0.379   2.216  10.775  0.2116  0.6590 -0.6615
10329TIP3    H152402   0.325   2.251  10.703  0.4338  1.3033 -0.5170
10329TIP3    H252403   0.342   2.256  10.854  1.7662  2.2373 -0.6738
10330TIP3   OH252404   2.235   3.457   3.446  0.3159 -0.4938  0.2759
10330TIP3    H152405   2.284   3.409   3.379 -0.2670  0.2681 -0.7276
10330TIP3    H252406   2.301   3.502   3.498  0.7407 -0.3892 -0.3485
10331TIP3   OH252407   5.266   6.501  13.229  0.0444  0.1989  0.3264
10331TIP3    H152408   5.216   6.452  13.295 -0.4576  0.1096 -0.1187
10331TIP3    H252409   5.354   6.464  13.233 -0.7129 -1.9221 -1.1754
10332TIP3   OH252410   1.218   5.894   3.433 -0.2738  0.6282  0.5936
10332TIP3    H152411   1.255   5.964   3.380  1.7638 -0.1401  0.8933
10332TIP3    H252412   1.125   5.896   3.413  0.3195  0.4567 -2.9900
10333TIP3   OH252413   0.164   0.474   2.055 -0.0112 -0.5128 -0.1696
10333TIP3    H152414   0.234   0.414   2.080 -0.7675 -0.5934  1.9444
10333TIP3    H252415   0.087   0.443   2.103 -1.0737  0.5699 -1.1137
10334TIP3   OH252416   3.725   0.090   0.732  0.2448  0.6479  0.5244
10334TIP3    H152417   3.791   0.069   0.666 -1.6718  1.0982 -1.6653
10334TIP3    H252418   3.667   0.014   0.733  0.6224  0.3202  2.3120
10335TIP3   OH252419   0.886   6.008  11.586  0.4652 -0.0500 -0.3433
10335TIP3    H152420   0.942   5.935  11.560 -0.6214 -1.8370  1.9315
10335TIP3    H252421   0.801   5.968  11.603 -0.3412  1.8592  0.4092
10336TIP3   OH252422   5.963   0.996  16.425  0.0937 -0.2256  0.2514
10336TIP3    H152423   5.936   1.050  16.350  0.8379  1.3938  1.0933
10336TIP3    H252424   5.883   0.987  16.477  0.0721  0.5826  0.3828
10337TIP3   OH252425   6.150   4.784  12.705 -0.3921 -0.3854  0.0659
10337TIP3    H152426   6.057   4.760  12.705 -0.2221 -1.1967 -1.7967
10337TIP3    H252427   6.174   4.786  12.798 -1.9255 -1.5379  0.5368
10338TIP3   OH252428   4.297   4.207  12.817  0.1159  0.0479 -0.0620
10338TIP3    H152429   4.270   4.146  12.748 -0.0118 -0.4548  0.4191
10338TIP3    H252430   4.393   4.201  12.818  0.5103  3.1870 -2.9982
10339TIP3   OH252431   5.273   1.528  13.754 -0.1688 -0.0400 -1.1560
10339TIP3    H152432   5.244   1.505  13.665  0.3212  0.3556 -1.4166
10339TIP3    H252433   5.192   1.530  13.805 -0.6199  1.0335 -1.8763
10340TIP3   OH252434   0.871   4.342   3.812  0.2961 -0.2174 -0.2968
10340TIP3    H152435   0.927   4.264   3.815 -1.7908 -1.8498 -1.1903
10340TIP3    H252436   0.799   4.321   3.871 -0.6213  0.7910 -1.0375
10341TIP3   OH252437   2.838   0.573  11.270 -0.9343 -0.3591 -0.1429
10341TIP3    H152438   2.894   0.571  11.192 -0.2518 -3.3405  0.3239
10341TIP3    H252439   2.896   0.603  11.340 -1.2086  1.0346 -0.4720
10342TIP3   OH252440   0.574   4.524   0.479 -0.3575  0.1660 -0.5468
10342TIP3    H152441   0.640   4.574   0.431  0.2308 -0.9565 -0.9185
10342TIP3    H252442   0.598   4.433   0.466 -0.5957 -0.2033  1.2997
10343TIP3   OH252443   0.826   3.642  14.777 -0.0373  0.1019 -0.2902
10343TIP3    H152444   0.881   3.568  14.800  0.2686  0.2303 -0.6035
10343TIP3    H252445   0.845   3.708  14.843  1.1624  0.6325 -1.1176
10344TIP3   OH252446   2.828   4.207   0.009 -0.2196 -0.2469  0.3637
10344TIP3    H152447   2.749   4.155  -0.005 -1.3905  0.8886  2.3353
10344TIP3    H252448   2.864   4.176   0.092 -0.2511  1.1959  0.9462
10345TIP3   OH252449   4.893   2.391   3.680 -0.7997 -0.2330 -0.5614
10345TIP3    H152450   4.899   2.385   3.775  1.8129  1.7896 -0.4775
10345TIP3    H252451   4.965   2.337   3.648 -0.0396  1.1066 -1.2097
10346TIP3   OH252452   3.129   1.701  15.436  0.3864  0.1476 -0.3492
10346TIP3    H152453   3.063   1.706  15.505  2.4643 -2.4491  2.0600
10346TIP3    H252454   3.080   1.712  15.355 -2.5261  1.1608  1.3924
10347TIP3   OH252455   4.598   5.348   0.641  0.1215 -0.3946  0.1048
10347TIP3    H152456   4.659   5.405   0.595 -0.3789  1.0283  1.1470
10347TIP3    H252457   4.621   5.356   0.733 -0.5715 -1.1401  0.3632
10348TIP3   OH252458   3.791   3.715   0.119 -0.4671 -0.3022  0.0013
10348TIP3    H152459   3.767   3.712   0.212 -2.0020  0.7238 -0.3413
10348TIP3    H252460   3.805   3.808   0.101  1.6583 -0.6447 -0.3889
10349TIP3   OH252461   6.112   1.838   0.799 -0.1313 -0.2835 -0.6802
10349TIP3    H152462   6.205   1.818   0.811 -0.4443 -0.6602  1.7053
10349TIP3    H252463   6.074   1.757   0.765 -0.0246 -1.1787  1.1911
10350TIP3   OH252464   5.823   2.170   3.932  0.7093  0.1282  0.1529
10350TIP3    H152465   5.794   2.205   3.847 -0.5987 -0.6488  0.2601
10350TIP3    H252466   5.794   2.079   3.931  0.4873  0.1717  1.5244
10351TIP3   OH252467   4.393   5.673  12.711 -0.4044 -0.1065 -0.3509
10351TIP3    H152468   4.367   5.754  12.755 -1.6174 -0.7599  0.1673
10351TIP3    H252469   4.391   5.607  12.780 -0.8250 -0.8544 -1.0685
10352TIP3   OH252470   3.970   3.853  13.033  0.5609  0.1335  0.4246
10352TIP3    H152471   3.972   3.928  12.973  0.0698 -0.3751 -0.2513
10352TIP3    H252472   3.880   3.821  13.029  1.1055 -1.4558 -0.5519
10353TIP3   OH252473   2.044   1.380  13.978 -0.0701 -0.1788  0.2488
10353TIP3    H152474   2.021   1.449  13.916  0.5664  0.9945  1.2603
10353TIP3    H252475   1.994   1.400  14.057  0.8902 -0.2617  0.9043
10354TIP3   OH252476   3.157   0.365   1.200  0.5566  0.2696 -0.2331
10354TIP3    H152477   3.122   0.277   1.212 -0.9692  0.9505  0.5900
10354TIP3    H252478   3.093   0.408   1.143  0.2685  1.4091  0.9178
10355TIP3   OH252479   1.708   0.511  17.234 -0.1114 -0.1185 -0.1573
10355TIP3    H152480   1.696   0.546  17.323 -0.7334 -1.9876  0.5381
10355TIP3    H252481   1.624   0.472  17.212  0.2955 -0.4074 -1.2379
10356TIP3   OH252482   4.024   4.964  16.551 -0.0240 -0.6519 -0.4275
10356TIP3    H152483   4.107   4.995  16.516  0.0701 -0.3323  0.0728
10356TIP3    H252484   4.045   4.880  16.593  0.4065  0.2239  1.2037
10357TIP3   OH252485   5.623   0.803   3.757  0.2233  0.1344  0.0729
10357TIP3    H152486   5.600   0.894   3.737 -1.3021 -0.4214 -0.8899
10357TIP3    H252487   5.699   0.810   3.814 -0.3857  2.0360  0.7470
10358TIP3   OH252488   0.996   5.401  13.091  0.2700 -0.2914  0.0669
10358TIP3    H152489   0.997   5.307  13.109  0.5810 -0.5285 -1.0648
10358TIP3    H252490   1.020   5.442  13.174 -1.6801 -1.0946  1.1043
10359TIP3   OH252491   1.579   4.966   6.727 -0.3567  0.2264 -0.0518
10359TIP3    H152492   1.581   5.059   6.704  0.4418  0.7364  1.8476
10359TIP3    H252493   1.663   4.932   6.696 -1.1581 -0.2123 -1.8775
10360TIP3   OH252494   4.582   4.509  11.637 -0.1375  0.5510 -0.0223
10360TIP3    H152495   4.523   4.552  11.576  0.6020  1.4509 -0.1271
10360TIP3    H252496   4.615   4.433  11.589 -2.0301 -0.6129  0.4321
10361TIP3   OH252497   3.082   6.662   4.138  0.3038 -0.1092 -0.4886
10361TIP3    H152498   3.092   6.747   4.095 -0.6734  0.3127  0.0922
10361TIP3    H252499   3.070   6.600   4.066 -1.7778  0.6481 -0.8482
10362TIP3   OH252500   6.336   1.099  12.274  0.6800 -0.2971 -0.0231
10362TIP3    H152501   6.256   1.056  12.243  0.3556 -0.1775  0.6233
10362TIP3    H252502   6.407   1.055  12.228  0.1796  0.2775 -1.3861
10363TIP3   OH252503   1.055   3.122  11.990  0.2457  0.2774  0.3003
10363TIP3    H152504   1.080   3.030  11.998 -0.2705 -0.1630 -2.2481
10363TIP3    H252505   1.135   3.170  12.010  1.6111 -0.9077 -1.8564
10364TIP3   OH252506   1.335   5.187   2.566 -0.1933 -0.0142  0.6307
10364TIP3    H152507   1.333   5.274   2.604 -2.6967 -0.3131  1.3289
10364TIP3    H252508   1.413   5.187   2.511 -0.1361  2.6550  0.5895
10365TIP3   OH252509   1.068   0.576   3.392  0.2248  0.1056 -0.0145
10365TIP3    H152510   1.041   0.607   3.479  1.3963  0.0051  0.3972
10365TIP3    H252511   1.049   0.649   3.334  1.8734  1.2209  0.7636
10366TIP3   OH252512   4.219   4.377   3.255  0.2073 -0.3620  0.0265
10366TIP3    H152513   4.303   4.394   3.212 -0.6453  0.3783 -1.4334
10366TIP3    H252514   4.241   4.322   3.330  1.9567 -0.3954 -0.4665
10367TIP3   OH252515   5.949   5.000   1.572  0.5804  0.2204  0.2184
10367TIP3    H152516   5.900   5.079   1.547  0.5905  0.0315 -0.4233
10367TIP3    H252517   5.908   4.930   1.521  0.8924 -0.1054  0.4157
10368TIP3   OH252518   1.994   5.030   3.029  0.2947 -0.2338  0.4382
10368TIP3    H152519   2.012   5.086   3.104 -0.8314  2.0515 -0.8924
10368TIP3    H252520   2.013   4.941   3.060  1.4652  0.7735  2.8646
10369TIP3   OH252521   1.111   5.984  14.393 -0.0440  0.5269  0.0703
10369TIP3    H152522   1.027   5.940  14.402  1.3049 -2.2607  0.0069
10369TIP3    H252523   1.132   5.976  14.300  1.1501 -0.5926  0.4100
10370TIP3   OH252524   3.975   5.211  10.354  0.1632 -0.5027  0.4532
10370TIP3    H152525   4.025   5.169  10.424  0.4056 -1.8557 -0.4894
10370TIP3    H252526   3.983   5.151  10.279 -1.0498  0.3265 -0.3844
10371TIP3   OH252527   4.578   0.506   2.851 -0.6738 -0.0667 -0.1307
10371TIP3    H152528   4.534   0.425   2.877 -0.0183 -0.4198 -0.0988
10371TIP3    H252529   4.645   0.520   2.918 -0.8656  0.5806 -0.0620
10372TIP3   OH252530   2.383   4.403  13.557 -0.2511 -0.5228  0.3124
10372TIP3    H152531   2.307   4.355  13.591 -0.9993 -0.2861 -0.9627
10372TIP3    H252532   2.383   4.384  13.463  0.6192  0.3791  0.1181
10373TIP3   OH252533   0.865   3.542  12.773 -0.1683 -0.1033  0.5145
10373TIP3    H152534   0.915   3.623  12.767  0.9268 -0.7897  0.2188
10373TIP3    H252535   0.813   3.552  12.853  1.1114  0.2692  1.3302
10374TIP3   OH252536   3.161   6.208   3.390 -0.3394 -0.2252  0.3054
10374TIP3    H152537   3.184   6.220   3.298  0.4204 -0.3201  0.4774
10374TIP3    H252538   3.072   6.245   3.397 -0.0731  0.5610 -0.2761
10375TIP3   OH252539   4.643   5.815  17.121  0.2204  0.0424  0.1249
10375TIP3    H152540   4.559   5.862  17.125  0.5841  0.6339  1.0153
10375TIP3    H252541   4.702   5.875  17.075  0.6585  0.4342  1.1742
10376TIP3   OH252542   0.469   1.916   2.149  0.1672  0.1178 -0.5307
10376TIP3    H152543   0.542   1.855   2.161  0.6679  1.1350  2.0819
10376TIP3    H252544   0.508   2.003   2.160 -1.6342  0.6418  2.9057
10377TIP3   OH252545   6.467   4.582  15.743 -0.1259  0.1079  0.2208
10377TIP3    H152546   6.525   4.567  15.669  1.2340 -0.8357  1.4186
10377TIP3    H252547   6.520   4.563  15.820 -1.4862  1.0506  1.4626
10378TIP3   OH252548   2.704   5.533   1.130 -0.2266  0.1195  0.3188
10378TIP3    H152549   2.741   5.601   1.186 -1.1660  0.5787  0.4158
10378TIP3    H252550   2.719   5.565   1.041  1.6872 -0.8375  0.2606
10379TIP3   OH252551   3.834   3.568  15.741 -0.0451  0.1926 -0.7173
10379TIP3    H152552   3.823   3.482  15.782 -0.9329 -0.0502 -1.4253
10379TIP3    H252553   3.836   3.629  15.815  0.6859 -0.4304 -0.2019
10380TIP3   OH252554   4.920   0.768   4.314 -0.3093  0.4393  0.0435
10380TIP3    H152555   4.986   0.768   4.245 -1.6780  1.2350 -1.3233
10380TIP3    H252556   4.934   0.851   4.359  1.1042 -0.4309  1.3012
10381TIP3   OH252557   0.627   4.576   1.715 -0.0486 -0.3513 -0.1330
10381TIP3    H152558   0.625   4.630   1.794  0.3443 -2.1554  1.1528
10381TIP3    H252559   0.705   4.607   1.668 -0.4894  0.9857 -0.0444
10382TIP3   OH252560   3.629   1.731   3.853  0.9068 -0.1943 -0.0072
10382TIP3    H152561   3.544   1.701   3.885  0.7241  1.6182  1.3464
10382TIP3    H252562   3.687   1.656   3.868 -0.0185 -0.7426  1.0165
10383TIP3   OH252563   0.256   2.279   4.103 -0.1703  0.2704 -0.0028
10383TIP3    H152564   0.169   2.240   4.106 -0.0525  0.0488  2.1705
10383TIP3    H252565   0.272   2.309   4.192  1.7611  0.8154 -0.4827
10384TIP3   OH252566   2.296   4.357  11.844 -0.9915  0.0457  0.0469
10384TIP3    H152567   2.322   4.305  11.920 -0.6376  0.2622  0.0774
10384TIP3    H252568   2.258   4.294  11.783 -3.0974  0.1270  1.1854
10385TIP3   OH252569   6.566   4.398  13.433 -0.2206 -0.3661  0.0093
10385TIP3    H152570   6.556   4.484  13.473  0.4754 -0.3870  0.2336
10385TIP3    H252571   6.499   4.396  13.364 -0.1373  0.4089 -0.1032
10386TIP3   OH252572   2.996   6.674  15.401  0.0989 -0.3713  0.1282
10386TIP3    H152573   3.039   6.759  15.413 -0.1588  0.0348 -1.5790
10386TIP3    H252574   2.917   6.694  15.351 -0.1099 -1.6006 -0.0612
10387TIP3   OH252575   0.889   2.345   2.884  0.3583  0.3214  0.4569
10387TIP3    H152576   0.955   2.322   2.818 -0.1919  0.6266 -0.2130
10387TIP3    H252577   0.891   2.441   2.888  0.0882  0.3252  0.5656
10388TIP3   OH252578   1.899   3.375  15.531 -0.2704 -0.2287  0.0505
10388TIP3    H152579   1.828   3.424  15.573  0.8009  0.2248  1.4277
10388TIP3    H252580   1.935   3.435  15.466 -1.2075 -0.5057 -0.7379
10389TIP3   OH252581   3.468   1.664   1.966  0.3930  0.0201  0.0074
10389TIP3    H152582   3.461   1.582   1.918  1.6377  0.5264 -1.0750
10389TIP3    H252583   3.553   1.700   1.942 -0.3599  1.9186 -0.0142
10390TIP3   OH252584   2.664   2.862   0.265  0.1601 -0.2170  0.0115
10390TIP3    H152585   2.609   2.929   0.225 -0.5244 -1.0776 -0.5204
10390TIP3    H252586   2.602   2.798   0.300  0.8082 -0.8344  0.0511
10391TIP3   OH252587   4.304   5.371  14.683  1.0444 -0.0277  1.0272
10391TIP3    H152588   4.302   5.453  14.732  1.7336  0.5709  0.0813
10391TIP3    H252589   4.265   5.392  14.598 -0.6180 -1.1772  1.4469
10392TIP3   OH252590   1.733   2.534  13.499 -0.8676 -0.5571  0.1816
10392TIP3    H152591   1.644   2.552  13.470 -0.7692 -0.1519  0.1135
10392TIP3    H252592   1.771   2.480  13.430 -1.2528 -1.2497  0.5106
10393TIP3   OH252593   0.403   5.633   2.915  0.4348  0.2439 -0.1403
10393TIP3    H152594   0.460   5.560   2.892  1.1173  0.6130  0.3366
10393TIP3    H252595   0.348   5.600   2.986 -0.4408 -0.3321 -1.0646
10394TIP3   OH252596   0.209   4.945   0.153 -0.4759  0.1003  0.4716
10394TIP3    H152597   0.181   4.893   0.079 -0.5299  1.8526 -0.7930
10394TIP3    H252598   0.302   4.963   0.136 -0.3792  0.1910  1.0515
10395TIP3   OH252599   3.654   3.750  16.079  0.4994 -0.4011  0.4599
10395TIP3    H152600   3.629   3.689  16.010  0.4491  0.5583 -0.4080
10395TIP3    H252601   3.640   3.702  16.160 -1.4835 -0.8694 -0.0904
10396TIP3   OH252602   3.249   3.142  15.431  0.1233 -0.0492 -0.2185
10396TIP3    H152603   3.187   3.168  15.498  0.1942 -1.0555  0.2611
10396TIP3    H252604   3.332   3.180  15.460  0.0875 -0.2050  0.0990
10397TIP3   OH252605   2.496   3.622  16.689  0.2227  0.3465 -0.1703
10397TIP3    H152606   2.444   3.580  16.757 -1.1078 -1.1184 -1.9825
10397TIP3    H252607   2.582   3.633  16.728 -0.3784 -0.8191  1.6056
10398TIP3   OH252608   3.909   2.240  16.341 -0.1723  0.1551 -0.2293
10398TIP3    H152609   3.926   2.303  16.411 -1.1494  0.3193 -0.1259
10398TIP3    H252610   3.929   2.155  16.380 -0.9174  0.2272  0.3289
10399TIP3   OH252611   5.971   6.156  12.800 -0.2876  0.2260  0.0729
10399TIP3    H152612   5.961   6.251  12.801  0.9250  0.4094  2.6432
10399TIP3    H252613   6.064   6.142  12.786 -0.4769 -0.6079 -0.4039
10400TIP3   OH252614   6.123   4.220   0.965  0.4562  0.1114 -0.0239
10400TIP3    H152615   6.102   4.155   1.031  3.9132 -0.5552  0.6019
10400TIP3    H252616   6.116   4.173   0.882  2.0952 -0.9127  0.3699
10401TIP3   OH252617   5.530   3.193  14.493  0.4320 -0.1380 -0.0301
10401TIP3    H152618   5.585   3.271  14.498  0.7134 -0.4393  2.1221
10401TIP3    H252619   5.567   3.143  14.419  1.0298  1.1430 -0.6314
10402TIP3   OH252620   3.783   2.685   0.661 -0.5525 -0.1699 -0.2545
10402TIP3    H152621   3.699   2.647   0.634 -0.9133 -0.2680  0.9478
10402TIP3    H252622   3.765   2.725   0.746 -0.3517  3.2915 -1.6732
10403TIP3   OH252623   3.590   1.349  12.827  0.4937 -0.4415 -0.2784
10403TIP3    H152624   3.507   1.315  12.860 -0.9492  1.0962 -2.1447
10403TIP3    H252625   3.635   1.381  12.905 -0.3328 -1.8781  0.8454
10404TIP3   OH252626   6.054   0.384  12.792  1.0773  0.0132  0.0396
10404TIP3    H152627   6.110   0.394  12.869  1.7806  2.7993 -0.7340
10404TIP3    H252628   6.093   0.442  12.727 -0.5185 -0.9401 -1.8500
10405TIP3   OH252629   3.853   1.437   1.163  0.3278  0.4824  0.3488
10405TIP3    H152630   3.855   1.532   1.168 -0.2912  0.6201 -1.3614
10405TIP3    H252631   3.775   1.417   1.112  0.2753 -0.9711  0.9378
10406TIP3   OH252632   4.461   3.273  12.324  0.1404  0.0462 -0.1517
10406TIP3    H152633   4.525   3.235  12.385 -0.2067  0.2816  0.3701
10406TIP3    H252634   4.390   3.209  12.321 -0.1583  0.3578  0.2351
10407TIP3   OH252635   5.176   2.820   4.181  0.4367  0.2896  0.1023
10407TIP3    H152636   5.177   2.879   4.106  1.3063  0.4018  0.1952
10407TIP3    H252637   5.087   2.785   4.183  0.2852  0.6159 -0.7181
10408TIP3   OH252638   1.389   3.602  10.438 -0.0422 -1.0775 -0.1893
10408TIP3    H152639   1.423   3.523  10.397 -0.3409 -1.2856 -0.0379
10408TIP3    H252640   1.329   3.639  10.373  1.6324  0.1530 -1.1245
10409TIP3   OH252641   0.780   4.389  11.469  0.6344  0.1386  0.4160
10409TIP3    H152642   0.765   4.432  11.384  1.1928  1.0464  0.7614
10409TIP3    H252643   0.714   4.321  11.473  1.0134 -0.3534 -1.0499
10410TIP3   OH252644   2.849   3.936   4.957  0.2827  0.3163 -0.1016
10410TIP3    H152645   2.796   4.013   4.979  1.4301  0.7683  1.2744
10410TIP3    H252646   2.866   3.894   5.041 -0.4075 -1.5417 -0.8390
10411TIP3   OH252647   0.551   0.579  11.287  0.1380 -0.2916 -0.6625
10411TIP3    H152648   0.592   0.568  11.201  2.1516 -0.5968  0.2720
10411TIP3    H252649   0.477   0.519  11.286  0.0461 -0.2003 -2.2130
10412TIP3   OH252650   4.039   5.809   4.341  0.3876 -0.1146 -0.0137
10412TIP3    H152651   4.006   5.897   4.323  0.6032 -0.0191  0.0585
10412TIP3    H252652   3.980   5.775   4.409 -0.4934 -0.5155 -0.9413
10413TIP3   OH252653   1.491   4.344  16.663  0.2226  0.3672 -0.6247
10413TIP3    H152654   1.447   4.322  16.581  0.1606 -1.4895 -0.1237
10413TIP3    H252655   1.429   4.321  16.731  0.2261  2.0251 -0.0190
10414TIP3   OH252656   2.972   4.761  13.417  0.3244 -0.6479 -0.1907
10414TIP3    H152657   2.952   4.853  13.397 -0.8592 -0.8050  0.2310
10414TIP3    H252658   2.966   4.755  13.512 -2.3785 -1.7520 -0.3536
10415TIP3   OH252659   2.017   2.158   4.646  0.6831  0.7047 -0.3661
10415TIP3    H152660   2.028   2.121   4.559 -0.6566 -1.2380  0.2106
10415TIP3    H252661   2.061   2.095   4.704 -0.5428  0.6529  0.5518
10416TIP3   OH252662   6.597   5.336   4.171 -0.3944 -0.5716 -0.1259
10416TIP3    H152663   6.650   5.272   4.124  1.5589  0.9628 -0.1333
10416TIP3    H252664   6.643   5.348   4.254  0.2852  1.9826 -0.7769
10417TIP3   OH252665   0.458   3.201  13.300 -0.1259 -0.1253 -0.5582
10417TIP3    H152666   0.451   3.106  13.287 -0.8507 -0.2929  0.9372
10417TIP3    H252667   0.527   3.228  13.239  0.0581 -1.5978 -1.0408
10418TIP3   OH252668   4.310   0.991   1.150 -0.0335  0.4724  0.6112
10418TIP3    H152669   4.306   1.086   1.160 -1.3220  0.6310 -0.9251
10418TIP3    H252670   4.230   0.959   1.192  0.7606 -0.0316  1.7847
10419TIP3   OH252671   3.935   1.842   6.402 -0.3628 -0.0363  0.2448
10419TIP3    H152672   3.878   1.915   6.427  0.1830  0.4344  0.1447
10419TIP3    H252673   3.981   1.818   6.482  0.5708  0.7426 -0.0312
10420TIP3   OH252674   6.718   5.690   0.115 -0.0753  0.8144 -0.1286
10420TIP3    H152675   6.746   5.609   0.073  3.5030  2.7775 -2.0372
10420TIP3    H252676   6.637   5.715   0.069  1.1089  0.4088 -2.6050
10421TIP3   OH252677   1.607   5.609   0.505  0.2544 -0.3743 -0.2973
10421TIP3    H152678   1.658   5.533   0.479 -0.1879 -0.4648 -0.9166
10421TIP3    H252679   1.609   5.607   0.601  2.3673  0.2781 -0.2694
10422TIP3   OH252680   2.109   0.792  17.032 -0.4643  0.0701 -0.4222
10422TIP3    H152681   2.160   0.803  17.113 -1.0233 -2.0624  0.2824
10422TIP3    H252682   2.024   0.830  17.052 -1.0779 -1.7137  0.5537
10423TIP3   OH252683   2.523   0.775  15.147  0.7114  0.0503  0.1071
10423TIP3    H152684   2.502   0.808  15.234  0.5007  0.5467 -0.1275
10423TIP3    H252685   2.612   0.807  15.130  0.4172  0.7306 -0.2190
10424TIP3   OH252686   2.202   0.598  16.254 -0.5955  0.0884  0.3687
10424TIP3    H152687   2.276   0.640  16.210 -0.3848 -0.2768  0.3648
10424TIP3    H252688   2.175   0.660  16.321 -2.0809  1.4813 -1.4074
10425TIP3   OH252689   0.439   3.953   2.462  0.0073 -0.3563 -0.4916
10425TIP3    H152690   0.422   4.041   2.495 -2.2283 -0.1720 -1.9544
10425TIP3    H252691   0.441   3.898   2.540 -0.3084  0.7490  0.3132
10426TIP3   OH252692   3.391   1.604  17.149 -0.6570 -0.2981  0.1224
10426TIP3    H152693   3.407   1.595  17.243 -1.0318  2.5173  0.5432
10426TIP3    H252694   3.298   1.624  17.142 -0.6493 -0.5560 -0.8677
10427TIP3   OH252695   1.694   3.655  15.307  0.8476  0.0304 -0.4388
10427TIP3    H152696   1.627   3.630  15.371 -0.1876  0.3162 -1.3697
10427TIP3    H252697   1.650   3.719  15.251  2.7324  2.3630  0.5622
10428TIP3   OH252698   5.954   2.295  16.249 -0.7380  0.3912  0.3852
10428TIP3    H152699   5.881   2.237  16.231 -0.9978  1.0126 -0.6880
10428TIP3    H252700   5.918   2.383  16.237  0.0221  0.7208  0.4722
10429TIP3   OH252701   4.384   2.849  15.797 -0.6027  0.1083 -0.1335
10429TIP3    H152702   4.369   2.928  15.849  1.0450  0.5388 -0.2406
10429TIP3    H252703   4.476   2.828  15.812 -0.8903 -1.5577 -0.4581
10430TIP3   OH252704   1.328   0.144   5.602 -0.0305 -0.5545 -0.1924
10430TIP3    H152705   1.350   0.231   5.637 -0.1336 -0.4004 -0.5095
10430TIP3    H252706   1.259   0.161   5.538  0.6802 -0.7495 -1.0204
10431TIP3   OH252707   0.455   6.460   2.625 -0.0768  0.2467  0.0395
10431TIP3    H152708   0.521   6.486   2.689 -1.8584  1.9304  1.3280
10431TIP3    H252709   0.465   6.523   2.554 -1.3694  1.6928  1.0575
10432TIP3   OH252710   3.158   3.097   4.304  0.4418 -0.6058  0.4840
10432TIP3    H152711   3.171   3.052   4.220 -1.9181  1.6293 -1.2376
10432TIP3    H252712   3.085   3.050   4.345  0.8561 -1.0014  0.7801
10433TIP3   OH252713   2.872   4.136   6.445 -0.1670  0.5185 -0.5078
10433TIP3    H152714   2.942   4.072   6.457  0.5234  1.5161  1.3026
10433TIP3    H252715   2.812   4.096   6.383  0.5070 -1.6317  0.1554
10434TIP3   OH252716   4.411   6.599   2.815  0.0394 -0.1238 -0.2656
10434TIP3    H152717   4.380   6.525   2.763  0.8998  0.1068 -1.1305
10434TIP3    H252718   4.505   6.603   2.799 -0.0536  1.4243 -0.5948
10435TIP3   OH252719   6.609   2.487   2.653 -0.0675 -0.3677 -0.0381
10435TIP3    H152720   6.519   2.455   2.640 -0.7384  1.2290  0.4979
10435TIP3    H252721   6.600   2.582   2.657  1.7379 -0.1476 -0.5485
10436TIP3   OH252722   6.135   3.937  10.333 -0.0249 -0.2128 -0.3467
10436TIP3    H152723   6.064   4.000  10.342  0.8485  0.6493  0.8565
10436TIP3    H252724   6.096   3.863  10.287 -1.7505  0.1642  0.4269
10437TIP3   OH252725   4.684   5.500   4.699  0.2745 -0.1081 -0.4239
10437TIP3    H152726   4.712   5.420   4.655 -1.7136 -0.7664 -0.5630
10437TIP3    H252727   4.621   5.471   4.765  1.1859  1.1357  1.0719
10438TIP3   OH252728   2.819   5.104  13.748  0.2515 -0.3433 -0.4682
10438TIP3    H152729   2.850   5.190  13.775 -0.6719  0.2471 -1.2363
10438TIP3    H252730   2.897   5.059  13.716  0.5826  0.5631 -0.9768
10439TIP3   OH252731   4.931   6.030   4.214 -0.0478  0.0225 -0.0813
10439TIP3    H152732   4.997   6.099   4.222 -0.3180  0.2776 -0.0362
10439TIP3    H252733   4.865   6.067   4.155  0.7843 -0.9491 -1.7089
10440TIP3   OH252734   5.550   5.152  11.988  0.2208  0.0553  0.2114
10440TIP3    H152735   5.612   5.224  12.001 -0.2120  0.3543  0.6315
10440TIP3    H252736   5.478   5.191  11.938 -0.5802  0.2262  1.4746
10441TIP3   OH252737   2.269   1.269   0.551 -0.5453  0.5415  0.3162
10441TIP3    H152738   2.218   1.283   0.471  0.1793 -0.7950 -0.4217
10441TIP3    H252739   2.204   1.272   0.621 -1.9330 -2.1457 -0.6685
10442TIP3   OH252740   4.423   6.379   0.915  0.3818 -0.3752 -0.4062
10442TIP3    H152741   4.438   6.301   0.968  1.4061 -0.2122 -0.4473
10442TIP3    H252742   4.472   6.363   0.834 -0.1056 -0.0582 -0.7702
10443TIP3   OH252743   1.488   5.415   1.813 -0.2232 -0.3387  0.4559
10443TIP3    H152744   1.473   5.437   1.721  1.2204 -0.8470  0.0750
10443TIP3    H252745   1.440   5.333   1.827  0.3560 -0.7847 -0.1276
10444TIP3   OH252746   5.796   6.195  16.733  0.2782  0.0411  0.3481
10444TIP3    H152747   5.846   6.275  16.748  0.1325  0.1291  0.3675
10444TIP3    H252748   5.710   6.213  16.771  1.1188 -1.1998  3.1425
10445TIP3   OH252749   5.077   2.285   1.799 -0.3213  0.0283  0.5687
10445TIP3    H152750   5.019   2.259   1.871  0.9685 -0.2949  1.5326
10445TIP3    H252751   5.165   2.274   1.834  0.3860 -1.0341 -1.3766
10446TIP3   OH252752   4.724   3.148  12.094  0.2207  0.0465 -0.7452
10446TIP3    H152753   4.674   3.093  12.155  0.0482  0.5748 -0.4025
10446TIP3    H252754   4.749   3.225  12.146  2.5541 -0.7957 -0.5033
10447TIP3   OH252755   4.705   2.370   1.356  0.2445 -1.2184 -0.0483
10447TIP3    H152756   4.621   2.416   1.361  0.2695 -1.2711  1.9128
10447TIP3    H252757   4.683   2.283   1.323 -0.0107 -0.3498 -2.3490
10448TIP3   OH252758   4.914   5.994  14.796  0.0332 -0.2396 -0.4376
10448TIP3    H152759   4.825   5.993  14.761 -0.5727  0.0060  1.0064
10448TIP3    H252760   4.908   6.047  14.875  1.1972 -1.2158  0.3473
10449TIP3   OH252761   0.220   2.542  12.112 -0.8381 -0.0497  0.4695
10449TIP3    H152762   0.153   2.477  12.130 -0.5611 -1.2198 -2.3471
10449TIP3    H252763   0.179   2.603  12.052  0.2798 -0.1783 -0.4553
10450TIP3   OH252764   6.195   5.647  11.233 -0.1005 -0.4180 -0.5887
10450TIP3    H152765   6.260   5.588  11.272  0.9058  2.4055  2.5571
10450TIP3    H252766   6.112   5.602  11.247  0.7247 -1.7577  0.3610
10451TIP3   OH252767   2.367   3.910   4.438  0.1513  0.4458 -0.1498
10451TIP3    H152768   2.380   3.973   4.367  0.7146  0.0006 -0.4523
10451TIP3    H252769   2.272   3.901   4.446  0.0345 -1.2844 -2.4589
10452TIP3   OH252770   2.659   3.094  13.290 -0.1121 -0.4742  0.0205
10452TIP3    H152771   2.593   3.162  13.281 -0.6350 -0.5605  2.5027
10452TIP3    H252772   2.743   3.141  13.288 -0.4904  0.4230  2.4633
10453TIP3   OH252773   0.821   3.130   1.786  0.0824  1.0383  0.0728
10453TIP3    H152774   0.818   3.160   1.877 -0.6660  0.3680  0.2846
10453TIP3    H252775   0.783   3.202   1.735 -1.8718  0.4388  0.5925
10454TIP3   OH252776   5.102   2.893  15.482  0.3835  0.3265 -0.1202
10454TIP3    H152777   5.056   2.946  15.417  0.9629 -0.0265 -0.8266
10454TIP3    H252778   5.134   2.818  15.433  2.5695  1.0275  0.1501
10455TIP3   OH252779   4.058   2.920   1.024  0.8365 -0.1438  0.2091
10455TIP3    H152780   4.116   2.921   1.101 -0.2067  0.4334  1.0103
10455TIP3    H252781   4.028   3.011   1.017  0.6913 -0.2574 -0.7209
10456TIP3   OH252782   2.793   1.189   4.735 -0.4228 -0.1669  0.3469
10456TIP3    H152783   2.761   1.228   4.654 -1.2359 -1.6825 -0.0983
10456TIP3    H252784   2.866   1.134   4.708  1.1109  1.4395  1.0468
10457TIP3   OH252785   5.747   3.964  12.056 -0.2577  0.2609 -0.3478
10457TIP3    H152786   5.804   4.012  12.116 -0.1880  0.1096 -0.2930
10457TIP3    H252787   5.799   3.889  12.027 -0.3003  0.3193 -0.5794
10458TIP3   OH252788   1.731   3.067  15.065  0.5583  0.0146  0.5071
10458TIP3    H152789   1.736   2.980  15.024 -2.0172 -0.8853  1.9115
10458TIP3    H252790   1.783   3.123  15.007 -1.4173 -1.5018 -3.0489
10459TIP3   OH252791   6.729   4.363   3.175  0.3174  0.0558  0.3862
10459TIP3    H152792   6.803   4.314   3.212  0.6935  0.4025  0.1084
10459TIP3    H252793   6.671   4.296   3.139  0.5962 -0.2102  0.4270
10460TIP3   OH252794   4.348   5.857   5.409 -0.6041  0.0190 -0.6927
10460TIP3    H152795   4.345   5.815   5.495  0.1205  0.5368 -0.3945
10460TIP3    H252796   4.371   5.948   5.428  4.9969 -0.8243 -1.6076
10461TIP3   OH252797   0.589   5.539   3.486  0.0562 -0.3519 -0.5475
10461TIP3    H152798   0.574   5.466   3.427  0.4834 -0.0168 -1.0827
10461TIP3    H252799   0.681   5.531   3.512 -0.4946 -1.3377  1.2518
10462TIP3   OH252800   1.340   3.074  13.922  1.0383 -0.0052  0.1960
10462TIP3    H152801   1.268   3.027  13.964 -0.5844  1.5047 -0.7371
10462TIP3    H252802   1.363   3.144  13.983 -0.6644  1.5911 -0.8685
10463TIP3   OH252803   3.239   4.442   4.610  0.2917 -1.1126 -0.7147
10463TIP3    H152804   3.239   4.428   4.515 -2.5813 -2.2766 -0.6598
10463TIP3    H252805   3.247   4.354   4.648  2.0734 -0.6041  0.1773
10464TIP3   OH252806   5.626   3.668   3.986 -0.2745  0.3886 -0.0013
10464TIP3    H152807   5.694   3.683   4.052  0.4837  3.2454 -1.2821
10464TIP3    H252808   5.647   3.582   3.950  1.6967  0.4916  0.7541
10465TIP3   OH252809   2.279   1.451   4.514 -0.7692  0.1788 -0.0036
10465TIP3    H152810   2.217   1.406   4.571 -1.1312  0.5548 -0.1003
10465TIP3    H252811   2.295   1.535   4.556 -1.2273  0.5568 -0.5762
10466TIP3   OH252812   6.558   5.585  12.398  0.0571  0.5134  0.3449
10466TIP3    H152813   6.644   5.601  12.360 -0.6389 -1.6881 -2.4290
10466TIP3    H252814   6.510   5.666  12.382  0.8934  0.9124 -0.2299
10467TIP3   OH252815   4.406   0.433  12.703 -0.4849  0.2117 -0.2740
10467TIP3    H152816   4.450   0.518  12.696 -0.2991  0.2472  1.1065
10467TIP3    H252817   4.405   0.400  12.613  1.0827  0.8539 -0.5676
10468TIP3   OH252818   3.010   6.697   5.990 -0.2716 -0.0313 -0.9963
10468TIP3    H152819   3.054   6.767   6.038 -1.5628  0.4172 -0.4278
10468TIP3    H252820   3.041   6.616   6.032 -1.3690  0.3481  0.6482
10469TIP3   OH252821   6.031   3.601  13.987 -0.5023  0.6495  0.3558
10469TIP3    H152822   6.032   3.639  13.899  2.1575 -1.3041 -0.6097
10469TIP3    H252823   5.982   3.519  13.977 -0.2036  0.4277  0.6737
10470TIP3   OH252824   1.167   6.753   0.008  0.1393  0.1700 -0.6638
10470TIP3    H152825   1.102   6.761  -0.062  1.4748 -0.5907 -2.0465
10470TIP3    H252826   1.153   6.831   0.062 -1.8990  0.0309 -0.9017
10471TIP3   OH252827   0.727   1.477   3.373 -0.4429  0.2347 -0.0132
10471TIP3    H152828   0.720   1.542   3.303  0.2406  1.0763  0.6835
10471TIP3    H252829   0.636   1.463   3.401 -1.1733 -2.3947 -3.0255
10472TIP3   OH252830   0.232   1.217  13.452 -0.0276 -0.7372 -0.0765
10472TIP3    H152831   0.258   1.307  13.435  0.2095 -0.3634  1.9728
10472TIP3    H252832   0.266   1.198  13.540 -2.4889 -1.8452  0.7508
10473TIP3   OH252833   3.380   5.810   1.630  0.6529  0.0287  0.0557
10473TIP3    H152834   3.319   5.816   1.557 -0.9320  0.7958  1.3617
10473TIP3    H252835   3.324   5.804   1.708  2.2596  0.0429  1.2803
10474TIP3   OH252836   2.135   4.928  12.270 -0.3196  0.2377  0.2538
10474TIP3    H152837   2.115   4.946  12.361  0.7730  0.5891  0.4365
10474TIP3    H252838   2.227   4.953  12.260 -0.4766  0.3815 -0.9891
10475TIP3   OH252839   3.792   5.417   2.612  0.0898  0.2162 -0.0978
10475TIP3    H152840   3.809   5.323   2.615  0.1478  0.2500  1.1166
10475TIP3    H252841   3.775   5.441   2.703 -2.1653  0.9686 -0.6476
10476TIP3   OH252842   3.336   4.740   3.066  1.1433 -0.0803  0.3514
10476TIP3    H152843   3.391   4.802   3.114  1.4967  0.7464 -1.0639
10476TIP3    H252844   3.353   4.759   2.973  0.6949 -1.8016 -0.1298
10477TIP3   OH252845   5.744   5.919   2.178 -0.8570  0.8344 -0.1385
10477TIP3    H152846   5.763   6.008   2.205 -3.7302  2.1266 -1.8859
10477TIP3    H252847   5.815   5.896   2.118  1.5328  0.7050  2.5852
10478TIP3   OH252848   4.804   5.889  15.353  0.2233 -0.8597 -0.9247
10478TIP3    H152849   4.752   5.810  15.336  0.3442 -1.6917  1.9538
10478TIP3    H252850   4.886   5.856  15.390  1.0156  0.5838 -1.3156
10479TIP3   OH252851   6.030   1.869  16.704 -0.2621 -0.3050 -0.1487
10479TIP3    H152852   6.082   1.888  16.783 -0.4980  1.1309 -0.3157
10479TIP3    H252853   6.083   1.902  16.632 -1.6582  1.8744 -0.2669
10480TIP3   OH252854   6.535   5.634   5.427  0.1658 -0.0863  0.3449
10480TIP3    H152855   6.608   5.578   5.454  0.7992  0.7951  0.4915
10480TIP3    H252856   6.576   5.717   5.403 -0.8343  0.5538  0.8137
10481TIP3   OH252857   3.546   2.126  16.538 -0.7271 -0.1553 -0.2292
10481TIP3    H152858   3.619   2.174  16.500 -0.1168  0.0096  1.0989
10481TIP3    H252859   3.509   2.187  16.602 -1.7891 -0.3870 -0.6012
10482TIP3   OH252860   2.243   0.426  15.432 -0.2664 -0.2261 -0.5103
10482TIP3    H152861   2.197   0.343  15.442 -0.5150  0.0224  0.6484
10482TIP3    H252862   2.177   0.493  15.451  0.0921  0.2086 -0.7675
10483TIP3   OH252863   2.248   5.450   3.222  0.0520  0.0143  0.1809
10483TIP3    H152864   2.333   5.473   3.259 -0.3581  0.2197  1.0093
10483TIP3    H252865   2.248   5.354   3.223  0.0340  0.0153  0.7535
10484TIP3   OH252866   3.583   0.695  13.227  0.2411 -1.1058  0.1904
10484TIP3    H152867   3.671   0.687  13.265  0.7846 -0.8023 -0.9410
10484TIP3    H252868   3.579   0.785  13.195 -0.5764 -1.0557  0.4253
10485TIP3   OH252869   2.718   2.916   5.516  0.2657  0.3997 -0.2927
10485TIP3    H152870   2.663   2.870   5.453  0.8885  1.6427 -1.8168
10485TIP3    H252871   2.706   3.009   5.495  1.0521  0.8038  0.9525
10486TIP3   OH252872   4.376   1.140  13.037  0.0268  0.4723 -0.3434
10486TIP3    H152873   4.397   1.051  13.065  0.7701  0.6625 -0.2916
10486TIP3    H252874   4.320   1.174  13.106  0.9881  0.5756  0.4027
10487TIP3   OH252875   2.901   2.427   4.845  0.7307 -0.1468 -0.3353
10487TIP3    H152876   2.928   2.341   4.813 -1.9852 -1.8634  1.5638
10487TIP3    H252877   2.856   2.467   4.770 -0.7292 -1.7693 -0.3942
10488TIP3   OH252878   5.927   3.073   1.330  0.2080 -0.3164 -0.1912
10488TIP3    H152879   5.843   3.116   1.318 -0.8495 -1.2429  3.0273
10488TIP3    H252880   5.985   3.142   1.362 -0.5347 -0.4951  1.6288
10489TIP3   OH252881   5.797   0.490   0.295 -0.0779  0.3713  0.1102
10489TIP3    H152882   5.746   0.559   0.251 -1.6221 -0.4715  0.5175
10489TIP3    H252883   5.789   0.511   0.388 -1.4533 -0.9028  0.3162
10490TIP3   OH252884   5.590   4.516   3.348 -0.5201 -0.1843 -0.4635
10490TIP3    H152885   5.636   4.518   3.264 -0.5404 -3.1527 -0.6334
10490TIP3    H252886   5.644   4.461   3.404 -2.1712 -1.0184  0.3788
10491TIP3   OH252887   4.272   1.750   1.759  0.0774  0.1728 -0.2618
10491TIP3    H152888   4.187   1.781   1.730 -0.7945  0.9899  2.8230
10491TIP3    H252889   4.262   1.655   1.769 -0.2964  0.1916 -0.4865
10492TIP3   OH252890   3.539   2.599   1.604 -0.2907  0.2594  0.6662
10492TIP3    H152891   3.527   2.679   1.554 -1.7083  0.3152  1.0661
10492TIP3    H252892   3.510   2.621   1.693 -1.3141 -0.8543  0.6291
10493TIP3   OH252893   3.139   3.877   5.272  0.0454 -0.1871 -0.5683
10493TIP3    H152894   3.188   3.894   5.352 -1.9697 -1.7894  1.1154
10493TIP3    H252895   3.178   3.798   5.235 -1.0249 -1.3468  0.6622
10494TIP3   OH252896   4.100   4.484  13.604 -0.2037  0.2333 -0.7779
10494TIP3    H152897   4.093   4.419  13.674  0.8651  0.2408 -0.6407
10494TIP3    H252898   4.024   4.469  13.549 -0.0737 -1.0197 -0.6419
10495TIP3   OH252899   6.203   2.771  16.895 -0.2534 -0.2523  0.4279
10495TIP3    H152900   6.260   2.715  16.842 -1.0519  0.4923 -1.2896
10495TIP3    H252901   6.245   2.857  16.893 -1.9093  0.5678 -1.7434
10496TIP3   OH252902   3.818   1.497  14.664  0.1200 -0.5525 -0.1837
10496TIP3    H152903   3.765   1.493  14.584 -1.2488  0.0971  0.6533
10496TIP3    H252904   3.898   1.543  14.637 -0.3714 -0.2348 -1.1555
10497TIP3   OH252905   0.912   3.818  16.443 -0.1686  0.6611 -1.0469
10497TIP3    H152906   0.841   3.851  16.388 -0.0802  1.5075 -0.6762
10497TIP3    H252907   0.869   3.756  16.503 -0.2388 -0.3737 -2.1438
10498TIP3   OH252908   1.496   5.551  14.497 -0.3477  0.1182 -0.2188
10498TIP3    H152909   1.424   5.491  14.479 -1.6981  1.6863 -0.2793
10498TIP3    H252910   1.457   5.638  14.493  1.2575  0.9711  1.1305
10499TIP3   OH252911   0.579   5.563  10.741 -0.1419  0.2378  0.1355
10499TIP3    H152912   0.671   5.570  10.716  0.1052  0.9026  1.1566
10499TIP3    H252913   0.549   5.654  10.746 -1.2466  0.0125 -1.4934
10500TIP3   OH252914   0.270   3.857  15.865  0.3164 -0.1606  0.2550
10500TIP3    H152915   0.293   3.878  15.955 -1.7424 -2.0309  1.2973
10500TIP3    H252916   0.204   3.789  15.872  0.1513 -0.4300 -2.6961
10501TIP3   OH252917   0.769   5.413   0.456 -0.0428  0.1469 -0.3345
10501TIP3    H152918   0.690   5.387   0.408  0.0002 -0.9943  0.1821
10501TIP3    H252919   0.763   5.367   0.539 -0.5078  2.7068  1.1449
10502TIP3   OH252920   2.626   6.578   4.415 -0.3362  0.4737 -0.0268
10502TIP3    H152921   2.687   6.651   4.402  0.6618 -0.5396 -1.2963
10502TIP3    H252922   2.656   6.536   4.496 -0.3108  0.8723  0.1742
10503TIP3   OH252923   3.002   6.306   4.669 -0.7608 -0.7229 -0.0673
10503TIP3    H152924   2.996   6.363   4.746  1.2749  0.7441 -0.8880
10503TIP3    H252925   3.043   6.226   4.702 -1.0618 -0.6186  0.5859
10504TIP3   OH252926   1.448   0.793  14.844  0.1309 -0.8031  0.6842
10504TIP3    H152927   1.371   0.819  14.793  2.7512  1.0066 -2.7255
10504TIP3    H252928   1.436   0.699  14.859 -2.1201 -0.8373 -0.8044
10505TIP3   OH252929   6.024   4.071   0.744 -0.5320  0.2862  0.5743
10505TIP3    H152930   6.078   4.105   0.673 -1.1574 -0.7132 -0.4164
10505TIP3    H252931   5.986   3.990   0.709 -1.0719 -0.0929  1.9524
10506TIP3   OH252932   2.075   3.984   5.742  0.2502  1.0745  0.3718
10506TIP3    H152933   2.078   4.027   5.827 -0.8314  1.7502  0.0831
10506TIP3    H252934   2.101   4.052   5.679  0.2311  0.8144  0.0776
10507TIP3   OH252935   1.286   2.271   0.654  0.5778  0.3703 -0.1587
10507TIP3    H152936   1.201   2.277   0.610  0.2147  1.2713  0.6180
10507TIP3    H252937   1.302   2.178   0.662 -0.3412  0.1850 -0.3232
10508TIP3   OH252938   3.330   3.955   3.466 -0.0808 -0.3097 -0.1401
10508TIP3    H152939   3.369   3.892   3.405  0.9339  0.7270 -0.6096
10508TIP3    H252940   3.271   4.007   3.411 -1.1887 -1.0722  0.3171
10509TIP3   OH252941   3.257   1.184   1.594  0.3403  0.4036 -0.1541
10509TIP3    H152942   3.301   1.100   1.576  2.8026  1.1316  1.8409
10509TIP3    H252943   3.234   1.217   1.508  0.3076 -1.7977 -1.0718
10510TIP3   OH252944   2.571   6.065   0.731 -0.2990  0.5406  0.3717
10510TIP3    H152945   2.573   6.154   0.765  2.1282  0.9006 -0.5072
10510TIP3    H252946   2.511   6.068   0.657  0.2673  1.6254 -0.0575
10511TIP3   OH252947   6.312   6.495   0.441  0.2474  0.7378 -0.0941
10511TIP3    H152948   6.387   6.478   0.499 -0.8217  1.1739  1.4651
10511TIP3    H252949   6.254   6.550   0.492 -0.6448  1.3539 -1.7002
10512TIP3   OH252950   4.999   5.488   3.263 -0.5919 -0.4336  0.6852
10512TIP3    H152951   4.933   5.539   3.309 -0.6355 -1.7409  2.1574
10512TIP3    H252952   4.953   5.451   3.188 -1.0870  0.0253  0.7625
10513TIP3   OH252953   1.778   4.948  11.897  0.6770  0.3205 -0.8768
10513TIP3    H152954   1.773   4.916  11.987 -0.4839  1.2540 -0.5712
10513TIP3    H252955   1.865   4.988  11.890 -0.1042  2.4922  0.6864
10514TIP3   OH252956   0.530   0.912  16.999  0.0390 -0.6026  0.0063
10514TIP3    H152957   0.610   0.939  16.955 -0.1948  1.5283  0.7917
10514TIP3    H252958   0.464   0.909  16.929  0.0624  1.0453 -0.1352
10515TIP3   OH252959   1.016   6.346   1.068  0.1220  0.7327  0.4151
10515TIP3    H152960   0.946   6.281   1.069  0.7272 -0.0226 -1.7500
10515TIP3    H252961   1.059   6.337   1.153 -1.4410  0.1675  1.1759
10516TIP3   OH252962   0.872   0.242  15.000 -0.4859 -0.3619  0.5063
10516TIP3    H152963   0.793   0.230  14.948  0.4567 -2.2834 -0.5847
10516TIP3    H252964   0.868   0.171  15.065 -0.0646  0.0453  0.9782
10517TIP3   OH252965   0.642   6.557  15.940 -0.6595  0.0740  0.1880
10517TIP3    H152966   0.591   6.611  15.999 -0.9985  0.2709 -0.2757
10517TIP3    H252967   0.716   6.526  15.992 -1.8401 -1.1249  1.1993
10518TIP3   OH252968   3.540   1.137  13.315  0.0641  0.0842  0.3909
10518TIP3    H152969   3.504   1.212  13.267  0.4966 -0.0965 -0.2398
10518TIP3    H252970   3.491   1.062  13.282  0.5903 -0.0838 -0.0243
10519TIP3   OH252971   1.320   2.452  14.390  0.0847  0.2338  0.5823
10519TIP3    H152972   1.374   2.499  14.326 -0.1295 -0.0624  0.1741
10519TIP3    H252973   1.367   2.461  14.473  1.4984 -1.1541 -0.0055
10520TIP3   OH252974   0.879   2.314   2.239  0.1617  0.0370 -0.0231
10520TIP3    H152975   0.910   2.374   2.172  0.6465 -1.1786 -0.9333
10520TIP3    H252976   0.789   2.340   2.256 -0.4935 -0.5300 -2.2688
10521TIP3   OH252977   5.678   2.067   2.419  0.3038  0.0977  0.0756
10521TIP3    H152978   5.765   2.047   2.453  0.7279  1.2614 -0.2652
10521TIP3    H252979   5.619   2.012   2.470  1.2077 -0.4566  0.5498
10522TIP3   OH252980   1.343   3.523  12.217 -0.3053  0.0593 -0.0149
10522TIP3    H152981   1.356   3.459  12.287 -0.8960 -0.3703 -0.2802
10522TIP3    H252982   1.429   3.533  12.177  0.0556  0.3884  0.8358
10523TIP3   OH252983   0.359   0.906   0.964  0.5411  0.0882  0.0219
10523TIP3    H152984   0.447   0.871   0.947  1.7859  2.3752  1.2639
10523TIP3    H252985   0.374   0.998   0.987 -2.2619  0.7107 -0.2922
10524TIP3   OH252986   3.499   1.408  13.178 -0.4443 -0.1685  0.0005
10524TIP3    H152987   3.584   1.410  13.134 -0.5620 -2.1656 -0.4124
10524TIP3    H252988   3.507   1.470  13.250  1.2090 -0.0156 -0.2907
10525TIP3   OH252989   0.623   4.018  16.936  0.7853  0.4787 -0.4275
10525TIP3    H152990   0.691   4.085  16.937  0.6304  0.6321  0.6019
10525TIP3    H252991   0.608   3.997  17.028  0.3692 -0.5068 -0.7054
10526TIP3   OH252992   2.302   1.927  13.648  0.1075 -0.3771 -0.2254
10526TIP3    H152993   2.280   1.877  13.569  0.6871 -0.3885 -0.3808
10526TIP3    H252994   2.318   1.860  13.714 -1.4938 -0.3666  0.2312
10527TIP3   OH252995   2.774   1.538   0.846 -0.1464 -0.4065  0.0742
10527TIP3    H152996   2.687   1.518   0.880 -0.3262  1.8354  1.1688
10527TIP3    H252997   2.825   1.560   0.924  0.4203  1.5344 -0.7834
10528TIP3   OH252998   0.558   6.579  16.781  0.1419  0.4895 -0.1540
10528TIP3    H152999   0.653   6.592  16.785  0.1351  0.7554 -0.7803
10528TIP3    H253000   0.526   6.614  16.864  0.5984  0.3281  0.0933
10529TIP3   OH253001   2.398   3.045   0.995  0.1210 -0.2316  0.0100
10529TIP3    H153002   2.331   3.012   1.055  0.4751 -1.6234 -0.3147
10529TIP3    H253003   2.364   3.027   0.908  0.5823 -0.2682 -0.1681
10530TIP3   OH253004   2.224   5.580   2.129 -0.4619  0.4829  0.1794
10530TIP3    H153005   2.219   5.657   2.072 -0.5989 -0.2379 -0.8136
10530TIP3    H253006   2.145   5.530   2.109  0.7323 -1.0589 -0.9087
10531TIP3   OH253007   1.626   5.550  10.609  1.1619 -0.1908 -0.0461
10531TIP3    H153008   1.573   5.592  10.676  0.5340 -0.3421 -0.4419
10531TIP3    H253009   1.660   5.622  10.556  0.3034 -0.1486 -0.5628
10532TIP3   OH253010   3.116   3.493  14.989  0.5605 -0.0733 -0.2182
10532TIP3    H153011   3.090   3.408  15.025  3.4230 -0.7678  0.5404
10532TIP3    H253012   3.048   3.554  15.018 -1.1729 -1.9449 -0.1290
10533TIP3   OH253013   2.340   4.008  16.399  0.5581  0.1510 -0.2020
10533TIP3    H153014   2.421   3.979  16.440  0.6198 -1.1979 -1.2139
10533TIP3    H253015   2.275   3.942  16.424  0.1239  0.4239 -0.5843
10534TIP3   OH253016   4.604   1.725   2.923 -0.4144  0.7547  0.3902
10534TIP3    H153017   4.531   1.723   2.861  0.4189 -2.1736 -0.6642
10534TIP3    H253018   4.682   1.736   2.869  0.1548  0.6635  1.1627
10535TIP3   OH253019   0.009   1.100  16.392  0.0816  0.3459 -0.0134
10535TIP3    H153020  -0.048   1.035  16.432  1.2395  0.3334  1.7265
10535TIP3    H253021  -0.021   1.106  16.301 -1.8609 -0.5210  0.5289
10536TIP3   OH253022   6.676   5.364   1.085  0.0719  0.0665  0.0651
10536TIP3    H153023   6.766   5.361   1.118 -0.3403 -0.6667  1.2057
10536TIP3    H253024   6.643   5.450   1.113  0.1530 -0.0135  0.4202
10537TIP3   OH253025   5.370   5.338   0.522 -0.7652 -0.1602  0.0802
10537TIP3    H153026   5.327   5.420   0.498  1.8369  0.9189 -1.3058
10537TIP3    H253027   5.408   5.355   0.608 -0.6193 -0.0784 -0.0005
10538TIP3   OH253028   5.346   4.318  16.007 -0.0548  0.0190  0.0238
10538TIP3    H153029   5.254   4.338  16.025 -0.3831 -1.3469 -0.0184
10538TIP3    H253030   5.373   4.263  16.080  0.1286 -1.2424 -0.9583
10539TIP3   OH253031   2.258   2.316   0.054  0.4500 -0.0771  0.1649
10539TIP3    H153032   2.188   2.251   0.052  0.2728  0.1395 -1.2140
10539TIP3    H253033   2.248   2.366  -0.027  0.1743  2.1239  1.4888
10540TIP3   OH253034   1.788   6.496  12.461  0.2448  0.0322 -0.1478
10540TIP3    H153035   1.727   6.473  12.391  0.2324  0.0019 -0.1267
10540TIP3    H253036   1.759   6.445  12.536 -1.9209  2.6208  0.9517
10541TIP3   OH253037   4.777   4.077   5.904 -0.3936  0.0423 -0.5242
10541TIP3    H153038   4.718   4.107   5.973 -2.0651 -2.1293 -0.8902
10541TIP3    H253039   4.827   4.007   5.944 -0.1276 -0.0673 -1.0435
10542TIP3   OH253040   4.768   0.028  12.128  0.7274 -0.5840  0.2313
10542TIP3    H153041   4.790   0.004  12.037  1.9477 -0.1817  0.3961
10542TIP3    H253042   4.802  -0.045  12.180  0.0569 -0.7978  0.3808
10543TIP3   OH253043   0.582   0.887   0.153  0.4406  0.4703  0.3409
10543TIP3    H153044   0.576   0.858   0.062  1.5255  3.4363 -0.7728
10543TIP3    H253045   0.491   0.905   0.178  0.3075  1.7771 -0.9511
10544TIP3   OH253046   0.244   0.964  13.651 -0.4951 -0.5145  0.0351
10544TIP3    H153047   0.259   1.057  13.667  0.1233  0.0003 -3.0379
10544TIP3    H253048   0.318   0.920  13.695 -0.3529  0.4677  0.8194
10545TIP3   OH253049   3.694   2.226  10.552  0.4850  0.3680 -0.6016
10545TIP3    H153050   3.764   2.258  10.609  0.5071  0.7480 -0.8365
10545TIP3    H253051   3.648   2.305  10.524 -1.0819  0.0226  0.8647
10546TIP3   OH253052   0.454   1.053  12.648  0.2801 -0.1906 -0.6999
10546TIP3    H153053   0.504   0.976  12.620  1.7054  0.7850 -0.9063
10546TIP3    H253054   0.443   1.041  12.742  2.6757  0.5112 -0.2598
10547TIP3   OH253055   0.508   4.897   2.536 -0.8084 -0.5464 -0.5333
10547TIP3    H153056   0.490   4.804   2.524 -1.3853 -0.4091 -0.7239
10547TIP3    H253057   0.493   4.936   2.451  0.7710 -0.4798 -0.8101
10548TIP3   OH253058   3.351   2.298   3.856 -0.1821  0.3309 -0.0216
10548TIP3    H153059   3.392   2.229   3.907 -2.5633 -0.8428  0.4255
10548TIP3    H253060   3.410   2.373   3.865  2.0369 -1.3390  0.1819
10549TIP3   OH253061   2.293   2.266  14.935 -0.1537  0.0220 -0.3996
10549TIP3    H153062   2.293   2.265  14.840  1.6670 -1.3569 -0.4570
10549TIP3    H253063   2.309   2.174  14.960 -0.8103  0.3146  1.2409
10550TIP3   OH253064   1.598   2.923   4.345 -0.1320 -0.3226  0.7704
10550TIP3    H153065   1.693   2.918   4.342 -0.2205 -2.1043 -1.4903
10550TIP3    H253066   1.569   2.833   4.358 -1.5196 -0.2533 -1.3566
10551TIP3   OH253067   1.478   6.497   3.639 -0.3174 -0.6631  0.4214
10551TIP3    H153068   1.419   6.457   3.575 -1.6691  0.4509  0.9075
10551TIP3    H253069   1.443   6.585   3.652  0.3214 -0.6182  2.1528
10552TIP3   OH253070   1.187   5.290   1.541 -0.7035  0.4129  0.6560
10552TIP3    H153071   1.282   5.280   1.548 -0.7173  0.4610  0.9138
10552TIP3    H253072   1.175   5.368   1.488 -0.5985  0.3966  0.6077
10553TIP3   OH253073   3.588   2.800   4.824  0.1065 -0.3108  0.4510
10553TIP3    H153074   3.631   2.749   4.892  0.0306  0.8847  1.4231
10553TIP3    H253075   3.532   2.737   4.779 -0.3728 -0.9952  1.9341
10554TIP3   OH253076   2.294   0.581   0.841 -0.4703  0.0910 -0.4910
10554TIP3    H153077   2.326   0.556   0.755 -1.3180  1.9296 -1.3984
10554TIP3    H253078   2.224   0.519   0.860 -0.6243 -0.0160 -1.3790
10555TIP3   OH253079   5.918   2.259  11.286  0.1750 -0.2788  0.7384
10555TIP3    H153080   6.004   2.271  11.326  0.6460 -0.0659 -0.3011
10555TIP3    H253081   5.929   2.291  11.197 -1.0651  0.0028  0.6753
10556TIP3   OH253082   2.756   1.797   1.193  0.0549  0.6337  0.5123
10556TIP3    H153083   2.673   1.844   1.192 -0.0991  0.5064  2.6929
10556TIP3    H253084   2.823   1.865   1.192 -0.0827  0.7555 -0.5911
10557TIP3   OH253085   2.753   3.716  15.430 -0.0054  0.1697  0.5508
10557TIP3    H153086   2.838   3.675  15.442 -0.5070 -0.4486  2.2693
10557TIP3    H253087   2.743   3.723  15.335  1.1958 -1.3513  0.2696
10558TIP3   OH253088   1.749   0.891  12.408  0.2129  0.1374  0.4665
10558TIP3    H153089   1.669   0.846  12.433 -1.9375  2.0748 -2.3494
10558TIP3    H253090   1.784   0.841  12.335  0.6378  0.2558  0.5825
10559TIP3   OH253091   0.510   3.542  15.207 -0.6133 -0.0099 -0.3214
10559TIP3    H153092   0.475   3.500  15.285 -1.9581  1.0928 -0.2794
10559TIP3    H253093   0.569   3.609  15.241 -2.1692  1.3329 -0.1356
10560TIP3   OH253094   5.410   1.716   4.024 -0.4004 -0.1417 -0.1058
10560TIP3    H153095   5.389   1.795   4.075  0.7283 -0.3303  0.6759
10560TIP3    H253096   5.506   1.713   4.023 -0.4325 -1.2956 -0.4649
10561TIP3   OH253097   2.375   6.013  14.091 -0.2692  1.0454 -0.2777
10561TIP3    H153098   2.321   6.008  14.170 -1.1434  0.1318 -0.9160
10561TIP3    H253099   2.465   6.017  14.124 -0.6576  1.5365  0.7755
10562TIP3   OH253100   2.781   0.957  13.114 -0.3036 -0.3566  0.2232
10562TIP3    H153101   2.754   1.000  13.033 -0.1650  2.1816  1.4191
10562TIP3    H253102   2.717   0.887  13.126 -0.0897 -1.0916 -2.2379
10563TIP3   OH253103   3.354   5.336   5.866 -0.5482  0.3166 -0.2216
10563TIP3    H153104   3.434   5.299   5.903  0.0286  0.7390 -1.0214
10563TIP3    H253105   3.289   5.266   5.876  0.0181 -0.1821  0.0725
10564TIP3   OH253106   6.387   2.504   5.923 -0.0973 -0.0756 -0.0479
10564TIP3    H153107   6.387   2.554   6.005 -1.9814  1.9777 -1.2034
10564TIP3    H253108   6.417   2.566   5.857 -0.2006 -1.1919 -1.1826
10565TIP3   OH253109   3.794   5.509  15.465 -0.0331  0.5220 -0.2081
10565TIP3    H153110   3.866   5.479  15.521  0.7626  2.2302 -0.2494
10565TIP3    H253111   3.734   5.554  15.524 -0.5055  0.0936 -0.3544
10566TIP3   OH253112   3.430   4.430  10.443 -0.2101  0.4114  0.0690
10566TIP3    H153113   3.483   4.504  10.472  2.7917 -1.3052 -0.5173
10566TIP3    H253114   3.454   4.359  10.504 -1.8578 -0.4753 -0.2697
10567TIP3   OH253115   1.761   5.832  11.391  0.4833  0.2475  0.3783
10567TIP3    H153116   1.786   5.843  11.300  0.3927  1.2804  0.4619
10567TIP3    H253117   1.824   5.887  11.440  0.9672 -0.8266  1.0041
10568TIP3   OH253118   1.484   5.715  10.797  0.3308  0.5716 -0.0076
10568TIP3    H153119   1.519   5.778  10.860 -1.0880 -0.5429  1.9949
10568TIP3    H253120   1.393   5.704  10.824  0.3259 -1.7220 -0.8261
10569TIP3   OH253121   0.232   5.848   6.533 -0.0429  0.4972  0.4964
10569TIP3    H153122   0.199   5.922   6.483  0.0509 -1.0724 -2.0244
10569TIP3    H253123   0.170   5.777   6.515  0.9107 -0.5815  1.3273
10570TIP3   OH253124   4.977   5.426  14.147  0.4820 -0.9298  0.4600
10570TIP3    H153125   4.954   5.333  14.148 -0.5535 -0.7492 -1.4276
10570TIP3    H253126   4.986   5.447  14.054  2.2183  0.5193  0.9137
10571TIP3   OH253127   2.352   1.203   6.450  0.2361  0.3880  0.6144
10571TIP3    H153128   2.441   1.216   6.482  0.4974 -0.3180  0.2072
10571TIP3    H253129   2.327   1.287   6.413  0.7220  0.6046  0.7718
10572TIP3   OH253130   5.114   3.957  16.574 -0.1534 -0.1382  0.1900
10572TIP3    H153131   5.131   4.023  16.641 -0.8723 -1.6117  1.9132
10572TIP3    H253132   5.132   4.001  16.491  1.6210  1.4980  1.3737
10573TIP3   OH253133   6.482   4.014  16.561 -0.1800 -0.3251  0.1150
10573TIP3    H153134   6.553   4.003  16.625 -0.7098 -0.8459  0.6338
10573TIP3    H253135   6.453   3.925  16.543 -0.0459 -0.1760 -0.8584
10574TIP3   OH253136   5.799   1.256   2.128  0.2609 -0.2207 -0.3341
10574TIP3    H153137   5.750   1.174   2.116  1.0175 -0.8408  0.6379
10574TIP3    H253138   5.848   1.243   2.209  1.4303  0.6869 -0.8660
10575TIP3   OH253139   5.801   3.350  16.710  0.0778 -0.1868 -0.4555
10575TIP3    H153140   5.783   3.287  16.780 -0.9676  1.6758  1.0650
10575TIP3    H253141   5.894   3.370  16.719 -0.3282  1.0598  1.3619
10576TIP3   OH253142   6.431   3.898  10.373 -0.0562 -0.4731  0.2501
10576TIP3    H153143   6.448   3.819  10.322  1.2124  0.9930 -1.7423
10576TIP3    H253144   6.337   3.913  10.365  0.0585 -0.4695 -1.4455
10577TIP3   OH253145   0.138   1.557   1.917 -0.1350  0.0185 -0.6302
10577TIP3    H153146   0.229   1.570   1.892 -0.7127  0.5252 -2.6793
10577TIP3    H253147   0.138   1.478   1.971  1.7772  1.2398  1.2985
10578TIP3   OH253148   0.336   1.500  14.805 -0.2305  0.1346  0.2016
10578TIP3    H153149   0.314   1.550  14.883 -0.9889 -0.5233  0.4252
10578TIP3    H253150   0.410   1.446  14.831 -0.1831  0.2546  0.3193
10579TIP3   OH253151   4.635   2.675  16.366  0.1078 -0.2354 -0.0382
10579TIP3    H153152   4.593   2.730  16.300 -1.4838  0.0193  1.1195
10579TIP3    H253153   4.652   2.734  16.439  1.6339 -0.5595 -0.1137
10580TIP3   OH253154   6.736   4.917  12.809  0.1931 -0.0051  0.3972
10580TIP3    H153155   6.685   4.939  12.887 -0.5385 -0.4130  0.0451
10580TIP3    H253156   6.681   4.946  12.736  0.7588  0.1395  0.0274
10581TIP3   OH253157   3.747   1.654  16.505  0.7859 -0.2950 -0.0422
10581TIP3    H153158   3.784   1.720  16.446 -0.1221  0.5646  0.3256
10581TIP3    H253159   3.690   1.703  16.564 -0.1480 -1.4517  0.0551
10582TIP3   OH253160   5.985   5.511  12.532  0.2672  0.5924  0.5373
10582TIP3    H153161   6.054   5.497  12.468  0.1739  0.3291  0.4956
10582TIP3    H253162   6.032   5.533  12.613  0.3824  0.9560  0.3742
10583TIP3   OH253163   4.919   6.350  12.189 -0.1302  0.1981  0.1768
10583TIP3    H153164   4.875   6.279  12.235 -0.4415  0.5123  0.3777
10583TIP3    H253165   4.978   6.387  12.255  0.9078 -0.6226 -0.2787
10584TIP3   OH253166   0.754   0.608  11.851 -0.2918 -0.5242  0.2443
10584TIP3    H153167   0.736   0.572  11.764  0.1635 -0.9938  0.3379
10584TIP3    H253168   0.676   0.658  11.873 -0.6894 -0.9549 -0.1565
10585TIP3   OH253169   5.862   2.285  15.736  0.2042 -0.0711 -0.3520
10585TIP3    H153170   5.953   2.297  15.710 -0.1011  0.2547 -1.3472
10585TIP3    H253171   5.835   2.371  15.768 -0.1345  0.2167 -1.3666
10586TIP3   OH253172   0.857   2.891   1.885  0.5088 -0.2164  0.3775
10586TIP3    H153173   0.786   2.871   1.946 -0.6692  2.3481 -0.0417
10586TIP3    H253174   0.842   2.981   1.858  3.9699  0.4614  0.2512
10587TIP3   OH253175   2.087   4.083   3.642 -0.3784 -0.6266  0.0979
10587TIP3    H153176   2.069   4.140   3.568  1.1500 -0.8370 -0.4875
10587TIP3    H253177   2.107   4.142   3.714 -1.1332 -0.4263  0.1498
10588TIP3   OH253178   3.081   3.171   2.056 -0.3760 -0.0684  0.2233
10588TIP3    H153179   3.112   3.087   2.024 -3.0710 -0.0350 -2.8888
10588TIP3    H253180   3.112   3.234   1.991 -0.3987  1.0609  1.2682
10589TIP3   OH253181   2.643   0.259  13.636 -0.0841  0.7691 -0.3823
10589TIP3    H153182   2.571   0.305  13.679  0.3947  0.7711  0.4403
10589TIP3    H253183   2.620   0.166  13.644 -0.6524  0.8097 -1.3311
10590TIP3   OH253184   4.377   4.128  15.058  0.0775  0.1430 -0.3743
10590TIP3    H153185   4.422   4.175  14.988  0.9782  0.0042  0.0973
10590TIP3    H253186   4.365   4.039  15.023  0.9213 -0.0492 -0.2047
10591TIP3   OH253187   4.633   3.087  12.425 -0.6260 -0.4142 -0.3762
10591TIP3    H153188   4.724   3.071  12.400  0.0524  1.2260  0.8968
10591TIP3    H253189   4.601   3.001  12.452  1.5394 -0.5752  2.1624
10592TIP3   OH253190   0.349   4.985   2.036 -0.1049 -0.1399 -0.2161
10592TIP3    H153191   0.443   4.992   2.016 -0.0386 -1.3527 -0.3892
10592TIP3    H253192   0.322   5.075   2.053  1.4718  0.0703  1.5961
10593TIP3   OH253193   0.581   1.398   5.510 -0.4138  0.8686  0.0017
10593TIP3    H153194   0.564   1.469   5.447  0.8283 -0.8338 -2.4209
10593TIP3    H253195   0.495   1.359   5.525 -0.4227 -1.4536 -4.3265
10594TIP3   OH253196   2.298   2.208   3.046  0.7129  0.1567 -0.7288
10594TIP3    H153197   2.245   2.146   3.095  1.3645 -0.0602 -0.2949
10594TIP3    H253198   2.235   2.252   2.988 -0.0111  0.1863  0.0562
10595TIP3   OH253199   2.386   4.001   5.635 -0.1213 -0.1299  0.4157
10595TIP3    H153200   2.460   3.942   5.617 -1.1551 -0.6668 -2.6595
10595TIP3    H253201   2.419   4.061   5.702  2.5829 -1.2784  0.2438
10596TIP3   OH253202   0.329   1.940   5.370 -0.4083 -0.1458  0.0168
10596TIP3    H153203   0.354   1.931   5.462  0.7852  0.4089 -0.2258
10596TIP3    H253204   0.253   1.883   5.360 -1.4531  0.8584  1.6797
10597TIP3   OH253205   0.490   3.081  14.324  0.0278 -0.5433 -1.0786
10597TIP3    H153206   0.405   3.125  14.326  0.5013  0.5195 -2.4351
10597TIP3    H253207   0.543   3.129  14.388 -0.2436 -0.9095 -0.5703
10598TIP3   OH253208   1.970   4.482   0.639 -0.4764 -0.0073  0.3858
10598TIP3    H153209   1.998   4.461   0.728 -0.2358  1.3223  0.6517
10598TIP3    H253210   2.034   4.546   0.608 -1.4309  0.7263 -0.1493
10599TIP3   OH253211   2.096   4.341   3.889  0.4479  0.2533  0.6654
10599TIP3    H153212   2.120   4.346   3.981 -1.8718 -1.5460  1.4545
10599TIP3    H253213   2.001   4.352   3.888  0.1816 -1.5550 -1.3057
10600TIP3   OH253214   4.240   0.539   6.355 -0.1485  0.4028  0.2460
10600TIP3    H153215   4.264   0.478   6.285  0.8315 -0.4837  1.3036
10600TIP3    H253216   4.251   0.488   6.435 -0.1084  1.7435  1.1224
10601TIP3   OH253217   4.581   4.228  14.431  0.4362  0.1989 -0.1007
10601TIP3    H153218   4.530   4.250  14.352 -1.9182 -3.4450  0.1295
10601TIP3    H253219   4.538   4.276  14.501 -0.7729 -0.4401 -0.3730
10602TIP3   OH253220   4.746   0.620  13.899  0.3697 -0.1262 -0.2326
10602TIP3    H153221   4.819   0.560  13.910  0.7417  0.6751  2.2859
10602TIP3    H253222   4.671   0.564  13.878  0.6810 -1.5322  2.1207
10603TIP3   OH253223   3.889   0.051  15.281  0.0681 -0.1582  1.0421
10603TIP3    H153224   3.886   0.144  15.302 -1.6955  0.6662 -2.1064
10603TIP3    H253225   3.927   0.047  15.193  0.6707 -2.5125  1.3246
10604TIP3   OH253226   4.790   6.243   1.365 -0.0186  0.0111  0.1476
10604TIP3    H153227   4.847   6.306   1.320 -2.1970  2.6003  0.7793
10604TIP3    H253228   4.803   6.262   1.458  0.7337 -1.8832  0.4639
10605TIP3   OH253229   2.750   5.974   3.365  0.1227  0.1083 -0.1354
10605TIP3    H153230   2.668   6.019   3.385  1.2861  1.3783  2.1535
10605TIP3    H253231   2.812   6.045   3.349  1.3092 -0.7626  0.5419
10606TIP3   OH253232   3.880   5.762   0.686  0.2043  0.5124  0.2654
10606TIP3    H153233   3.975   5.757   0.696  0.1054 -2.0510  0.5955
10606TIP3    H253234   3.864   5.732   0.596 -0.3027  1.4295  0.0309
10607TIP3   OH253235   4.036   6.111   4.323 -0.0210 -0.0647  0.1880
10607TIP3    H153236   4.031   6.200   4.289  1.6262 -0.2995 -0.7842
10607TIP3    H253237   4.076   6.121   4.410 -1.1780  0.2437  0.7033
10608TIP3   OH253238   1.240   0.646   2.023  0.9720  0.8750 -0.1245
10608TIP3    H153239   1.207   0.609   1.941  1.8783 -2.9882  1.0328
10608TIP3    H253240   1.324   0.685   2.000  1.9683 -1.5358 -0.9287
10609TIP3   OH253241   3.453   2.159  14.500 -0.2192 -0.1584  0.0066
10609TIP3    H153242   3.359   2.142  14.507 -0.2464 -0.5631 -1.0622
10609TIP3    H253243   3.491   2.073  14.480  0.4327 -0.0717  0.8178
10610TIP3   OH253244   3.445   1.539  16.738 -0.2922  0.8549  0.2364
10610TIP3    H153245   3.539   1.551  16.752  0.6708 -2.8946 -1.8023
10610TIP3    H253246   3.422   1.462  16.790 -1.8023  0.6190 -0.7086
10611TIP3   OH253247   3.846   4.768  13.536  0.1763  0.4748  0.4447
10611TIP3    H153248   3.774   4.830  13.526  1.3950  2.0154  0.8741
10611TIP3    H253249   3.843   4.744  13.629 -0.7349 -0.7312  0.1382
10612TIP3   OH253250   0.551   4.939  16.277 -0.4810 -0.5876  0.9517
10612TIP3    H153251   0.501   4.910  16.200 -0.5659 -2.0724  1.5207
10612TIP3    H253252   0.599   5.016  16.247  0.1314 -1.6027 -0.8469
10613TIP3   OH253253   1.994   3.101   0.458  0.0497  0.4742 -0.1861
10613TIP3    H153254   1.919   3.046   0.435 -1.2092  1.6046  1.0136
10613TIP3    H253255   2.036   3.056   0.531 -0.1531  0.4102 -0.1092
10614TIP3   OH253256   2.167   2.216  15.306 -0.7736  0.3728  0.4190
10614TIP3    H153257   2.205   2.130  15.284 -1.4287  0.3282 -0.5916
10614TIP3    H253258   2.090   2.223  15.251 -1.6217  0.9526  1.6331
10615TIP3   OH253259   2.322   4.464   0.927 -0.0924 -0.0752  0.3918
10615TIP3    H153260   2.414   4.452   0.952 -0.3805 -0.5656  1.2453
10615TIP3    H253261   2.318   4.431   0.837  0.7842  0.9386 -0.0507
10616TIP3   OH253262   0.460   5.344   5.884  0.3110 -0.3020  0.4400
10616TIP3    H153263   0.494   5.258   5.857 -1.8614 -1.0998  0.0504
10616TIP3    H253264   0.374   5.350   5.842  0.8195  2.5601 -0.4319
10617TIP3   OH253265   1.552   3.382   0.361 -0.0327  0.1180 -0.3352
10617TIP3    H153266   1.539   3.351   0.450  2.4986  0.8702  0.3828
10617TIP3    H253267   1.582   3.305   0.313  0.3179  0.0937 -0.0818
10618TIP3   OH253268   0.987   4.401  16.756 -0.4388 -0.0592 -0.2432
10618TIP3    H153269   0.934   4.447  16.691  0.1642  0.3297 -0.4625
10618TIP3    H253270   0.949   4.313  16.759  0.9293 -0.8392 -2.8155
10619TIP3   OH253271   1.296   5.169  15.300  0.1121 -0.4875  0.4536
10619TIP3    H153272   1.364   5.209  15.245 -0.3147 -0.6040 -0.1786
10619TIP3    H253273   1.332   5.169  15.388  0.5125  0.3965  0.2984
10620TIP3   OH253274   5.664   1.523  13.630 -0.2018 -0.3802  0.2908
10620TIP3    H153275   5.603   1.593  13.655  1.3051  1.2412 -0.3300
10620TIP3    H253276   5.611   1.463  13.578 -1.8492 -0.4308  1.8976
10621TIP3   OH253277   6.042   4.138   1.600 -0.1872  0.3545 -0.0146
10621TIP3    H153278   6.132   4.127   1.629 -0.9377 -3.1947  1.4720
10621TIP3    H253279   6.004   4.201   1.661  1.2691  2.1098 -0.8323
10622TIP3   OH253280   3.509   3.904  11.215  0.3309  0.0093 -0.0699
10622TIP3    H153281   3.578   3.871  11.273  0.4329  1.6093  0.7901
10622TIP3    H253282   3.534   3.874  11.128  1.4068 -0.5279  0.4027
10623TIP3   OH253283   4.417   3.835   3.873  0.1213 -0.3865 -0.2912
10623TIP3    H153284   4.492   3.872   3.920 -0.1060 -0.4105  0.0910
10623TIP3    H253285   4.389   3.761   3.926 -1.2809  0.6771  0.5248
10624TIP3   OH253286   3.997   0.343  13.000  0.3997 -0.3553 -0.0483
10624TIP3    H153287   3.984   0.261  12.953 -0.1975  0.7138 -1.8392
10624TIP3    H253288   3.919   0.352  13.055  0.7068 -1.2094  0.5496
10625TIP3   OH253289   6.040   3.718   5.767 -0.2678 -0.0599  0.1212
10625TIP3    H153290   6.033   3.747   5.858 -2.3419 -2.2624  0.7627
10625TIP3    H253291   5.986   3.780   5.718 -0.6480  0.0685  0.6887
10626TIP3   OH253292   6.552   2.720   0.964  0.3828  0.2524 -0.4732
10626TIP3    H153293   6.613   2.728   1.037  0.8823 -2.5525 -0.4663
10626TIP3    H253294   6.608   2.714   0.886 -0.0643  1.2748 -0.8902
10627TIP3   OH253295   0.076   2.959   4.675  0.5709 -0.4358  0.2945
10627TIP3    H153296   0.029   2.879   4.699  1.6793 -0.6035  2.1066
10627TIP3    H253297   0.146   2.930   4.618 -2.1925 -0.0149 -3.6948
10628TIP3   OH253298   2.153   2.009  16.250  0.1889  1.2038 -0.3527
10628TIP3    H153299   2.093   2.014  16.175 -0.1556 -0.7015 -0.2304
10628TIP3    H253300   2.120   2.074  16.311 -1.0753  0.9749 -0.7752
10629TIP3   OH253301   5.698   1.020  14.604  0.2066 -0.0778  0.0040
10629TIP3    H153302   5.648   1.052  14.679 -2.2962 -0.8981 -1.1918
10629TIP3    H253303   5.744   1.097  14.571  0.0860  0.6356  1.4165
10630TIP3   OH253304   0.341   5.886   6.797 -0.0938 -0.3897  0.2895
10630TIP3    H153305   0.289   5.862   6.720  1.1607 -0.2488 -0.6306
10630TIP3    H253306   0.397   5.810   6.813  0.0603 -0.1922  0.7099
10631TIP3   OH253307   0.653   0.142   6.274 -0.0408 -0.1297 -0.0360
10631TIP3    H153308   0.616   0.106   6.354 -0.1632 -0.2354 -0.1399
10631TIP3    H253309   0.743   0.166   6.298 -0.6249  1.5005  0.6275
10632TIP3   OH253310   5.374   2.117  14.629 -0.2562 -0.0026 -0.2177
10632TIP3    H153311   5.446   2.067  14.588  0.4563  0.5115  0.3938
10632TIP3    H253312   5.411   2.151  14.710 -0.8349  1.2443 -0.4529
10633TIP3   OH253313   6.192   6.755   5.280  0.5171 -0.3306  0.6644
10633TIP3    H153314   6.221   6.838   5.319 -0.6527 -0.0571  0.9838
10633TIP3    H253315   6.172   6.777   5.189 -1.5850  0.1924  1.2136
10634TIP3   OH253316   6.600   6.057   5.844  0.5139 -0.5694 -0.2206
10634TIP3    H153317   6.586   6.092   5.932 -1.5880  1.7583 -1.3353
10634TIP3    H253318   6.635   6.130   5.794 -0.2932 -1.1961 -1.7824
10635TIP3   OH253319   0.887   1.915   4.045  0.4637  0.4613 -0.0529
10635TIP3    H153320   0.857   2.002   4.018 -2.3114  1.0317  4.0063
10635TIP3    H253321   0.811   1.858   4.033  0.9211 -0.4426  1.1037
10636TIP3   OH253322   6.468   2.583  11.005  0.0590  0.1771 -0.4188
10636TIP3    H153323   6.373   2.599  11.003  0.0858  0.3679 -0.2087
10636TIP3    H253324   6.503   2.656  11.055  0.4697  0.8802 -1.6794
10637TIP3   OH253325   3.560   2.702  16.311  0.0651 -0.4850 -0.1310
10637TIP3    H153326   3.529   2.633  16.253  0.5555 -0.6307 -0.2278
10637TIP3    H253327   3.546   2.667  16.399 -0.4167 -0.3796 -0.1654
10638TIP3   OH253328   5.179   3.553   2.600 -0.2325  0.2032 -0.0347
10638TIP3    H153329   5.206   3.545   2.691  1.9074  0.0974 -0.6132
10638TIP3    H253330   5.084   3.564   2.603 -0.4190 -1.4816  2.0969
10639TIP3   OH253331   4.364   6.317   3.492  0.8123 -0.0543 -0.1440
10639TIP3    H153332   4.306   6.352   3.425 -0.1150 -0.6271  0.3265
10639TIP3    H253333   4.450   6.310   3.450  0.7156  1.4857 -0.6411
10640TIP3   OH253334   3.676   3.269  12.185 -0.6026 -0.1159 -0.1374
10640TIP3    H153335   3.757   3.219  12.174 -0.9439 -0.3362 -1.9172
10640TIP3    H253336   3.613   3.228  12.126 -2.2131 -0.2625  1.5657
10641TIP3   OH253337   4.922   2.894   0.259 -0.0553  0.4990  0.0843
10641TIP3    H153338   4.833   2.929   0.254  0.2045  1.0524 -1.0841
10641TIP3    H253339   4.977   2.963   0.223  0.7628 -0.1320  0.0963
10642TIP3   OH253340   2.938   5.607   2.740  0.2639  0.5283  0.7030
10642TIP3    H153341   2.925   5.611   2.834 -0.9941  2.1158  0.5313
10642TIP3    H253342   3.000   5.677   2.721  0.9930 -0.1857  0.4042
10643TIP3   OH253343   2.848   1.825  16.260  0.4601 -0.7185  0.7474
10643TIP3    H153344   2.943   1.826  16.249  0.5460 -0.2972  1.4356
10643TIP3    H253345   2.835   1.792  16.349 -0.0147 -0.2077  0.8680
10644TIP3   OH253346   6.533   1.145  11.117  0.5228  0.2210  0.2812
10644TIP3    H153347   6.479   1.224  11.120  1.6586  1.0144  0.9231
10644TIP3    H253348   6.612   1.172  11.069  1.0130 -0.4617  0.6792
10645TIP3   OH253349   2.864   1.094   2.624  0.4070  0.2161  1.1594
10645TIP3    H153350   2.898   1.017   2.669  2.2464  0.1453 -0.2155
10645TIP3    H253351   2.912   1.168   2.662 -2.8128  1.1453  3.9987
10646TIP3   OH253352   4.259   2.354   5.266 -0.0947  0.3787  0.0385
10646TIP3    H153353   4.281   2.367   5.173 -0.9350  0.5452 -0.1551
10646TIP3    H253354   4.178   2.303   5.264  1.4292 -2.2245  0.7544
10647TIP3   OH253355   5.775   0.444   3.912 -0.2163  0.2908  0.1766
10647TIP3    H153356   5.711   0.417   3.846  0.3601  1.0625 -0.7161
10647TIP3    H253357   5.722   0.471   3.987 -0.8629 -1.5413  0.4370
10648TIP3   OH253358   5.771   5.562   0.894 -0.3455  0.0004 -0.3041
10648TIP3    H153359   5.792   5.549   0.802 -0.6440 -0.6154 -0.2910
10648TIP3    H253360   5.677   5.582   0.894 -0.5819 -1.0816 -0.0465
10649TIP3   OH253361   6.118   6.262  14.379  0.0678  0.0058 -0.0493
10649TIP3    H153362   6.100   6.303  14.464  2.2788 -1.2468  1.1227
10649TIP3    H253363   6.194   6.310  14.346 -1.5183  1.3273 -2.0100
10650TIP3   OH253364   1.164   5.054  15.053 -0.0812  0.6901  0.2027
10650TIP3    H153365   1.229   4.990  15.082  0.5903 -0.2926 -3.0284
10650TIP3    H253366   1.217   5.126  15.016 -0.8252  1.2185  0.1358
10651TIP3   OH253367   2.957   2.482  11.726  0.3037  0.4395 -0.4754
10651TIP3    H153368   2.872   2.447  11.753  0.1293  1.0675 -0.1942
10651TIP3    H253369   2.942   2.516  11.638  0.6564 -0.8279 -1.0475
10652TIP3   OH253370   6.302   1.362   6.092  0.2518 -0.6367  0.3794
10652TIP3    H153371   6.265   1.334   6.008  2.3591 -0.0948 -0.8159
10652TIP3    H253372   6.230   1.353   6.154 -2.1658  1.1151 -1.8854
10653TIP3   OH253373   5.286   0.884  16.608 -0.1795  0.2676 -0.0856
10653TIP3    H153374   5.204   0.839  16.588 -1.6232  2.1259  1.3096
10653TIP3    H253375   5.259   0.965  16.651  2.3150  2.3731 -2.1879
10654TIP3   OH253376   2.353   5.841   5.839 -0.1834 -0.1603  0.4504
10654TIP3    H153377   2.401   5.858   5.758  1.6376 -0.2714  1.4440
10654TIP3    H253378   2.419   5.851   5.908 -1.7540  0.2722  1.9550
10655TIP3   OH253379   2.768   5.008  12.768 -0.8295  0.0156  0.0073
10655TIP3    H153380   2.811   5.014  12.683  0.0691  0.9983  0.5023
10655TIP3    H253381   2.827   5.053  12.828 -1.6149 -0.3463  1.0943
10656TIP3   OH253382   3.829   0.983   3.814  0.2205 -0.0302  0.2445
10656TIP3    H153383   3.849   0.892   3.836 -0.3757  0.1814  1.7857
10656TIP3    H253384   3.874   1.035   3.880 -0.7352  0.7092  0.3447
10657TIP3   OH253385   3.664   1.240   0.439 -0.2769 -0.1748 -0.4390
10657TIP3    H153386   3.676   1.335   0.447 -3.1432  0.2864 -0.5563
10657TIP3    H253387   3.681   1.221   0.347 -0.3390  0.3636 -0.5670
10658TIP3   OH253388   4.340   3.197   4.365  0.7471  0.0269  0.4027
10658TIP3    H153389   4.427   3.164   4.341 -0.0284 -0.9290 -1.2241
10658TIP3    H253390   4.288   3.190   4.285 -1.0221 -0.0188  1.4999
10659TIP3   OH253391   0.070   5.170  16.474  0.3624  0.2327  0.5668
10659TIP3    H153392   0.014   5.128  16.409 -0.1528  1.1621  0.3875
10659TIP3    H253393   0.157   5.133  16.459  0.4307  1.0008 -1.1896
10660TIP3   OH253394   4.635   2.198   0.071  0.0731  0.4174 -0.0429
10660TIP3    H153395   4.702   2.210   0.139  0.2583 -1.8048  0.2199
10660TIP3    H253396   4.554   2.184   0.119 -0.0398  0.1804 -0.3009
10661TIP3   OH253397   2.846   1.599  15.053 -0.5041  0.0911  0.2811
10661TIP3    H153398   2.873   1.614  14.963  0.5782 -2.5016  0.0890
10661TIP3    H253399   2.760   1.640  15.059 -0.9508 -0.3261 -2.1848
10662TIP3   OH253400   3.054   5.672  16.818 -0.4087 -0.1305 -0.0858
10662TIP3    H153401   3.112   5.624  16.877 -2.1671 -0.9147  1.0995
10662TIP3    H253402   3.100   5.754  16.801  1.3090 -0.9625  0.2863
10663TIP3   OH253403   4.805   0.065   0.813 -0.4180 -0.0876  0.2669
10663TIP3    H153404   4.718   0.058   0.775  0.5292 -0.5988 -1.9567
10663TIP3    H253405   4.790   0.090   0.904 -2.8549  0.0826 -0.1326
10664TIP3   OH253406   2.019   5.738   1.004 -0.0094 -0.1678 -0.2404
10664TIP3    H153407   1.970   5.726   0.923  2.0566 -0.2133 -1.5789
10664TIP3    H253408   2.060   5.653   1.020  0.8161  0.2500 -0.0345
10665TIP3   OH253409   2.067   3.349   3.174 -0.1771  0.1412  0.0364
10665TIP3    H153410   2.101   3.418   3.230  0.1375 -1.1044  1.4589
10665TIP3    H253411   2.142   3.324   3.119 -0.7023  1.9058 -1.5706
10666TIP3   OH253412   0.697   4.532   6.085  0.2381  0.0043  0.6540
10666TIP3    H153413   0.722   4.513   5.995  1.1828  1.1244  0.6569
10666TIP3    H253414   0.705   4.448   6.131  1.6449 -0.1796  0.1149
10667TIP3   OH253415   3.706   0.300   4.722 -0.3773 -0.0018  0.3873
10667TIP3    H153416   3.618   0.265   4.730 -0.2312 -0.8691 -1.2932
10667TIP3    H253417   3.757   0.227   4.686  0.9426  0.6087  0.9610
10668TIP3   OH253418   2.527   1.960  12.749  0.2555  0.4893  0.2733
10668TIP3    H153419   2.457   1.895  12.755  0.4527  0.3457  1.4263
10668TIP3    H253420   2.582   1.941  12.826  1.3791  0.7978 -0.4369
10669TIP3   OH253421   0.743   3.249   2.038  0.1210 -0.5017 -0.4501
10669TIP3    H153422   0.806   3.267   2.107  0.5284  1.8384 -1.3441
10669TIP3    H253423   0.659   3.276   2.074 -0.1164 -1.8261  0.0516
10670TIP3   OH253424   5.982   1.679  11.800 -0.0421 -0.2436 -0.4208
10670TIP3    H153425   5.896   1.648  11.827 -0.1524  0.5620  0.1887
10670TIP3    H253426   5.978   1.684  11.705 -1.3600  1.6973 -0.3191
10671TIP3   OH253427   3.164   2.585  11.877 -0.4838  0.3907  0.3269
10671TIP3    H153428   3.098   2.548  11.818  0.5565  1.0539 -1.2983
10671TIP3    H253429   3.136   2.557  11.964 -0.8703 -2.4684 -0.6200
10672TIP3   OH253430   2.078   2.784  16.830  0.0100 -0.2662 -0.0384
10672TIP3    H153431   2.015   2.727  16.874 -0.0972  0.3810  0.6749
10672TIP3    H253432   2.055   2.872  16.860  0.2724  0.1343 -0.9971
10673TIP3   OH253433   4.551   5.220   2.680 -0.5771  0.3537 -0.0488
10673TIP3    H153434   4.568   5.243   2.589 -0.8165  0.4607 -0.0674
10673TIP3    H253435   4.546   5.305   2.725 -0.8459  0.3166 -0.0062
10674TIP3   OH253436   1.857   0.464   4.880 -0.1908  0.2982  0.1370
10674TIP3    H153437   1.909   0.456   4.960 -0.3325 -2.6139  0.0317
10674TIP3    H253438   1.907   0.525   4.825 -0.2594  2.6374  2.4744
10675TIP3   OH253439   3.797   2.118  12.929 -0.6449  0.1063 -0.3509
10675TIP3    H153440   3.818   2.201  12.972  1.2645 -0.5284  0.0439
10675TIP3    H253441   3.866   2.107  12.863 -0.0444 -1.7863  0.5202
10676TIP3   OH253442   3.320   6.740   4.786 -0.1060  0.3511  0.2706
10676TIP3    H153443   3.313   6.769   4.695  2.7869 -0.9785 -0.5053
10676TIP3    H253444   3.262   6.799   4.835 -0.5116  2.1605 -2.2046
10677TIP3   OH253445   6.315   5.019   5.861  0.0410  0.2753 -0.6224
10677TIP3    H153446   6.314   4.973   5.777 -0.8230  0.1174 -0.5337
10677TIP3    H253447   6.293   4.952   5.926  0.4676  0.4486 -0.2874
10678TIP3   OH253448   0.103   0.520  13.293  0.0816 -0.1487 -0.1142
10678TIP3    H153449   0.082   0.436  13.252  1.7771 -0.1684 -1.0666
10678TIP3    H253450   0.198   0.529  13.281  0.0877  1.4698  0.8183
10679TIP3   OH253451   3.968   1.525  14.938 -0.0240 -0.5988  0.0673
10679TIP3    H153452   3.915   1.539  14.859  0.5886 -0.3845 -0.3104
10679TIP3    H253453   4.019   1.606  14.947  0.1412 -0.7498  0.5026
10680TIP3   OH253454   1.374   1.851   1.908 -0.0617 -0.1877 -0.1815
10680TIP3    H153455   1.452   1.809   1.946 -0.3568  1.4157  2.4776
10680TIP3    H253456   1.302   1.792   1.933  0.1093 -0.9884 -1.4911
10681TIP3   OH253457   4.217   3.324   1.003 -0.6153 -0.3736  0.2405
10681TIP3    H153458   4.269   3.348   0.926 -0.0747  2.4620  1.3698
10681TIP3    H253459   4.282   3.316   1.074 -1.3937  0.2535  1.0482
10682TIP3   OH253460   2.649   5.361   3.072 -0.3834  0.7813 -0.7277
10682TIP3    H153461   2.618   5.315   2.993  1.2463  0.8485 -1.4415
10682TIP3    H253462   2.727   5.313   3.099 -0.7616  0.9365  0.7007
10683TIP3   OH253463   2.191   2.656   3.216 -0.1306 -0.0738  0.2224
10683TIP3    H153464   2.186   2.656   3.312  0.0130  1.7416  0.2655
10683TIP3    H253465   2.136   2.583   3.189 -0.3866 -0.4551  1.6834
10684TIP3   OH253466   0.519   5.317  16.070 -0.4916 -0.3251 -0.0448
10684TIP3    H153467   0.497   5.381  16.138  0.2145 -1.0468  0.8892
10684TIP3    H253468   0.451   5.330  16.003 -1.3411  0.2569  0.8895
10685TIP3   OH253469   4.796   5.608   3.364 -0.1000 -0.0325  0.2055
10685TIP3    H153470   4.820   5.641   3.451  0.2814 -1.2914  0.5999
10685TIP3    H253471   4.709   5.645   3.348  0.8566  2.2913 -0.0142
10686TIP3   OH253472   3.071   1.237   2.720  0.2480  1.0149  0.1736
10686TIP3    H153473   3.129   1.245   2.644 -0.1395  1.4859 -0.0797
10686TIP3    H253474   3.127   1.206   2.791 -0.0805 -3.5825 -1.2593
10687TIP3   OH253475   3.558   3.138   5.859 -0.3818 -0.1113 -0.2898
10687TIP3    H153476   3.469   3.161   5.885 -0.0392 -0.8860  1.7716
10687TIP3    H253477   3.598   3.222   5.834 -1.6941  0.2246 -1.3619
10688TIP3   OH253478   1.283   2.162  11.720 -1.0622  0.0981  0.4924
10688TIP3    H153479   1.304   2.092  11.782  0.9526  0.4274  0.2502
10688TIP3    H253480   1.328   2.239  11.755 -2.0009  0.9161 -0.0469
10689TIP3   OH253481   4.928   5.499  16.320  0.3253 -0.4570 -0.0116
10689TIP3    H153482   4.935   5.574  16.261 -1.1790 -1.2325 -1.2594
10689TIP3    H253483   4.836   5.494  16.343  0.8098 -0.4504  2.1156
10690TIP3   OH253484   0.633   1.023   1.346  0.0538  0.2400 -0.4223
10690TIP3    H153485   0.653   0.943   1.395  0.0711 -0.5834 -1.7171
10690TIP3    H253486   0.653   1.094   1.406  1.7621 -0.6871  0.1684
10691TIP3   OH253487   5.495   1.277  15.308  0.0512  0.5262  0.5510
10691TIP3    H153488   5.555   1.209  15.338 -1.6655 -1.9682 -1.2926
10691TIP3    H253489   5.450   1.306  15.388  0.5816 -0.7333  1.3376
10692TIP3   OH253490   3.994   6.015   0.567 -0.0508  0.3668  0.7081
10692TIP3    H153491   4.033   5.929   0.557  0.2933  0.5918  0.0810
10692TIP3    H253492   3.899   5.999   0.566 -0.0359  0.1784 -1.3006
10693TIP3   OH253493   1.647   4.494  13.606  0.8285  0.0714  0.3211
10693TIP3    H153494   1.648   4.574  13.553 -1.2075 -0.2234 -0.2442
10693TIP3    H253495   1.719   4.441  13.572  0.6324  0.6119 -0.9692
10694TIP3   OH253496   5.954   5.120  13.562 -0.1340  0.0212  0.1047
10694TIP3    H153497   5.868   5.160  13.574 -0.6672 -0.5691 -1.4559
10694TIP3    H253498   5.986   5.157  13.479 -0.2531 -2.0479 -0.9160
10695TIP3   OH253499   4.499   5.012   0.090 -0.6728 -0.5034 -1.2732
10695TIP3    H153500   4.528   5.017   0.181 -1.7122  1.8024 -1.0203
10695TIP3    H253501   4.577   4.983   0.042  0.2826 -0.3880  0.1500
10696TIP3   OH253502   3.553   3.213  15.451 -0.0654 -0.1563 -0.3264
10696TIP3    H153503   3.623   3.209  15.516 -0.9065 -0.1153  0.5973
10696TIP3    H253504   3.598   3.237  15.370  0.9962 -0.1822  0.2319
10697TIP3   OH253505   2.342   1.468   3.154  0.5891 -0.0001 -0.3022
10697TIP3    H153506   2.396   1.456   3.075  0.1435  0.3367 -0.6685
10697TIP3    H253507   2.286   1.390   3.157 -0.8062  0.8839 -1.4761
10698TIP3   OH253508   0.948   0.527  12.395 -0.4399  0.6659 -0.1434
10698TIP3    H153509   0.854   0.510  12.408 -0.4328  0.6399 -0.1256
10698TIP3    H253510   0.987   0.440  12.390 -0.6100  0.6516 -1.6500
10699TIP3   OH253511   6.423   5.667   3.098 -0.2647  0.0489  0.3138
10699TIP3    H153512   6.363   5.627   3.161  1.1931 -0.1786  1.6265
10699TIP3    H253513   6.366   5.710   3.034 -1.8241 -1.3657  0.6871
10700TIP3   OH253514   4.063   3.979  14.192 -0.1874  0.2278  0.3206
10700TIP3    H153515   3.988   3.991  14.250 -1.2180 -2.0231 -0.4341
10700TIP3    H253516   4.131   4.034  14.230 -2.0259  1.9801  1.3164
10701TIP3   OH253517   6.706   5.648  14.486 -0.3688  0.3738 -0.0182
10701TIP3    H153518   6.706   5.576  14.548 -0.8447  1.1522  0.9052
10701TIP3    H253519   6.731   5.608  14.403 -0.0016 -0.7302  0.6087
10702TIP3   OH253520   0.152   4.169   0.910 -0.0205  0.5829  0.5608
10702TIP3    H153521   0.099   4.106   0.861 -0.1790  1.8143 -0.9707
10702TIP3    H253522   0.095   4.199   0.980 -0.8123  0.7293 -0.1222
10703TIP3   OH253523   6.171   0.571   4.471 -0.2989  0.1911 -0.0545
10703TIP3    H153524   6.198   0.557   4.562 -1.7810 -1.9965  0.1347
10703TIP3    H253525   6.120   0.493   4.449  0.0338  0.6396 -2.7908
10704TIP3   OH253526   1.057   5.109  12.905  0.1524 -0.4242  0.4093
10704TIP3    H153527   1.134   5.165  12.894 -0.0709 -0.1146  0.4017
10704TIP3    H253528   1.093   5.024  12.930  0.5670 -0.6425 -0.8882
10705TIP3   OH253529   3.916   5.848  11.072  0.5533 -0.1235 -0.4018
10705TIP3    H153530   3.889   5.766  11.030 -0.3160  0.8890 -1.9252
10705TIP3    H253531   3.882   5.916  11.014  1.5755  1.3158  0.6341
10706TIP3   OH253532   1.360   5.363  15.717 -0.0127 -0.0143  0.0797
10706TIP3    H153533   1.315   5.433  15.765  1.2941  0.5485  0.5170
10706TIP3    H253534   1.434   5.407  15.675  1.0086 -1.1811  0.6020
10707TIP3   OH253535   2.488   4.706  14.524 -0.3668 -0.0984 -0.1865
10707TIP3    H153536   2.465   4.658  14.444  1.8354 -0.2913 -0.7891
10707TIP3    H253537   2.496   4.797  14.496  0.7597 -0.2166 -0.3147
10708TIP3   OH253538   4.021   1.550   0.507 -0.3329  0.4059  0.5075
10708TIP3    H153539   3.931   1.570   0.533 -0.7152 -0.2210 -0.3044
10708TIP3    H253540   4.016   1.461   0.472  0.4468  0.6693 -0.2949
10709TIP3   OH253541   0.033   6.707   1.650  0.3443 -0.2855  0.3335
10709TIP3    H153542   0.064   6.619   1.630 -1.0868 -1.2504  2.0114
10709TIP3    H253543   0.086   6.734   1.725  1.1426  0.5149 -0.5114
10710TIP3   OH253544   6.456   5.171  13.604 -0.1407 -0.1919  0.4631
10710TIP3    H153545   6.386   5.139  13.662  0.1528 -0.1395  0.8545
10710TIP3    H253546   6.419   5.249  13.562 -0.4073 -0.3109  0.4776
10711TIP3   OH253547   2.721   3.745  13.390 -0.1789 -0.0179 -0.1290
10711TIP3    H153548   2.759   3.734  13.303  1.0265 -2.8507  0.6549
10711TIP3    H253549   2.796   3.748  13.450 -1.0052 -2.2224  1.1386
10712TIP3   OH253550   4.315   1.931  12.314 -0.1813 -0.6546 -0.4190
10712TIP3    H153551   4.238   1.911  12.366 -0.8948  1.6022 -0.4991
10712TIP3    H253552   4.299   1.889  12.230 -1.0466 -0.7193 -0.2295
10713TIP3   OH253553   3.213   4.026   4.966  0.4680 -0.2933 -0.5391
10713TIP3    H153554   3.184   3.971   5.038  0.6442 -0.0655 -0.2892
10713TIP3    H253555   3.272   4.090   5.007 -1.1793  1.2873 -0.4715
10714TIP3   OH253556   0.637   0.139  14.877 -0.4813 -0.0806  0.4067
10714TIP3    H153557   0.563   0.186  14.837 -0.4927 -0.3343  0.1304
10714TIP3    H253558   0.607   0.049  14.885 -1.3748  0.3722  3.1511
10715TIP3   OH253559   5.264   3.856   3.301 -0.2588  0.5207  0.0406
10715TIP3    H153560   5.358   3.862   3.282  0.0802 -1.7804  0.5871
10715TIP3    H253561   5.253   3.908   3.381  0.5713  0.8035 -0.0171
10716TIP3   OH253562   3.333   3.296   3.509 -0.4421 -0.7213  0.0993
10716TIP3    H153563   3.323   3.209   3.548 -1.5941 -0.7350 -0.2082
10716TIP3    H253564   3.420   3.294   3.468 -0.5557 -1.8090 -0.1116
10717TIP3   OH253565   2.780   3.904   3.212 -0.1504  0.2845  0.0874
10717TIP3    H153566   2.699   3.872   3.172 -0.3285 -1.0392  1.4371
10717TIP3    H253567   2.793   3.991   3.173 -1.6600  0.0946 -0.9165
10718TIP3   OH253568   2.025   5.322  17.184 -0.6496 -0.2627 -0.5201
10718TIP3    H153569   2.029   5.410  17.148 -2.8359  0.3012  0.4485
10718TIP3    H253570   2.065   5.266  17.117  1.0435  1.4444 -1.0249
10719TIP3   OH253571   5.277   1.631   1.046  0.2540  0.0410  0.0323
10719TIP3    H153572   5.355   1.680   1.020  0.5883 -0.8411 -0.6437
10719TIP3    H253573   5.205   1.692   1.030  0.6915  0.4271 -0.5093
10720TIP3   OH253574   1.772   1.121  13.546  0.5322  0.1410 -0.0480
10720TIP3    H153575   1.798   1.078  13.464  0.9672  0.0936  0.1144
10720TIP3    H253576   1.855   1.149  13.586  0.2355  2.2164 -0.7442
10721TIP3   OH253577   1.222   6.687  11.782  0.1996  0.3897  0.6286
10721TIP3    H153578   1.156   6.620  11.763  1.0890 -0.4938  0.5522
10721TIP3    H253579   1.193   6.764  11.733 -1.0178  0.1779  0.9802
10722TIP3   OH253580   0.410   3.832   3.719 -0.1273 -0.1951 -0.1350
10722TIP3    H153581   0.465   3.756   3.701 -1.0019 -0.6854 -0.8464
10722TIP3    H253582   0.322   3.804   3.692 -0.5893  0.8153  0.2899
10723TIP3   OH253583   5.287   4.821  11.967  0.8306 -0.4687 -0.0343
10723TIP3    H153584   5.223   4.817  11.896 -0.9654 -1.2947  1.5491
10723TIP3    H253585   5.334   4.737  11.962  1.6430  0.0301 -1.0351
10724TIP3   OH253586   3.586   1.146   1.784  0.4385 -0.3967  0.1106
10724TIP3    H153587   3.675   1.165   1.814  0.9268 -1.0121 -0.8860
10724TIP3    H253588   3.568   1.058   1.814 -0.0177 -0.1055  0.7015
10725TIP3   OH253589   3.339   5.956   0.954  0.0367  0.0144  0.0918
10725TIP3    H153590   3.358   5.954   0.861  0.1158 -1.1894  0.1222
10725TIP3    H253591   3.274   6.026   0.964 -0.2536 -0.1021 -0.9132
10726TIP3   OH253592   2.564   2.768   5.861 -0.4031 -0.1215  0.5637
10726TIP3    H153593   2.528   2.704   5.923  2.6213 -1.9596  0.6400
10726TIP3    H253594   2.534   2.738   5.776 -0.2057 -0.8004  0.7252
10727TIP3   OH253595   3.210   2.726  13.818  0.4689 -0.1755 -0.2156
10727TIP3    H153596   3.115   2.734  13.816  0.5566  0.7038 -1.6104
10727TIP3    H253597   3.229   2.695  13.907 -1.2823 -2.8485 -0.6302
10728TIP3   OH253598   6.124   5.491  15.374  0.4259  0.4216  0.2409
10728TIP3    H153599   6.091   5.457  15.458  2.5620 -0.9457  0.6206
10728TIP3    H253600   6.055   5.470  15.311 -0.4444 -0.1714  1.3458
10729TIP3   OH253601   3.819   1.981  16.650  0.4577  0.9023 -0.6345
10729TIP3    H153602   3.738   1.930  16.646  0.5197  0.7829 -0.4188
10729TIP3    H253603   3.798   2.064  16.607  0.3995  0.6355 -1.1282
10730TIP3   OH253604   5.657   1.847  13.920 -0.1855 -0.4059  0.0947
10730TIP3    H153605   5.685   1.930  13.881 -1.9553 -0.2224 -0.8723
10730TIP3    H253606   5.712   1.838  13.997  0.2161  1.5550  0.1008
10731TIP3   OH253607   5.314   1.327  13.472 -0.1488  0.4394 -0.1926
10731TIP3    H153608   5.231   1.350  13.513 -0.6256 -1.4041 -0.0136
10731TIP3    H253609   5.290   1.297  13.385  0.3570  0.1347 -0.2314
10732TIP3   OH253610   3.955   3.803   2.448 -0.1169 -0.3721  0.0489
10732TIP3    H153611   3.944   3.890   2.410  0.5092  0.3089  1.3741
10732TIP3    H253612   3.958   3.818   2.543  1.1427 -1.7001  0.2538
10733TIP3   OH253613   3.806   6.706   4.097  0.0200  0.1773  0.2450
10733TIP3    H153614   3.861   6.664   4.031  1.2944  0.8688  0.8281
10733TIP3    H253615   3.806   6.799   4.074 -0.3141  0.2903  0.6682
10734TIP3   OH253616   6.263   0.038  16.634 -0.3512 -0.2905 -0.4977
10734TIP3    H153617   6.303   0.100  16.572 -2.0123 -0.2552 -1.6012
10734TIP3    H253618   6.218   0.093  16.697  0.9682 -0.3415  0.5446
10735TIP3   OH253619   5.085   0.020  14.413  0.0435  0.1112 -0.7501
10735TIP3    H153620   5.135   0.053  14.339  2.2294  0.3032  0.7243
10735TIP3    H253621   5.141  -0.045  14.454 -1.5089 -0.6995  0.1842
10736TIP3   OH253622   6.013   4.717  12.162  0.1455  0.1241  0.1266
10736TIP3    H153623   6.068   4.766  12.222 -0.3721  0.4885  0.3151
10736TIP3    H253624   6.023   4.763  12.078 -0.0345  0.3229  0.2117
10737TIP3   OH253625   3.199   5.319  14.971  0.2435 -0.3981  0.5515
10737TIP3    H153626   3.171   5.391  14.915 -3.1353 -2.5524 -0.8554
10737TIP3    H253627   3.275   5.282  14.926 -0.2087  0.0809 -0.6518
10738TIP3   OH253628   5.540   2.050  12.678  0.0876  0.9237 -0.6189
10738TIP3    H153629   5.516   2.114  12.745  0.7109  0.8712 -0.3455
10738TIP3    H253630   5.593   2.100  12.615  0.1666  0.7888 -0.6583
10739TIP3   OH253631   1.237   0.316   3.633 -0.0609 -0.5602  0.2787
10739TIP3    H153632   1.316   0.319   3.687 -0.1484  0.8024  0.3697
10739TIP3    H253633   1.253   0.379   3.563 -0.8526 -0.6726 -0.0188
10740TIP3   OH253634   0.021   2.455  11.659  0.6274 -0.1988 -0.1920
10740TIP3    H153635   0.114   2.458  11.683  1.0160 -2.1777 -1.2434
10740TIP3    H253636   0.009   2.530  11.601  1.3782  0.4734  0.4907
10741TIP3   OH253637   4.296   6.442   3.066  0.0016  0.9655  0.6226
10741TIP3    H153638   4.366   6.501   3.090  2.1472 -0.9267 -0.5858
10741TIP3    H253639   4.330   6.392   2.992 -1.2304 -2.4414  2.1127
10742TIP3   OH253640   5.244   4.293  13.841 -0.5151  0.0827 -0.1591
10742TIP3    H153641   5.330   4.267  13.874 -1.6529  0.7968  3.9987
10742TIP3    H253642   5.198   4.210  13.825  0.1483 -0.3275  0.0345
10743TIP3   OH253643   2.040   5.637   4.451  0.4857 -0.1220  0.1259
10743TIP3    H153644   2.125   5.642   4.406  0.6095 -1.7934  0.1180
10743TIP3    H253645   1.980   5.686   4.394  1.0397 -0.6012 -0.8946
10744TIP3   OH253646   1.517   3.762  13.723  0.7339  0.1895 -0.1155
10744TIP3    H153647   1.467   3.837  13.756  1.8423  0.8825  0.0188
10744TIP3    H253648   1.545   3.715  13.802 -0.7813 -0.9589 -0.2068
10745TIP3   OH253649   3.132   5.003  11.746 -0.0833 -0.4983  0.6965
10745TIP3    H153650   3.204   5.001  11.683 -0.6757 -2.5912  0.0356
10745TIP3    H253651   3.143   4.924  11.799 -1.8700 -0.8737  0.5815
10746TIP3   OH253652   1.348   0.830  13.433 -0.1604 -0.5000  0.6350
10746TIP3    H153653   1.360   0.808  13.526 -1.5253 -2.6505  0.3611
10746TIP3    H253654   1.277   0.895  13.434 -0.9740 -1.3552  1.0745
10747TIP3   OH253655   2.535   4.504  12.007 -0.4695 -0.6699  0.4014
10747TIP3    H153656   2.500   4.591  12.025  1.2426 -0.2096  1.7518
10747TIP3    H253657   2.480   4.471  11.936 -2.5512  0.6114  1.3120
10748TIP3   OH253658   3.585   3.654   2.626 -0.1585 -0.1719  0.4112
10748TIP3    H153659   3.601   3.741   2.661 -4.1931  0.9579 -0.0508
10748TIP3    H253660   3.540   3.607   2.697 -1.5960 -0.4350 -0.6177
10749TIP3   OH253661   0.349   4.251  12.567 -0.0242 -0.7034 -0.4048
10749TIP3    H153662   0.392   4.250  12.652  4.1295 -1.0816 -2.3072
10749TIP3    H253663   0.398   4.314  12.515 -2.3436 -0.5542 -2.6374
10750TIP3   OH253664   4.890   6.351   2.685  0.3256 -0.5047 -0.7499
10750TIP3    H153665   4.982   6.370   2.700 -0.1550  0.7412  0.9691
10750TIP3    H253666   4.877   6.264   2.723  0.2526  0.4793  1.6558
10751TIP3   OH253667   2.499   2.416  11.689  0.0890  0.4956  0.7035
10751TIP3    H153668   2.444   2.342  11.715  1.3233  0.3042  3.1522
10751TIP3    H253669   2.441   2.492  11.691 -0.5460  0.0113  1.2390
10752TIP3   OH253670   2.636   0.540  11.063  0.0128 -0.5347 -0.0094
10752TIP3    H153671   2.559   0.506  11.019  0.9545  0.0960 -2.2545
10752TIP3    H253672   2.704   0.473  11.048  1.0917  0.8987 -2.0159
10753TIP3   OH253673   4.363   4.931   5.138 -0.3865  0.0562 -0.4442
10753TIP3    H153674   4.325   5.014   5.110 -0.2946 -1.1600 -5.1014
10753TIP3    H253675   4.434   4.956   5.198 -0.7171  3.2790 -1.2059
10754TIP3   OH253676   0.766   3.092  10.568 -0.1851 -0.4914 -0.1715
10754TIP3    H153677   0.833   3.024  10.560  0.2757 -0.0283 -0.2487
10754TIP3    H253678   0.685   3.043  10.584  0.0343 -1.0920 -0.8384
10755TIP3   OH253679   4.732   2.026  12.750  0.8448  0.4450  0.5150
10755TIP3    H153680   4.678   1.957  12.789 -0.5059  0.7698 -0.6746
10755TIP3    H253681   4.673   2.102  12.746  1.7806  1.1750  0.2795
10756TIP3   OH253682   5.303   2.311   1.958 -0.1166  0.2117 -0.2516
10756TIP3    H153683   5.383   2.269   1.926 -0.3552  1.0430 -2.1022
10756TIP3    H253684   5.325   2.340   2.046  2.0269  1.3981 -1.1012
10757TIP3   OH253685   0.805   0.055   6.055  0.5621  0.1490 -0.5013
10757TIP3    H153686   0.866  -0.010   6.089  0.4784  0.9049  1.2321
10757TIP3    H253687   0.741   0.067   6.126 -1.3007 -0.2144 -2.0400
10758TIP3   OH253688   4.404   0.285  12.140 -0.3107 -0.5850  0.1143
10758TIP3    H153689   4.447   0.223  12.199  2.6536  0.8872 -0.3410
10758TIP3    H253690   4.470   0.306  12.074 -1.8486  1.6032 -0.8595
10759TIP3   OH253691   4.271   5.948   3.902 -0.5773  0.0186 -0.2697
10759TIP3    H153692   4.278   5.916   3.992  0.4659  0.9913  0.0217
10759TIP3    H253693   4.179   5.974   3.893 -1.0459 -1.4427  0.0155
10760TIP3   OH253694   2.286   0.549   1.114 -0.1616  0.8887  0.3720
10760TIP3    H153695   2.339   0.595   1.049  1.0099 -0.5370  0.2532
10760TIP3    H253696   2.230   0.491   1.063  0.3176  0.2181  0.5900
10761TIP3   OH253697   0.700   1.728  17.186  0.4759  0.0618  0.3358
10761TIP3    H153698   0.743   1.778  17.117  1.5059  0.7848  1.4477
10761TIP3    H253699   0.644   1.792  17.230 -0.4456 -0.4752 -0.0286
10762TIP3   OH253700   5.084   0.433  13.851 -0.7525  0.2788 -0.6080
10762TIP3    H153701   5.160   0.385  13.818 -0.3131 -0.0137  0.7755
10762TIP3    H253702   5.103   0.447  13.944 -1.7895  1.3821 -0.5420
10763TIP3   OH253703   1.974   0.737  13.546 -0.2998  0.2576 -0.0924
10763TIP3    H153704   1.944   0.661  13.497  1.3550  0.0088 -0.7746
10763TIP3    H253705   2.003   0.701  13.630 -2.3716  0.5804  0.8310
10764TIP3   OH253706   4.049   1.394  11.614 -0.0343  0.8648  0.1933
10764TIP3    H153707   4.080   1.467  11.669  0.4029  0.0434  1.0771
10764TIP3    H253708   3.998   1.436  11.545 -0.5981  1.9457  1.2253
10765TIP3   OH253709   6.162   1.750   4.933 -0.5512  0.6336 -0.3762
10765TIP3    H153710   6.156   1.741   4.838  0.0694  1.9924 -0.5690
10765TIP3    H253711   6.116   1.833   4.951 -2.2685 -0.4968  0.7333
10766TIP3   OH253712   1.321   4.594  14.535 -0.1940  0.4575  0.0335
10766TIP3    H153713   1.400   4.553  14.568 -0.0957  0.2697 -0.4284
10766TIP3    H253714   1.349   4.678  14.500 -0.1626  0.2997 -0.3231
10767TIP3   OH253715   2.850   0.439  12.816  0.2173 -0.2620  0.0906
10767TIP3    H153716   2.785   0.435  12.746  2.1418  1.3512 -1.9178
10767TIP3    H253717   2.835   0.523  12.858 -0.9790 -1.2540  1.7712
10768TIP3   OH253718   1.364   0.932  14.061 -0.0139 -0.2804  0.4149
10768TIP3    H153719   1.411   0.953  13.980 -0.8168  1.4031  0.3392
10768TIP3    H253720   1.300   1.003  14.070 -1.1783 -1.4277  1.5657
10769TIP3   OH253721   5.756   6.341   0.905  0.6934  0.2922  0.1501
10769TIP3    H153722   5.845   6.322   0.876  0.8839  1.2488  0.0709
10769TIP3    H253723   5.766   6.374   0.994  0.4498  0.6121  0.0631
10770TIP3   OH253724   1.937   4.186   0.044 -0.3329 -0.3482  0.1272
10770TIP3    H153725   1.871   4.160   0.108  0.0492 -0.1214  0.6220
10770TIP3    H253726   1.922   4.280   0.031  1.4462  0.3116  2.1581
10771TIP3   OH253727   1.142   2.144  11.310 -0.1648  0.2855 -1.3220
10771TIP3    H153728   1.180   2.084  11.374  0.5555  1.0909 -0.9794
10771TIP3    H253729   1.198   2.137  11.234  0.1667  0.8372 -1.1286
10772TIP3   OH253730   1.998   5.076   2.588 -0.2958  0.3740 -0.1108
10772TIP3    H153731   2.062   5.040   2.650  1.3361  3.2788  0.0276
10772TIP3    H253732   1.952   4.999   2.555  1.2415 -1.5980  1.9850
10773TIP3   OH253733   2.777   1.865  14.530 -1.2931 -0.1348 -0.0034
10773TIP3    H153734   2.691   1.843  14.564 -1.6065  0.5735 -0.3226
10773TIP3    H253735   2.762   1.895  14.441 -0.8650  1.0527  0.2997
10774TIP3   OH253736   6.648   0.690   2.456 -0.6304 -0.0754 -0.5597
10774TIP3    H153737   6.600   0.673   2.536 -0.4544  0.4371 -0.3410
10774TIP3    H253738   6.700   0.611   2.442  0.2895  0.3116  0.5168
10775TIP3   OH253739   0.789   4.576   5.374 -0.2444 -0.2835  0.2647
10775TIP3    H153740   0.788   4.668   5.350  0.7978 -0.2809  0.1949
10775TIP3    H253741   0.697   4.548   5.365 -0.3949  0.4696 -0.7183
10776TIP3   OH253742   2.667   1.232  14.313  0.2160 -0.1490 -0.0643
10776TIP3    H153743   2.720   1.272  14.244  0.5526 -0.2588  0.1249
10776TIP3    H253744   2.701   1.142  14.319  1.3049  0.3261  1.3563
10777TIP3   OH253745   6.152   0.448   0.222  0.2534  0.0283 -0.1947
10777TIP3    H153746   6.166   0.497   0.302  0.1353  0.5738 -0.4981
10777TIP3    H253747   6.239   0.420   0.194  0.2209 -0.8790  0.5518
10778TIP3   OH253748   2.682   5.938  14.721 -0.3862 -0.2039 -0.0532
10778TIP3    H153749   2.609   5.880  14.699 -0.5484  0.0951 -0.3234
10778TIP3    H253750   2.723   5.957  14.636 -1.9324  2.1907 -0.3817
10779TIP3   OH253751   1.525   1.789  13.586  0.2081  0.1208 -0.1920
10779TIP3    H153752   1.506   1.802  13.493  0.0808 -1.6976 -0.4409
10779TIP3    H253753   1.470   1.716  13.613 -0.0614  0.8643  1.4474
10780TIP3   OH253754   3.154   0.513  13.934 -0.3146 -0.3432 -0.0403
10780TIP3    H153755   3.202   0.590  13.902  1.8350 -1.6455 -0.1876
10780TIP3    H253756   3.168   0.515  14.029 -0.5093 -0.3901 -0.0109
10781TIP3   OH253757   0.223   1.051   5.394  0.3158 -0.4624  0.1764
10781TIP3    H153758   0.295   1.098   5.350 -0.6430 -1.0190 -2.1371
10781TIP3    H253759   0.144   1.083   5.351 -0.6522 -1.5245  1.1002
10782TIP3   OH253760   0.629   6.463   2.347 -0.0574  0.2329  0.4802
10782TIP3    H153761   0.619   6.376   2.385  1.7418 -0.3485 -0.2886
10782TIP3    H253762   0.645   6.447   2.254 -0.9307  1.4600  0.0866
10783TIP3   OH253763   6.392   1.394  12.188 -0.0441  0.0259 -0.7090
10783TIP3    H153764   6.397   1.311  12.235 -2.0851  0.0424 -0.3943
10783TIP3    H253765   6.304   1.396  12.151 -1.0746  3.1406  1.4627
10784TIP3   OH253766   2.347   4.230   3.754 -0.4452  0.3837  0.7930
10784TIP3    H153767   2.372   4.159   3.695  0.0685 -0.2975  1.8130
10784TIP3    H253768   2.300   4.292   3.698 -1.3588 -0.9884 -0.0175
10785TIP3   OH253769   2.295   5.342  10.736  0.4043  0.5619  0.0984
10785TIP3    H153770   2.366   5.279  10.729  0.9007  1.2289 -1.2708
10785TIP3    H253771   2.333   5.425  10.705 -1.0978  0.7992 -1.2838
10786TIP3   OH253772   0.878   2.366  13.604  0.1642 -0.3783 -0.7259
10786TIP3    H153773   0.919   2.450  13.621  1.5328 -1.0755 -0.3973
10786TIP3    H253774   0.844   2.338  13.689  2.0518 -1.3163 -0.2182
10787TIP3   OH253775   2.039   0.427  14.313  0.0939 -0.0461  0.4838
10787TIP3    H153776   1.983   0.448  14.388 -1.5318  0.9170 -0.9306
10787TIP3    H253777   2.114   0.486  14.322 -0.2110  0.2510  1.1932
10788TIP3   OH253778   6.030   1.654   1.089  0.0006  0.4201 -0.1588
10788TIP3    H153779   5.939   1.637   1.112 -0.0493  0.2083 -0.5082
10788TIP3    H253780   6.041   1.615   1.003  0.4461  0.3728 -0.0840
10789TIP3   OH253781   1.209   6.453  15.630  0.2679 -0.6934 -0.1300
10789TIP3    H153782   1.214   6.537  15.674  0.0005 -0.0484 -1.2894
10789TIP3    H253783   1.136   6.408  15.672  0.0018 -0.0785  0.0710
10790TIP3   OH253784   0.592   1.411   1.109 -0.2071 -0.1152  0.1582
10790TIP3    H153785   0.573   1.476   1.041  3.3151 -1.0530 -1.9917
10790TIP3    H253786   0.679   1.434   1.141 -0.4236 -1.6394  2.0653
10791TIP3   OH253787   2.838   4.019   2.148  0.8264 -0.3725 -0.0146
10791TIP3    H153788   2.918   3.994   2.194  0.4455 -0.4659  0.5927
10791TIP3    H253789   2.795   4.081   2.206  0.8546  0.3227 -0.7023
10792TIP3   OH253790   5.019   3.801   5.740  0.0085  0.0450 -0.0422
10792TIP3    H153791   5.001   3.732   5.805 -2.6768 -1.4798 -2.1796
10792TIP3    H253792   5.088   3.765   5.685 -0.2874 -0.2792 -0.2076
10793TIP3   OH253793   5.154   6.362   2.672 -0.2921 -0.2542 -0.1946
10793TIP3    H153794   5.202   6.421   2.729  2.8972 -2.5610 -0.2782
10793TIP3    H253795   5.199   6.367   2.587 -2.0823 -0.3289 -1.2206
10794TIP3   OH253796   0.216   6.697  14.762  0.0587 -0.2895  0.3955
10794TIP3    H153797   0.148   6.681  14.827 -0.0141  0.2210  0.4526
10794TIP3    H253798   0.249   6.784  14.783 -1.6798  0.9926 -1.7448
10795TIP3   OH253799   3.332   4.975  11.587 -0.1829  0.1507 -0.4678
10795TIP3    H153800   3.321   5.002  11.495 -1.1349  0.7207 -0.1987
10795TIP3    H253801   3.397   4.905  11.583 -0.5805 -0.1886 -1.6385
10796TIP3   OH253802   6.194   3.408  15.954  0.1812  0.5188  0.4409
10796TIP3    H153803   6.186   3.428  15.860  0.5405 -1.8239 -0.1491
10796TIP3    H253804   6.114   3.361  15.976  0.4796  0.3018  1.0952
10797TIP3   OH253805   3.944   4.028  12.798  0.3812  0.2152 -0.0627
10797TIP3    H153806   3.873   4.092  12.808  0.8521  0.6883  0.2730
10797TIP3    H253807   3.901   3.951  12.759 -0.2766  0.5673 -0.0490
10798TIP3   OH253808   4.034   4.263   3.968 -0.3637 -0.2317  0.2212
10798TIP3    H153809   4.011   4.332   4.030 -0.7951  0.1862 -0.3923
10798TIP3    H253810   3.960   4.202   3.972 -0.6368  0.0647 -0.2609
10799TIP3   OH253811   2.137   5.715   1.635  0.5563 -0.5677  0.0048
10799TIP3    H153812   2.104   5.752   1.553 -1.0022 -0.1414  0.7924
10799TIP3    H253813   2.124   5.621   1.625  0.9991 -0.5824 -0.4945
10800TIP3   OH253814   1.863   3.870  13.772 -0.4864 -0.4281  0.3271
10800TIP3    H153815   1.920   3.800  13.804  1.2992  0.4439 -0.7889
10800TIP3    H253816   1.796   3.879  13.839 -0.4567 -2.8083  0.7694
10801TIP3   OH253817   2.323   5.270   4.480 -0.4414 -0.1274  0.1890
10801TIP3    H153818   2.242   5.272   4.429  0.3233  0.1930 -1.0567
10801TIP3    H253819   2.332   5.359   4.513  0.1299  0.2296 -0.8856
10802TIP3   OH253820   0.179   0.587   1.808  0.0658  0.5858  0.3369
10802TIP3    H153821   0.101   0.536   1.788  0.0520  0.7487 -0.0324
10802TIP3    H253822   0.207   0.556   1.894  0.9382 -1.1598 -0.5297
10803TIP3   OH253823   3.597   5.636  12.132  0.0595  0.0942  0.3743
10803TIP3    H153824   3.652   5.619  12.208 -0.5511 -0.8716  0.6170
10803TIP3    H253825   3.514   5.594  12.153 -0.9071  1.7929  0.1642
10804TIP3   OH253826   5.279   0.258  16.021 -0.1551  1.1406  0.0405
10804TIP3    H153827   5.270   0.349  16.049 -1.5574  1.1374 -0.3218
10804TIP3    H253828   5.192   0.221  16.032 -0.1202  0.4023 -1.7690
10805TIP3   OH253829   2.292   2.523  14.686  0.2268  0.2277 -0.3806
10805TIP3    H153830   2.254   2.592  14.632  1.1178  0.5338 -0.6336
10805TIP3    H253831   2.384   2.548  14.695  0.2059 -0.0829  0.8633
10806TIP3   OH253832   3.711   3.096  16.537 -0.5933 -0.2438 -0.3959
10806TIP3    H153833   3.797   3.083  16.497 -0.7039 -1.7076 -0.1904
10806TIP3    H253834   3.684   3.182  16.505  0.3081 -0.3882 -1.6572
10807TIP3   OH253835   5.816   1.401   5.448 -0.6533 -0.1956  0.0039
10807TIP3    H153836   5.820   1.361   5.535 -1.6350 -1.1560 -0.3588
10807TIP3    H253837   5.780   1.488   5.463  1.8396  0.7691  0.8481
10808TIP3   OH253838   2.843   2.188   2.631  0.0223 -0.8064 -0.7185
10808TIP3    H153839   2.866   2.105   2.588  0.0507 -0.3690 -1.5823
10808TIP3    H253840   2.769   2.221   2.581  0.0891 -0.2518 -0.4603
10809TIP3   OH253841   4.653   0.628   6.544  0.5876 -0.5292  1.0844
10809TIP3    H153842   4.717   0.699   6.536 -0.6528  0.4189 -1.3618
10809TIP3    H253843   4.675   0.568   6.474 -1.3075 -0.0317 -0.0143
10810TIP3   OH253844   4.204   6.099   6.760 -0.2053 -0.1765  0.1841
10810TIP3    H153845   4.288   6.142   6.775 -0.3028  0.1757 -0.2582
10810TIP3    H253846   4.176   6.130   6.674 -0.3058 -1.0777 -0.1235
10811TIP3   OH253847   6.751   0.747  11.736 -0.1483 -0.6681  0.1207
10811TIP3    H153848   6.819   0.811  11.714 -1.3226  0.6557  0.1644
10811TIP3    H253849   6.692   0.749  11.661 -0.6406 -1.0907  0.4950
10812TIP3   OH253850   3.691   0.123  17.220 -0.2609  0.5903 -0.7046
10812TIP3    H153851   3.751   0.180  17.267 -0.2721  0.4636 -0.5376
10812TIP3    H253852   3.749   0.064  17.170 -0.2470  0.5618 -0.6549
10813TIP3   OH253853   3.791   4.609  17.255  0.7872 -0.2640  0.0217
10813TIP3    H153854   3.865   4.642  17.306  0.1710 -0.5141  1.1185
10813TIP3    H253855   3.813   4.518  17.237  0.8242 -0.2968  0.2196
10814TIP3   OH253856   4.025   5.091  15.393  0.1640  0.0308 -0.1396
10814TIP3    H153857   4.043   5.054  15.307  0.8884 -0.2979  0.1486
10814TIP3    H253858   4.007   5.016  15.449 -1.9193  0.3217 -0.3503
10815TIP3   OH253859   0.762   2.814  16.577  0.1105 -0.1093  0.3186
10815TIP3    H153860   0.754   2.803  16.672 -0.0770  2.8284  0.7105
10815TIP3    H253861   0.846   2.773  16.555  0.3355 -0.4870  1.7955
10816TIP3   OH253862   0.425   3.105   2.681 -0.4717 -0.3014  0.1904
10816TIP3    H153863   0.514   3.126   2.654  0.2705 -0.6823  2.2088
10816TIP3    H253864   0.425   3.114   2.776 -3.4763  3.0374  0.1056
10817TIP3   OH253865   2.047   6.586  15.868 -0.3414 -0.5887  1.1212
10817TIP3    H153866   2.000   6.575  15.951 -0.2142 -0.9602  1.1446
10817TIP3    H253867   2.040   6.501  15.825 -1.7481  0.0440  0.0326
10818TIP3   OH253868   4.560   2.925  16.896  0.2569  0.2317 -0.2956
10818TIP3    H153869   4.542   2.837  16.862  0.2240  0.2678 -0.3710
10818TIP3    H253870   4.513   2.929  16.979  0.4969  0.0738 -0.1520
10819TIP3   OH253871   0.835   3.192  11.020  0.2829 -0.0169  0.0744
10819TIP3    H153872   0.784   3.270  11.041 -0.4891 -0.2879 -0.7661
10819TIP3    H253873   0.906   3.223  10.965 -0.7101 -0.0585 -1.2668
10820TIP3   OH253874   2.977   0.883  17.003 -0.1821  0.0095  0.4291
10820TIP3    H153875   2.988   0.933  17.083 -1.1037  0.7944  0.0788
10820TIP3    H253876   3.014   0.797  17.024  1.9595  0.9729  0.8482
10821TIP3   OH253877   0.574   4.077  14.459  0.2147 -0.3397  0.4340
10821TIP3    H153878   0.612   4.081  14.547 -1.4547 -0.8944  1.2396
10821TIP3    H253879   0.616   4.148  14.410  1.5434 -0.3472  1.5248
10822TIP3   OH253880   0.203   3.556  15.530 -0.3578  0.1355 -0.1689
10822TIP3    H153881   0.128   3.499  15.552  0.3887 -0.9284 -0.2977
10822TIP3    H253882   0.277   3.496  15.526  0.2829  0.9770 -1.3244
10823TIP3   OH253883   5.664   4.724   6.548 -0.4903  0.1898 -0.2179
10823TIP3    H153884   5.736   4.679   6.592  1.1789  1.1866 -1.8252
10823TIP3    H253885   5.688   4.817   6.552 -1.8106  0.5627 -0.5800
10824TIP3   OH253886   5.580   4.711  13.120 -0.5927 -0.5383  0.3968
10824TIP3    H153887   5.629   4.670  13.049 -0.4603 -1.6559  1.1144
10824TIP3    H253888   5.567   4.802  13.091  3.1734  0.2753  0.8288
10825TIP3   OH253889   1.731   2.196  16.083  0.4356 -0.0055  0.4471
10825TIP3    H153890   1.710   2.247  16.161  0.5636 -0.5512  0.8498
10825TIP3    H253891   1.660   2.132  16.077  1.5491 -1.4144  1.4180
10826TIP3   OH253892   4.473   0.034   5.993 -0.1902 -0.3870 -0.0341
10826TIP3    H153893   4.520   0.117   5.992 -0.4207 -0.2232  1.0137
10826TIP3    H253894   4.398   0.047   5.935  0.8385 -0.5264 -1.4165
10827TIP3   OH253895   2.390   2.043   2.249 -0.8915 -0.1679 -0.5440
10827TIP3    H153896   2.383   1.957   2.290 -1.1122  0.8431  1.7260
10827TIP3    H253897   2.361   2.104   2.317  0.7286  1.8232 -1.5335
10828TIP3   OH253898   3.652   1.627  14.832 -0.0667 -0.3435 -0.3568
10828TIP3    H153899   3.663   1.700  14.770 -0.4915 -0.3268 -0.4178
10828TIP3    H253900   3.686   1.551  14.785  0.7371 -0.1266 -0.1483
10829TIP3   OH253901   1.937   1.857  14.192  0.2259  0.1165 -0.3374
10829TIP3    H153902   1.959   1.842  14.101 -0.2083 -0.5113 -0.3442
10829TIP3    H253903   1.890   1.778  14.219 -0.0982  0.5142  0.2825
10830TIP3   OH253904   3.215   6.177   5.261  0.4553 -0.3298 -0.2397
10830TIP3    H153905   3.132   6.174   5.309  0.5066  0.3148 -0.0962
10830TIP3    H253906   3.239   6.270   5.261  0.3223 -0.2817 -1.7496
10831TIP3   OH253907   5.843   2.467  12.712  0.6479 -0.1568 -0.4000
10831TIP3    H153908   5.856   2.548  12.762  1.9390 -0.4709 -0.1841
10831TIP3    H253909   5.753   2.472  12.683  0.3096  0.7644  0.6899
10832TIP3   OH253910   2.093   6.527  13.510  0.0035 -0.1802  0.6808
10832TIP3    H153911   2.014   6.475  13.499  0.0179  0.0661 -0.8751
10832TIP3    H253912   2.062   6.618  13.513  0.2428 -0.0533 -0.3839
10833TIP3   OH253913   6.573   1.101  15.557  0.4298  0.2687 -0.0193
10833TIP3    H153914   6.491   1.053  15.569 -0.2270  1.0956 -1.0050
10833TIP3    H253915   6.625   1.045  15.499  0.1319  0.2165 -0.2409
10834TIP3   OH253916   3.460   2.302   1.886  0.0960 -0.2147  0.2359
10834TIP3    H153917   3.466   2.257   1.802  0.6527  0.9541 -0.3764
10834TIP3    H253918   3.522   2.375   1.879 -0.3313  0.2977  1.4185
10835TIP3   OH253919   6.683   4.502  17.036 -0.0996 -0.1264 -0.1390
10835TIP3    H153920   6.679   4.427  17.095  0.8945  0.5508  0.8283
10835TIP3    H253921   6.741   4.473  16.965 -1.4640 -1.0161 -0.9367
10836TIP3   OH253922   1.532   5.060   2.050  0.0224  0.0394 -0.4678
10836TIP3    H153923   1.593   5.131   2.029  0.9397 -0.5602  0.1460
10836TIP3    H253924   1.587   4.988   2.078 -1.0180  0.0118  1.7347
10837TIP3   OH253925   1.357   3.360  15.603 -0.2039  0.2748  0.2564
10837TIP3    H153926   1.307   3.394  15.677  1.8119 -0.1964  1.9343
10837TIP3    H253927   1.350   3.265  15.611 -1.4536  0.1916 -1.2879
10838TIP3   OH253928   4.074   5.621   5.632  0.5779 -0.0663  0.4238
10838TIP3    H153929   4.073   5.647   5.724 -3.4007  0.3486  0.4354
10838TIP3    H253930   4.058   5.702   5.583 -1.5630 -0.8108 -0.2463
10839TIP3   OH253931   3.717   1.643   0.873 -0.1600  0.1286 -0.1871
10839TIP3    H153932   3.678   1.557   0.889 -1.3107  0.5375 -0.6593
10839TIP3    H253933   3.684   1.669   0.787  0.8807  0.6690 -0.4409
10840TIP3   OH253934   0.544   5.351  11.891 -0.0873  0.3881 -0.3898
10840TIP3    H153935   0.475   5.285  11.880  0.2314 -0.1021  0.5176
10840TIP3    H253936   0.496   5.434  11.900 -0.4893  0.3168 -1.5868
10841TIP3   OH253937   4.221   0.581  15.126 -0.3667 -0.4236 -0.2403
10841TIP3    H153938   4.276   0.510  15.093  0.9422 -0.0038  0.9242
10841TIP3    H253939   4.158   0.538  15.184 -0.9264 -0.8427 -1.1331
10842TIP3   OH253940   2.625   1.122  14.047 -0.3647 -0.8023  0.1323
10842TIP3    H153941   2.603   1.208  14.013  1.9519  0.9538  2.6660
10842TIP3    H253942   2.547   1.094  14.095 -1.5734 -0.7347 -1.7278
10843TIP3   OH253943   3.106   3.587   0.623 -0.0638 -0.2114 -0.5563
10843TIP3    H153944   3.026   3.613   0.576 -0.0352 -0.5046 -0.7688
10843TIP3    H253945   3.174   3.643   0.587  0.4046 -1.8912 -2.4616
10844TIP3   OH253946   5.371   5.136  14.065  0.0439 -0.0166 -0.5736
10844TIP3    H153947   5.438   5.116  13.999 -0.3110  0.2951 -1.0406
10844TIP3    H253948   5.419   5.147  14.146  0.3870 -1.5182 -0.5426
10845TIP3   OH253949   6.216   5.620  14.342 -0.0237 -0.2415  0.5834
10845TIP3    H153950   6.142   5.642  14.399 -0.7609  2.0348 -1.0860
10845TIP3    H253951   6.285   5.681  14.368 -0.4384  0.9688 -0.9741
10846TIP3   OH253952   4.406   6.038  12.226  0.2624 -0.2622  0.5814
10846TIP3    H153953   4.318   6.023  12.261  0.3398 -0.4059  0.7146
10846TIP3    H253954   4.404   6.129  12.194 -0.1998 -0.5372 -0.2019
10847TIP3   OH253955   2.478   2.826  12.144  0.2550  0.3756 -0.4782
10847TIP3    H153956   2.484   2.777  12.226  0.6471 -0.5735 -1.0624
10847TIP3    H253957   2.515   2.767  12.078  1.1565  1.6213 -1.1311
10848TIP3   OH253958   5.160   0.924  14.219 -0.5534  0.6340 -0.3489
10848TIP3    H153959   5.114   0.890  14.296  0.5478  1.2746  0.6309
10848TIP3    H253960   5.250   0.939  14.250  0.1969 -0.0725 -2.0369
10849TIP3   OH253961   0.599   0.491   4.297 -0.0525  0.4054  0.8248
10849TIP3    H153962   0.567   0.454   4.215  2.5434  0.0603 -0.1565
10849TIP3    H253963   0.603   0.585   4.282  0.9536  0.2954  0.2898
10850TIP3   OH253964   6.591   0.240  10.741 -0.7597 -0.3507 -0.1628
10850TIP3    H153965   6.595   0.329  10.707 -0.3099 -0.1226  0.4797
10850TIP3    H253966   6.557   0.250  10.830  0.1292 -0.7319  0.2278
10851TIP3   OH253967   1.349   4.310  16.426  0.3048  0.3874  0.7486
10851TIP3    H153968   1.395   4.374  16.373  1.5521 -1.1153 -0.0438
10851TIP3    H253969   1.267   4.295  16.379  0.6345  0.3464  0.1768
10852TIP3   OH253970   6.217   6.527  12.382 -0.1881 -0.2517  0.4611
10852TIP3    H153971   6.188   6.603  12.433 -0.2743 -0.0226  0.0796
10852TIP3    H253972   6.221   6.456  12.445  1.9176  0.5344  1.2891
10853TIP3   OH253973   5.901   3.221  12.472  0.2771  0.0099  0.4965
10853TIP3    H153974   5.947   3.304  12.455  0.0197  0.1916  0.6746
10853TIP3    H253975   5.810   3.248  12.490  0.5527 -0.1489  2.3086
10854TIP3   OH253976   2.396   2.605   3.058 -0.1167  0.1885  0.1471
10854TIP3    H153977   2.316   2.634   3.102 -0.7758 -0.0240 -0.8684
10854TIP3    H253978   2.391   2.645   2.971 -0.6560 -2.2396 -1.0164
10855TIP3   OH253979   6.509   2.537  11.698 -0.2845  0.3698 -0.8897
10855TIP3    H153980   6.534   2.628  11.682  0.3271  0.6828  1.4648
10855TIP3    H253981   6.584   2.486  11.667 -1.7404  0.3210 -4.8680
10856TIP3   OH253982   6.495   4.193  15.427 -0.1789 -0.1698 -0.4975
10856TIP3    H153983   6.467   4.251  15.356  0.5192 -1.1014 -1.5639
10856TIP3    H253984   6.468   4.106  15.398  1.1706 -0.7139 -0.1886
10857TIP3   OH253985   6.681   1.960  11.246 -0.2938 -0.2069 -0.1470
10857TIP3    H153986   6.618   2.014  11.196  0.7841 -0.1342 -1.4855
10857TIP3    H253987   6.764   2.006  11.236 -0.0006 -0.2866  1.6403
10858TIP3   OH253988   3.495   0.795   2.420 -0.1052 -0.3260  0.1841
10858TIP3    H153989   3.505   0.787   2.515  1.6246  1.1630  0.1750
10858TIP3    H253990   3.584   0.789   2.387 -0.3078  2.2924 -1.0554
10859TIP3   OH253991   4.065   0.481   6.625 -0.5709 -0.0511  0.0704
10859TIP3    H153992   4.023   0.396   6.636  0.3189 -0.5245 -0.0408
10859TIP3    H253993   4.158   0.460   6.615 -0.4232  0.8860 -0.6484
10860TIP3   OH253994   6.746   3.725   1.863  0.0649 -0.3453  0.3065
10860TIP3    H153995   6.651   3.739   1.860  0.2075  0.6323  0.2447
10860TIP3    H253996   6.759   3.644   1.812 -0.6607 -0.1046 -0.2826
10861TIP3   OH253997   3.274   4.335  11.502 -0.1558  0.7014  0.0201
10861TIP3    H153998   3.240   4.374  11.421  0.0906 -0.0351 -0.4439
10861TIP3    H253999   3.274   4.241  11.485 -0.4264  0.5097  1.0060
10862TIP3   OH254000   4.627   6.434   5.137 -0.0779 -0.0567 -0.2782
10862TIP3    H154001   4.632   6.490   5.059 -0.9198  0.1296 -0.2010
10862TIP3    H254002   4.563   6.367   5.115  0.4927 -0.6632 -0.1473
10863TIP3   OH254003   4.194   4.934   0.441 -0.2281 -0.1739 -0.3514
10863TIP3    H154004   4.157   5.008   0.393 -1.8788  0.8712  2.3093
10863TIP3    H254005   4.232   4.878   0.373 -0.8695  2.0042 -2.6567
10864TIP3   OH254006   0.490   1.693  15.206  0.0575 -0.1951 -0.0793
10864TIP3    H154007   0.540   1.626  15.158  0.6659 -0.7322  1.2658
10864TIP3    H254008   0.476   1.655  15.293 -2.4644  0.0573 -0.2845
10865TIP3   OH254009   2.252   1.371  13.127 -0.5147  0.1293 -0.2171
10865TIP3    H154010   2.231   1.444  13.068 -0.3463 -1.2318 -2.0515
10865TIP3    H254011   2.167   1.330  13.145 -0.5476  0.4539  0.3808
10866TIP3   OH254012   0.279   4.211   1.383  0.0430  0.5840 -0.5054
10866TIP3    H154013   0.250   4.130   1.424 -1.7943  0.4289 -1.9722
10866TIP3    H254014   0.359   4.235   1.431 -0.0545 -1.4000  0.7729
10867TIP3   OH254015   6.453   3.341   4.942  0.4119  0.6315  0.2399
10867TIP3    H154016   6.533   3.393   4.935  0.1081  1.4705  2.2476
10867TIP3    H254017   6.478   3.266   4.995  0.0375  0.5058  0.2385
10868TIP3   OH254018   4.115   4.227   1.702  0.2548 -0.2994  0.2833
10868TIP3    H154019   4.025   4.258   1.696  0.0158 -0.7579  1.2889
10868TIP3    H254020   4.162   4.298   1.747  0.1251 -0.5595  0.8419
10869TIP3   OH254021   0.804   0.172   2.135 -0.1752 -0.1337  0.3786
10869TIP3    H154022   0.767   0.172   2.047  0.2311 -1.0361  0.2015
10869TIP3    H254023   0.860   0.250   2.137  1.7437 -1.3957 -1.0211
10870TIP3   OH254024   0.638   1.546  14.018  0.1838  0.5353  0.1041
10870TIP3    H154025   0.707   1.594  14.062  1.6447 -1.2013 -0.1441
10870TIP3    H254026   0.618   1.598  13.940  2.7276  0.1267 -0.9231
10871TIP3   OH254027   4.332   6.389  14.492  0.1472 -0.6923  0.4102
10871TIP3    H154028   4.238   6.371  14.488 -0.2512  1.3663 -3.0762
10871TIP3    H254029   4.371   6.304  14.515 -2.4525 -1.8356  1.0075
10872TIP3   OH254030   4.694   6.204  11.993 -0.0807 -0.4880  1.0642
10872TIP3    H154031   4.600   6.199  12.010  0.2324 -0.1607  3.1183
10872TIP3    H254032   4.725   6.274  12.050  0.9882  1.5518 -1.7738
10873TIP3   OH254033   3.131   5.245  11.905 -0.2151 -0.0704  0.2869
10873TIP3    H154034   3.193   5.185  11.946 -1.5958 -1.0292  1.0576
10873TIP3    H254035   3.088   5.193  11.837 -0.3995  0.4907 -0.0374
10874TIP3   OH254036   3.317   4.393  12.455 -0.4831 -0.6118 -0.2944
10874TIP3    H154037   3.368   4.440  12.389 -0.2541 -1.1380 -0.4973
10874TIP3    H254038   3.359   4.415  12.538 -1.4368  0.9383 -0.1776
10875TIP3   OH254039   2.302   3.719  14.432 -0.0121 -0.1643 -0.7994
10875TIP3    H154040   2.213   3.753  14.438  0.1530  0.0247  1.2220
10875TIP3    H254041   2.292   3.636  14.385 -0.9277  0.8133 -2.4480
10876TIP3   OH254042   4.811   6.714  12.998  0.2186  0.2838  0.2239
10876TIP3    H154043   4.800   6.788  12.939  0.1863  0.4993  0.4973
10876TIP3    H254044   4.883   6.739  13.056 -1.3406  1.1592  1.8947
10877TIP3   OH254045   2.673   1.083  16.438  0.5028  0.3893 -0.5846
10877TIP3    H154046   2.765   1.108  16.437  1.1456 -1.7060 -0.1958
10877TIP3    H254047   2.663   1.028  16.360 -0.1135 -0.3249 -0.0185
10878TIP3   OH254048   2.827   0.632   2.805  0.0129 -0.5737  0.1231
10878TIP3    H154049   2.764   0.563   2.785 -1.3330  0.2937  1.1542
10878TIP3    H254050   2.909   0.586   2.823 -0.3661 -1.7498 -1.0154
10879TIP3   OH254051   0.327   3.220   3.721  0.8436 -0.0044 -0.1831
10879TIP3    H154052   0.386   3.295   3.714  0.7005  0.2148  0.8677
10879TIP3    H254053   0.318   3.204   3.815  1.1535 -1.5728 -0.3898
10880TIP3   OH254054   5.259   5.361   5.407  0.2420  0.1938 -0.3819
10880TIP3    H154055   5.278   5.307   5.331 -1.5382 -2.1530  0.7277
10880TIP3    H254056   5.298   5.313   5.481 -0.5880  0.8940  0.5392
10881TIP3   OH254057   6.581   2.265  12.993  0.2390 -0.4136  0.1126
10881TIP3    H154058   6.599   2.182  12.950  1.2772 -0.6186  0.9100
10881TIP3    H254059   6.647   2.325  12.958  2.6622 -1.1652  3.0354
10882TIP3   OH254060   0.045   3.594   2.635 -0.1263  0.5414 -0.0329
10882TIP3    H154061   0.071   3.565   2.723 -0.0779  1.1152  0.1445
10882TIP3    H254062   0.102   3.668   2.616 -0.4061  0.6696 -0.3864
10883TIP3   OH254063   5.826   2.002  17.124  0.3512  0.0199  0.2198
10883TIP3    H154064   5.841   1.982  17.032 -2.4868  1.6024 -0.6986
10883TIP3    H254065   5.884   2.075  17.143  0.9035 -0.2752 -0.3137
10884TIP3   OH254066   0.432   3.979   5.040  0.7819 -0.0371 -0.0718
10884TIP3    H154067   0.523   4.009   5.032  0.4371  0.7877 -1.2844
10884TIP3    H254068   0.438   3.884   5.044  1.7170  0.0273  0.1977
10885TIP3   OH254069   4.261   0.997  15.771  0.2262 -0.2455 -0.2954
10885TIP3    H154070   4.166   1.008  15.765  0.2598  1.2126  1.3092
10885TIP3    H254071   4.294   1.083  15.795  2.0104 -0.6567 -1.0877
10886TIP3   OH254072   3.883   4.332  12.511  0.3941 -0.4926  0.2158
10886TIP3    H154073   3.976   4.350  12.527  0.0418  1.7904 -0.0515
10886TIP3    H254074   3.878   4.236  12.511  2.8477 -0.7060 -0.4259
10887TIP3   OH254075   1.733   4.528   5.509  0.2024  0.4785 -0.0984
10887TIP3    H154076   1.637   4.522   5.502  0.2962 -0.5516 -0.7425
10887TIP3    H254077   1.749   4.612   5.550 -0.9087  1.5597 -1.7689
10888TIP3   OH254078   0.145   5.135   1.355 -0.2618  0.0254 -0.6232
10888TIP3    H154079   0.089   5.211   1.337 -0.2922  0.6539  1.8065
10888TIP3    H254080   0.175   5.148   1.445  0.3503 -2.4819 -0.4004
10889TIP3   OH254081   6.571   2.621  10.618  0.1683  0.2474  0.2359
10889TIP3    H154082   6.483   2.588  10.635 -0.7488  1.6784 -1.5018
10889TIP3    H254083   6.622   2.542  10.596 -0.5087 -0.6474  1.6724
10890TIP3   OH254084   6.724   2.614  14.598 -0.2610 -0.4188 -0.6178
10890TIP3    H154085   6.746   2.698  14.637 -0.0851 -0.3356 -0.8950
10890TIP3    H254086   6.646   2.585  14.646  0.2394 -0.5500  0.1373
10891TIP3   OH254087   5.882   3.124  14.019  0.0252 -0.4376 -0.2108
10891TIP3    H154088   5.902   3.080  14.102 -0.7207  0.0310  0.2272
10891TIP3    H254089   5.896   3.217  14.038  0.5178 -0.3878 -0.8093
10892TIP3   OH254090   6.124   3.721  15.770 -0.1773  0.0995  0.3993
10892TIP3    H154091   6.108   3.814  15.757  0.5806  0.2676  0.6410
10892TIP3    H254092   6.059   3.678  15.714  0.1930  0.7817 -0.5749
10893TIP3   OH254093   4.014   2.518  12.491 -0.0056  0.0777 -0.2304
10893TIP3    H154094   3.929   2.558  12.508 -0.4020 -0.7694 -0.1919
10893TIP3    H254095   4.003   2.472  12.408  0.0994 -0.8938  0.2787
10894TIP3   OH254096   5.368   2.399   3.271  0.1796  0.5858 -0.1475
10894TIP3    H154097   5.349   2.491   3.253  2.5893  1.1611 -0.0799
10894TIP3    H254098   5.408   2.399   3.358 -0.5248 -0.6570  0.2021
10895TIP3   OH254099   2.303   3.022   3.410  0.0744 -0.1439  0.7229
10895TIP3    H154100   2.314   2.953   3.475  1.8240  0.1207  0.7558
10895TIP3    H254101   2.391   3.041   3.380 -0.6420  0.1236 -1.3686
10896TIP3   OH254102   5.368   1.835  16.716 -0.0449 -0.3839  0.3986
10896TIP3    H154103   5.372   1.746  16.752  1.0597 -0.4026  0.2739
10896TIP3    H254104   5.414   1.889  16.781 -0.7553  0.1168  0.4994
10897TIP3   OH254105   5.830   3.405  12.807 -0.3192 -0.0155  0.2361
10897TIP3    H154106   5.772   3.480  12.793 -0.2138  0.3473  1.5398
10897TIP3    H254107   5.773   3.337  12.843 -0.0885  0.0695  0.7715
10898TIP3   OH254108   1.521   4.786  14.036 -0.1262 -0.2741  0.1734
10898TIP3    H154109   1.429   4.811  14.036  0.4480  2.0927  0.4795
10898TIP3    H254110   1.553   4.811  14.122  1.1797  0.5626 -0.5234
10899TIP3   OH254111   5.374   0.232   4.103 -0.4978 -0.4271 -0.2403
10899TIP3    H154112   5.340   0.149   4.072  1.7765 -1.0021 -1.3797
10899TIP3    H254113   5.394   0.281   4.023  3.6852 -1.1810  0.1137
10900TIP3   OH254114   3.759   0.861   3.243  0.0872 -0.1361  0.0567
10900TIP3    H154115   3.784   0.808   3.168  0.0514  0.6279 -0.5062
10900TIP3    H254116   3.728   0.943   3.205 -0.9486 -0.1405  0.8506
10901TIP3   OH254117   2.401   2.759  12.906 -0.0522  0.0025  0.7803
10901TIP3    H154118   2.419   2.713  12.988 -1.1033  0.8073  1.4751
10901TIP3    H254119   2.335   2.824  12.928 -1.2775 -0.5816 -0.9753
10902TIP3   OH254120   2.505   0.507   3.301 -0.8458 -0.2166 -0.4554
10902TIP3    H154121   2.563   0.483   3.229 -3.6371 -1.3097 -2.4646
10902TIP3    H254122   2.438   0.562   3.261 -1.1676  1.1844  1.8271
10903TIP3   OH254123   6.741   6.188  13.590 -0.2534 -0.0442 -0.1550
10903TIP3    H154124   6.719   6.096  13.577  0.3149 -0.2633  0.3916
10903TIP3    H254125   6.801   6.189  13.664 -0.7440  0.8389  0.2528
10904TIP3   OH254126   4.873   1.868   5.732 -0.1237 -0.4616  0.5146
10904TIP3    H154127   4.893   1.889   5.641  1.8989 -2.4889  0.4094
10904TIP3    H254128   4.783   1.835   5.730  0.2242 -1.4118 -0.9718
10905TIP3   OH254129   2.448   3.532  13.516 -0.4358  0.3474 -0.2138
10905TIP3    H154130   2.444   3.439  13.538 -1.5756  0.5348  0.4379
10905TIP3    H254131   2.515   3.568  13.575  0.1676 -0.0912 -0.6245
10906TIP3   OH254132   2.595   3.989  14.729  0.2937  0.3916 -0.1333
10906TIP3    H154133   2.516   3.976  14.781  0.0972  0.8967 -0.2948
10906TIP3    H254134   2.662   4.011  14.794  0.5860 -1.1289  0.1191
10907TIP3   OH254135   4.804   2.268   3.446  0.5084 -0.1902  0.5988
10907TIP3    H154136   4.804   2.337   3.512 -0.3267 -0.8051  1.2751
10907TIP3    H254137   4.711   2.250   3.430  0.7115 -0.7223 -0.0246
10908TIP3   OH254138   2.564   3.329  14.085  0.7991  0.5422 -0.0287
10908TIP3    H154139   2.479   3.325  14.042  1.3303 -1.8279 -1.0094
10908TIP3    H254140   2.588   3.238  14.100  2.8835  1.1616  0.8249
10909TIP3   OH254141   1.114   3.824   2.690  0.0822  0.3877  0.0899
10909TIP3    H154142   1.022   3.809   2.666  0.0485  1.7098 -0.7078
10909TIP3    H254143   1.114   3.826   2.785 -0.2625 -2.1818  0.2162
10910TIP3   OH254144   0.915   6.288  15.633 -0.1103  0.3875 -0.1229
10910TIP3    H154145   0.896   6.224  15.702  1.6877 -0.0700 -0.0179
10910TIP3    H254146   0.938   6.235  15.557  0.2117  0.8981 -0.3838
10911TIP3   OH254147   3.631   4.632  13.973  0.3789  0.7110 -0.0281
10911TIP3    H154148   3.720   4.669  13.973  0.0575  1.5116  0.0384
10911TIP3    H254149   3.577   4.701  13.935 -0.4530  0.8266  1.2924
10912TIP3   OH254150   2.905   6.341   2.432  0.0903 -0.1802  0.4544
10912TIP3    H154151   2.839   6.374   2.370 -0.4338 -0.1481  1.0185
10912TIP3    H254152   2.898   6.246   2.426 -0.3706 -0.1804  0.8763
10913TIP3   OH254153   2.553   4.584   1.806  0.7157 -0.4118  0.6420
10913TIP3    H154154   2.525   4.502   1.847 -0.8193 -0.2072  0.0582
10913TIP3    H254155   2.545   4.568   1.712  0.2535  0.4463  0.5252
10914TIP3   OH254156   6.289   4.918  16.980  0.5492 -0.3132 -0.0131
10914TIP3    H154157   6.308   4.876  16.896 -1.5708  0.8586 -1.1561
10914TIP3    H254158   6.255   4.847  17.035 -1.0453 -0.5454 -1.2314
10915TIP3   OH254159   2.595   4.751  14.066  0.1984  0.0472 -0.0650
10915TIP3    H154160   2.677   4.701  14.063  1.0904  1.3628  1.0139
10915TIP3    H254161   2.617   4.835  14.026 -0.8052  0.2085 -0.3036
10916TIP3   OH254162   4.996   1.288  13.059 -0.2902 -0.0527 -0.1782
10916TIP3    H154163   5.020   1.285  13.151 -1.3735  1.5329  0.1869
10916TIP3    H254164   4.911   1.246  13.054 -1.8564  2.7816  0.1971
10917TIP3   OH254165   5.147   6.495  15.056 -0.1604 -0.0142  0.5916
10917TIP3    H154166   5.207   6.512  15.129  0.7315  0.4995 -0.2378
10917TIP3    H254167   5.124   6.582  15.024  0.2045 -0.2583 -0.3401
10918TIP3   OH254168   6.083   6.590   3.505  0.1298  0.0387  0.0171
10918TIP3    H154169   6.166   6.573   3.548 -0.3563  2.3843  2.1239
10918TIP3    H254170   6.075   6.520   3.440  1.6524 -2.9078  2.7077
10919TIP3   OH254171   2.252   4.353  16.122 -0.0278 -1.0972 -0.5083
10919TIP3    H154172   2.167   4.322  16.090 -0.7978  1.1442 -0.7746
10919TIP3    H254173   2.268   4.434  16.074  2.1128 -1.2728 -0.1864
10920TIP3   OH254174   6.572   5.420  13.936  0.3899  0.3022 -0.4494
10920TIP3    H154175   6.508   5.457  13.876  1.4594  0.2266 -1.6876
10920TIP3    H254176   6.625   5.495  13.964 -0.3444  0.4056  0.7587
10921TIP3   OH254177   0.221   2.826  13.177 -0.6730  0.0634 -0.1017
10921TIP3    H154178   0.178   2.826  13.262  0.4916 -2.9885  0.6212
10921TIP3    H254179   0.225   2.733  13.152  0.8480  0.6833 -2.5423
10922TIP3   OH254180   3.792   3.888   3.387 -0.5264  0.4618  0.4356
10922TIP3    H154181   3.737   3.863   3.313 -1.4773  1.9640  0.5856
10922TIP3    H254182   3.739   3.867   3.464  0.6881 -1.6459  0.7821
10923TIP3   OH254183   1.923   5.656   2.598 -0.0839  0.2225 -0.2523
10923TIP3    H154184   1.873   5.709   2.536  0.1910  0.1531 -0.5353
10923TIP3    H254185   1.962   5.720   2.658 -1.3601  0.2169  0.6180
10924TIP3   OH254186   5.578   0.119  17.047  0.5498 -0.0331  0.3366
10924TIP3    H154187   5.521   0.042  17.043 -0.0358  0.4282 -0.7542
10924TIP3    H254188   5.523   0.190  17.013  0.8938  0.9888  1.8338
10925TIP3   OH254189   1.958   1.059   1.313 -0.5473  0.1618 -0.8495
10925TIP3    H154190   2.019   1.118   1.268  0.9116  0.9669  1.9204
10925TIP3    H254191   1.984   0.971   1.285  1.9117  0.4827  0.1160
10926TIP3   OH254192   0.826   5.077   0.337  0.5614  0.0664  0.0422
10926TIP3    H154193   0.902   5.019   0.326  0.7573 -0.2692  2.6242
10926TIP3    H254194   0.848   5.131   0.412 -0.6663  1.8583 -0.8329
10927TIP3   OH254195   5.031   4.737   4.368 -0.1138  0.6391  0.0931
10927TIP3    H154196   5.067   4.653   4.396 -0.3029  0.4870 -0.1255
10927TIP3    H254197   5.051   4.743   4.275 -1.5217  0.1038 -0.2687
10928TIP3   OH254198   4.934   3.324  14.805 -1.1431  0.3223  0.2454
10928TIP3    H154199   5.002   3.382  14.838 -0.7852 -0.0115  0.0939
10928TIP3    H254200   4.856   3.347  14.857 -0.4729 -0.5286  1.6869
10929TIP3   OH254201   1.671   2.019  13.610  0.4288  0.1113  0.0997
10929TIP3    H154202   1.601   1.962  13.578 -1.3933  2.6519 -0.7723
10929TIP3    H254203   1.656   2.025  13.705 -0.0203 -0.0436  0.0396
10930TIP3   OH254204   5.598   1.760  12.262 -0.2896 -0.1892 -0.6556
10930TIP3    H154205   5.506   1.764  12.239 -1.2655 -1.7199  2.3501
10930TIP3    H254206   5.606   1.814  12.341  1.0736 -1.0241 -0.1771
10931TIP3   OH254207   6.562   2.603   1.712  0.0591 -0.5377  0.1369
10931TIP3    H154208   6.648   2.634   1.739 -0.7134  2.2285 -0.3093
10931TIP3    H254209   6.570   2.587   1.618 -1.0366  4.9747 -1.2505
10932TIP3   OH254210   1.428   4.480  12.411 -0.0846  1.0952  0.4289
10932TIP3    H154211   1.394   4.391  12.415 -0.5744  1.2935  0.8983
10932TIP3    H254212   1.384   4.519  12.335  2.2488  0.1086 -1.5300
10933TIP3   OH254213   0.236   2.824  12.304 -0.0491 -0.1258 -0.8818
10933TIP3    H154214   0.283   2.857  12.228 -4.1799  0.8209 -3.3330
10933TIP3    H254215   0.180   2.755  12.269 -3.0628  1.1952  0.9424
10934TIP3   OH254216   0.470   2.355   5.922  0.1418  0.1648  0.6496
10934TIP3    H154217   0.454   2.284   5.984  0.0195 -1.2563 -0.9329
10934TIP3    H254218   0.562   2.378   5.936  0.6508 -1.4137  0.1609
10935TIP3   OH254219   5.577   2.583   1.574  0.4094  0.5837  0.4309
10935TIP3    H154220   5.661   2.551   1.541 -0.4931 -3.2590  1.4254
10935TIP3    H254221   5.513   2.518   1.544 -1.6506  1.3679  2.8032
10936TIP3   OH254222   3.122   2.046  12.652 -0.8088  0.0797  0.7983
10936TIP3    H154223   3.075   2.072  12.572 -1.5503  0.5560  1.3782
10936TIP3    H254224   3.054   2.036  12.718 -0.6620 -3.5155  0.6526
10937TIP3   OH254225   4.672   1.964   0.529  0.7710  0.2470 -0.1887
10937TIP3    H154226   4.636   1.995   0.612 -0.0552  3.0244 -1.4693
10937TIP3    H254227   4.601   1.912   0.491  0.3768  0.6493 -0.0259
10938TIP3   OH254228   5.208   0.821  17.211  0.0377  0.5568  0.5882
10938TIP3    H154229   5.217   0.769  17.291  0.0739  1.0613  0.9136
10938TIP3    H254230   5.249   0.905  17.232  1.1695  0.2706 -0.3650
10939TIP3   OH254231   2.759   3.806   0.989  0.3789 -0.2337 -0.4418
10939TIP3    H154232   2.765   3.902   0.980 -0.2090 -0.0930  0.5247
10939TIP3    H254233   2.798   3.788   1.074  0.4901 -0.8637 -0.6209
10940TIP3   OH254234   3.533   3.125   4.411  0.6076  0.8071 -0.4898
10940TIP3    H154235   3.538   3.098   4.503 -0.1939  1.9809 -0.0837
10940TIP3    H254236   3.604   3.077   4.368  0.1999 -0.7411  0.4857
10941TIP3   OH254237   4.988   6.221   1.861 -0.1599 -0.2050  0.7082
10941TIP3    H154238   5.009   6.146   1.805 -0.0878  2.8797 -3.9080
10941TIP3    H254239   4.912   6.192   1.912  0.3365 -3.6016 -0.2394
10942TIP3   OH254240   4.756   0.226  15.286  0.6027 -0.3752 -0.0030
10942TIP3    H154241   4.787   0.301  15.235 -1.3846  0.0907 -0.6277
10942TIP3    H254242   4.698   0.179  15.226  1.5843 -2.2712  0.4817
10943TIP3   OH254243   1.837   6.424   4.882  0.0891 -0.0779  0.2364
10943TIP3    H154244   1.899   6.496   4.894 -3.0243  2.6034  2.0993
10943TIP3    H254245   1.797   6.440   4.797 -0.9960  0.8323  0.8881
10944TIP3   OH254246   2.039   3.968  11.594  0.1748  0.0724  0.8659
10944TIP3    H154247   1.968   3.905  11.606  0.1767  0.1336  1.2165
10944TIP3    H254248   2.025   4.005  11.507 -0.7331  0.7231  1.2721
10945TIP3   OH254249   4.229   0.541  13.837 -0.2303  0.2312  0.4073
10945TIP3    H154250   4.251   0.556  13.745 -2.7188 -0.2635 -0.3365
10945TIP3    H254251   4.270   0.457  13.858  1.9839  1.2334  0.4039
10946TIP3   OH254252   2.297   5.465   0.419 -0.0375  0.6035  0.5093
10946TIP3    H154253   2.239   5.531   0.456 -1.4986 -0.7590  0.7341
10946TIP3    H254254   2.284   5.388   0.474 -0.6409 -0.8149 -1.4973
10947TIP3   OH254255   5.481   5.432  15.947 -0.8255 -0.7144  0.0144
10947TIP3    H154256   5.501   5.452  15.855  0.8560  0.2919  0.5594
10947TIP3    H254257   5.502   5.339  15.956  0.2401 -0.5222 -0.3306
10948TIP3   OH254258   3.514   5.747  11.642  0.3007 -0.7111 -0.5457
10948TIP3    H154259   3.468   5.746  11.726  1.4114 -1.6183  0.0707
10948TIP3    H254260   3.485   5.667  11.598 -1.5658  0.5647 -1.7909
10949TIP3   OH254261   1.148   0.627   4.363  0.2852  0.1416  0.2088
10949TIP3    H154262   1.221   0.657   4.417  0.0501  1.2779 -0.0737
10949TIP3    H254263   1.182   0.551   4.316  0.6744 -0.5042  1.4993
10950TIP3   OH254264   0.327   5.471   4.901  0.2966 -0.3487 -0.0631
10950TIP3    H154265   0.376   5.523   4.836 -1.2367  1.3400  0.0263
10950TIP3    H254266   0.256   5.431   4.850 -0.2796  0.1049  0.3690
10951TIP3   OH254267   1.411   3.486   0.106  0.2489 -0.0985 -0.3217
10951TIP3    H154268   1.328   3.520   0.139  0.4306 -0.6810  0.7892
10951TIP3    H254269   1.477   3.530   0.160  0.7375  0.9704 -1.7184
10952TIP3   OH254270   0.322   5.523   0.825  0.2789 -0.2987  0.1786
10952TIP3    H154271   0.386   5.572   0.877  0.2867  0.5907 -0.6378
10952TIP3    H254272   0.320   5.436   0.865  1.4541 -0.1192  0.6718
10953TIP3   OH254273   0.469   0.300  13.250  0.2321 -0.1290 -0.1367
10953TIP3    H154274   0.554   0.267  13.278 -0.2524 -0.2322  1.3084
10953TIP3    H254275   0.422   0.222  13.220 -0.1883 -0.4669  1.3425
10954TIP3   OH254276   4.415   2.350  15.088  0.0668 -0.1701 -0.2515
10954TIP3    H154277   4.397   2.256  15.095  3.3969 -0.9578 -0.8399
10954TIP3    H254278   4.485   2.357  15.024 -1.6050  3.0101 -2.0145
10955TIP3   OH254279   0.660   5.856  11.720 -0.4737  1.0771  0.0084
10955TIP3    H154280   0.611   5.778  11.696 -2.4343  1.8090  1.3971
10955TIP3    H254281   0.725   5.825  11.783  0.1545  0.2730 -1.0066
10956TIP3   OH254282   0.650   4.149  13.179 -0.0346 -0.4026  0.0347
10956TIP3    H154283   0.620   4.168  13.268 -1.5445 -2.8268  0.1650
10956TIP3    H254284   0.742   4.125  13.189  0.0088  0.0620  0.8309
10957TIP3   OH254285   3.763   6.613   3.689  0.1765 -0.4585  0.2245
10957TIP3    H154286   3.675   6.576   3.680  1.4165 -3.5577 -0.3593
10957TIP3    H254287   3.811   6.582   3.613  0.9912  4.1345 -1.4450
10958TIP3   OH254288   1.955   3.467   0.801  0.4874  0.1510 -0.0334
10958TIP3    H154289   1.907   3.512   0.871  2.7500  1.7810  0.5879
10958TIP3    H254290   1.897   3.396   0.774 -1.9610  1.6133  1.0526
10959TIP3   OH254291   3.698   3.725  13.881  0.0198  0.5324  0.7769
10959TIP3    H154292   3.779   3.701  13.927  0.3660  0.3661  0.0988
10959TIP3    H254293   3.631   3.725  13.949  0.3344 -0.6612  1.1178
10960TIP3   OH254294   3.837   2.801  15.614 -0.5562  0.8091  0.0873
10960TIP3    H154295   3.878   2.727  15.659 -0.7487  0.6992  0.0799
10960TIP3    H254296   3.786   2.845  15.683 -1.6478  0.0768 -0.2348
10961TIP3   OH254297   3.121   2.240   2.162 -0.0625  0.3692 -0.6149
10961TIP3    H154298   3.110   2.306   2.093  0.7289  0.8002 -0.3433
10961TIP3    H254299   3.086   2.159   2.124 -0.6499  0.8457 -1.1112
10962TIP3   OH254300   2.550   5.878   0.036  0.2385  0.3315  0.4007
10962TIP3    H154301   2.614   5.901  -0.031 -1.1135  1.3841 -0.5775
10962TIP3    H254302   2.475   5.934   0.018 -1.5629 -1.8647  0.5851
10963TIP3   OH254303   1.885   0.273  15.125 -0.2082  0.1213  0.3511
10963TIP3    H154304   1.876   0.334  15.052 -0.5946  0.2401  0.4926
10963TIP3    H254305   1.937   0.201  15.090  0.3527  0.5867  0.2223
10964TIP3   OH254306   0.349   0.848  13.323  0.0368 -0.3273  0.8881
10964TIP3    H154307   0.360   0.753  13.311 -1.4347 -0.3295 -0.8459
10964TIP3    H254308   0.318   0.857  13.413 -1.1598 -1.6426  0.6461
10965TIP3   OH254309   6.429   1.582  14.061 -0.3659  0.2213 -0.5000
10965TIP3    H154310   6.441   1.644  14.132  1.4187 -1.1993  0.5338
10965TIP3    H254311   6.513   1.583  14.014 -1.4393  0.9715 -2.4808
10966TIP3   OH254312   1.278   0.513  15.782 -0.2868 -0.6109  0.3151
10966TIP3    H154313   1.235   0.593  15.813  0.3011 -0.0402 -0.3203
10966TIP3    H254314   1.245   0.501  15.693  1.7660  0.5290 -0.6550
10967TIP3   OH254315   2.878   2.184   3.127 -0.2217  0.2226  0.1397
10967TIP3    H154316   2.882   2.197   3.032  0.9578  0.4020  0.2021
10967TIP3    H254317   2.793   2.141   3.142 -0.7291  0.8255 -0.9101
10968TIP3   OH254318   1.212   1.908   2.649 -0.0468  0.6929  0.0344
10968TIP3    H154319   1.266   1.926   2.572 -0.4036  0.8721 -0.1760
10968TIP3    H254320   1.131   1.956   2.633 -1.0201 -1.0446 -0.5204
10969TIP3   OH254321   5.475   3.626   0.824  0.0382  0.5581 -0.1523
10969TIP3    H154322   5.547   3.600   0.766  0.0945  1.3084 -0.4279
10969TIP3    H254323   5.495   3.717   0.848  0.1028  0.2238  1.1727
10970TIP3   OH254324   5.037   1.420  15.688  0.0395  0.1869  0.1913
10970TIP3    H154325   5.035   1.407  15.593 -1.0610  2.1533 -0.1014
10970TIP3    H254326   5.017   1.512  15.700  2.5023  0.5751  2.2575
10971TIP3   OH254327   2.017   4.897   5.825 -0.1106  0.8471  0.3823
10971TIP3    H154328   1.942   4.947   5.857  0.4371  1.9880 -0.0861
10971TIP3    H254329   2.071   4.961   5.779  1.5175  0.1906  1.3136
10972TIP3   OH254330   3.460   2.856  16.090  0.8729 -0.4359  0.2374
10972TIP3    H154331   3.411   2.784  16.130 -0.4469  0.4138  0.2024
10972TIP3    H254332   3.503   2.900  16.164 -0.6280  0.4326  0.6387
10973TIP3   OH254333   0.198   4.419   6.230  0.3948 -0.1548 -0.1911
10973TIP3    H154334   0.225   4.413   6.322  1.2464  2.4301 -0.1737
10973TIP3    H254335   0.107   4.392   6.230 -0.2641  1.7619  1.8411
10974TIP3   OH254336   5.112   0.902  15.037 -0.0002 -0.4390  0.1730
10974TIP3    H154337   5.175   0.948  15.094  0.3615 -1.2123  0.4155
10974TIP3    H254338   5.094   0.964  14.967  2.3213 -0.7779 -0.8143
10975TIP3   OH254339   5.032   5.138  14.302 -0.6001  0.1182  0.4325
10975TIP3    H154340   5.097   5.208  14.302  0.2453 -0.6237  2.0406
10975TIP3    H254341   4.965   5.166  14.365  0.1480 -0.8391  1.6947
10976TIP3   OH254342   6.179   1.306   3.266  0.3241  0.0577 -0.2174
10976TIP3    H154343   6.206   1.214   3.258 -0.8018 -0.2570 -0.5009
10976TIP3    H254344   6.107   1.315   3.203 -0.0651  0.9446  0.3446
10977TIP3   OH254345   6.086   5.737  15.068 -0.0130  0.3362  0.2520
10977TIP3    H154346   6.156   5.679  15.036 -1.1147 -0.6706 -0.4273
10977TIP3    H254347   6.021   5.677  15.105 -0.8513  1.1924  0.1871
10978TIP3   OH254348   5.506   1.214  13.676  0.1248  0.0391  0.0420
10978TIP3    H154349   5.429   1.223  13.619 -1.2804  0.0588  1.8552
10978TIP3    H254350   5.519   1.301  13.713 -0.7163 -0.5708  1.8522
10979TIP3   OH254351   2.634   5.546  15.594  0.2763  0.5500 -0.5777
10979TIP3    H154352   2.721   5.567  15.626  0.5166  0.5270 -1.2055
10979TIP3    H254353   2.648   5.508  15.507 -0.4512  2.0109 -1.3684
10980TIP3   OH254354   4.540   4.010  13.244  0.3046  0.3423 -0.0214
10980TIP3    H154355   4.459   4.035  13.200  0.3878 -1.1329 -1.0754
10980TIP3    H254356   4.610   4.033  13.183  0.3951 -2.1274 -0.9733
10981TIP3   OH254357   0.484   3.576  16.721 -0.1091  0.6071 -0.2318
10981TIP3    H154358   0.524   3.660  16.742  0.9836 -0.1901  1.1086
10981TIP3    H254359   0.394   3.597  16.696  0.1041  2.1560  0.2074
10982TIP3   OH254360   0.702   3.349   1.671 -0.0645 -0.0159 -0.1110
10982TIP3    H154361   0.642   3.413   1.707  1.1485  0.0451  1.9477
10982TIP3    H254362   0.673   3.336   1.581 -2.5194  0.7240  0.5124
10983TIP3   OH254363   5.181   2.171   3.102  0.1121  0.2902 -0.1012
10983TIP3    H154364   5.191   2.197   3.011 -0.5965 -0.0244 -0.2789
10983TIP3    H254365   5.270   2.159   3.134  0.3728 -1.7190 -1.3680
10984TIP3   OH254366   5.955   5.146  11.085 -0.4091  0.2156  0.3482
10984TIP3    H154367   6.028   5.130  11.145  0.9684 -0.0580 -1.3214
10984TIP3    H254368   5.898   5.070  11.096  0.1589 -0.1506  0.8122
10985TIP3   OH254369   3.945   2.953  12.227 -0.6474  0.2423  0.4509
10985TIP3    H154370   3.909   3.018  12.288  0.3820 -0.5618  1.9847
10985TIP3    H254371   4.013   3.000  12.180  0.3651  0.2227  1.8322
10986TIP3   OH254372   3.557   5.269  14.141  0.1582 -0.4257 -0.5553
10986TIP3    H154373   3.512   5.354  14.136 -0.2651 -0.6739 -1.1308
10986TIP3    H254374   3.583   5.251  14.050  1.4493 -0.2820 -0.2278
10987TIP3   OH254375   3.894   4.056   3.613  0.1631  0.1195  0.5356
10987TIP3    H154376   3.914   3.964   3.632  2.7973  0.6485  0.7195
10987TIP3    H254377   3.915   4.067   3.521  0.3174  0.6476  0.6316
10988TIP3   OH254378   6.415   3.862   4.299  0.5596 -0.5070  0.0725
10988TIP3    H154379   6.395   3.798   4.231 -1.0074 -0.9327  0.8929
10988TIP3    H254380   6.344   3.853   4.363  0.7061  1.5297  0.5980
10989TIP3   OH254381   3.558   6.705   6.710 -0.2662 -0.1119  0.4218
10989TIP3    H154382   3.474   6.670   6.679 -0.8054  1.6545 -0.2691
10989TIP3    H254383   3.561   6.794   6.675  2.6833 -0.6543 -0.9935
10990TIP3   OH254384   1.603   5.188  12.307 -0.6596 -0.0583 -0.0856
10990TIP3    H154385   1.667   5.250  12.341 -0.9606  0.2257 -0.0393
10990TIP3    H254386   1.518   5.225  12.329 -0.8540 -0.0741 -0.7771
10991TIP3   OH254387   5.631   2.133   4.429 -0.3330 -0.1920  1.0149
10991TIP3    H154388   5.624   2.218   4.385 -0.4629 -0.6385  0.1373
10991TIP3    H254389   5.683   2.150   4.507  0.9381  0.4150  0.0740
10992TIP3   OH254390   5.844   3.156  13.356  0.3498 -0.1265  0.4267
10992TIP3    H154391   5.919   3.193  13.403  0.0732  0.1419  0.6608
10992TIP3    H254392   5.811   3.087  13.413  0.3955 -0.2226  0.3383
10993TIP3   OH254393   0.113   5.397  10.886  0.2068  0.3435  0.2315
10993TIP3    H154394   0.136   5.490  10.886  0.2656  0.3525 -1.2247
10993TIP3    H254395   0.142   5.366  10.800 -0.6840 -0.8026  0.3351
10994TIP3   OH254396   1.877   5.225  12.584  0.0581 -0.1045 -0.4822
10994TIP3    H154397   1.812   5.278  12.537  3.2141  2.1182 -2.8404
10994TIP3    H254398   1.945   5.288  12.609  0.8800 -2.0942  2.8287
10995TIP3   OH254399   2.131   1.280   3.120  0.6506  0.2629 -0.4113
10995TIP3    H154400   2.115   1.247   3.208  0.8416 -1.9851 -1.1625
10995TIP3    H254401   2.047   1.315   3.092  0.3854  0.2688  0.3712
10996TIP3   OH254402   4.293   2.613   1.828 -0.6839 -0.9165 -0.2377
10996TIP3    H154403   4.268   2.630   1.918  1.5131 -0.3972  0.3314
10996TIP3    H254404   4.210   2.599   1.782 -1.8022 -2.1910  2.0241
10997TIP3   OH254405   1.946   6.253   0.841  0.0902 -0.2477 -0.2609
10997TIP3    H154406   1.988   6.234   0.757 -2.7801  0.0852 -1.8932
10997TIP3    H254407   1.894   6.332   0.825 -1.4295 -0.8293  1.4863
10998TIP3   OH254408   1.299   0.439  16.758 -0.3227 -0.3142 -0.0069
10998TIP3    H154409   1.239   0.454  16.831  0.2044  0.4012  0.2871
10998TIP3    H254410   1.384   0.469  16.789  0.1290 -0.9895 -0.5484
10999TIP3   OH254411   3.452   5.340   5.311  0.3024  0.3568  1.0881
10999TIP3    H154412   3.377   5.288   5.338  0.6632 -1.2750 -0.7572
10999TIP3    H254413   3.528   5.291   5.342  0.6288  1.0043  1.3292
11000TIP3   OH254414   5.494   3.033  15.260 -0.7882 -0.7993 -0.3780
11000TIP3    H154415   5.458   3.075  15.182 -0.2957 -0.4374 -0.4207
11000TIP3    H254416   5.460   2.944  15.258 -1.5939 -0.4912 -0.4612
11001TIP3   OH254417   1.563   4.753  15.131 -0.0213 -0.4223 -0.5150
11001TIP3    H154418   1.544   4.758  15.037  0.0099 -0.1056 -0.5061
11001TIP3    H254419   1.500   4.813  15.171  1.3090  1.0513 -0.5321
11002TIP3   OH254420   5.562   4.758   2.657 -0.7811 -0.5505 -0.4653
11002TIP3    H154421   5.503   4.750   2.733 -1.2684  1.0545 -0.6458
11002TIP3    H254422   5.649   4.742   2.693 -0.8629  1.3599  0.7113
11003TIP3   OH254423   3.885   5.430  15.718 -0.5714  0.0334 -0.1637
11003TIP3    H154424   3.882   5.515  15.762 -0.3555 -0.3458  0.5898
11003TIP3    H254425   3.919   5.369  15.784  2.0097 -0.1329 -1.5203
11004TIP3   OH254426   5.474   3.468   2.764 -0.2145  0.3437 -0.3258
11004TIP3    H154427   5.507   3.551   2.797 -1.0702  1.3638 -1.9509
11004TIP3    H254428   5.553   3.421   2.736  0.2789  0.5280  0.6793
11005TIP3   OH254429   0.706   4.387  14.846  0.1306  0.1641 -0.0664
11005TIP3    H154430   0.771   4.454  14.824  1.1713 -1.0465 -0.8930
11005TIP3    H254431   0.622   4.430  14.835  0.7340  1.0426 -1.6629
11006TIP3   OH254432   1.929   5.459  15.585  0.2506 -0.3963  0.2471
11006TIP3    H154433   1.954   5.395  15.519  1.0235  0.5869 -0.4580
11006TIP3    H254434   1.864   5.514  15.541  0.2377 -0.1673  0.5482
11007TIP3   OH254435   3.154   3.779  13.832  0.1289 -0.2566 -0.5339
11007TIP3    H154436   3.076   3.832  13.816  0.4059  0.5802  0.7742
11007TIP3    H254437   3.120   3.695  13.863 -0.2773  0.5704  1.4176
11008TIP3   OH254438   0.700   3.230  14.445  0.0502  0.0191 -0.4553
11008TIP3    H154439   0.780   3.275  14.418 -0.9094  1.5082 -0.9854
11008TIP3    H254440   0.660   3.290  14.509  0.5070 -1.7954  1.6528
11009TIP3   OH254441   2.643   1.218   1.726 -0.5501  0.0273  0.3848
11009TIP3    H154442   2.680   1.201   1.813 -1.5270  0.6376  0.9383
11009TIP3    H254443   2.668   1.309   1.707 -0.3400 -0.1045  0.0185
11010TIP3   OH254444   4.591   6.720  17.227 -0.2218  0.1472  0.2374
11010TIP3    H154445   4.596   6.747  17.135  0.5799  0.3551  0.3389
11010TIP3    H254446   4.564   6.799  17.274  1.3272  0.5848  0.4293
11011TIP3   OH254447   5.604   2.818   1.376  0.1410 -0.0225 -0.1573
11011TIP3    H154448   5.589   2.751   1.443 -1.7912  0.2973 -0.2220
11011TIP3    H254449   5.586   2.901   1.420 -0.3744  0.2445 -0.8566
11012TIP3   OH254450   3.871   5.355  14.108 -0.3879 -0.4315 -0.4067
11012TIP3    H154451   3.832   5.285  14.056 -1.0638 -1.3308  1.2320
11012TIP3    H254452   3.804   5.424  14.110 -0.7351 -0.7718 -0.0082
11013TIP3   OH254453   5.461   0.257   1.954 -0.3504  0.0494 -0.2052
11013TIP3    H154454   5.533   0.269   1.892  0.0659  0.0023  0.2607
11013TIP3    H254455   5.452   0.162   1.964  0.2768  0.0561  0.5813
11014TIP3   OH254456   5.032   6.369   5.547  0.1311 -0.4346 -0.1779
11014TIP3    H154457   5.073   6.284   5.535 -3.2941 -2.4663  1.2423
11014TIP3    H254458   4.971   6.377   5.474  1.3390  1.5224 -1.0599
11015TIP3   OH254459   4.992   1.679  16.095  0.0588 -0.1009 -0.0603
11015TIP3    H154460   5.044   1.718  16.024  0.6668 -0.9143 -0.0764
11015TIP3    H254461   5.051   1.617  16.137 -0.7115 -0.6051  0.3142
11016TIP3   OH254462   4.648   3.803   0.907  0.0783 -0.6647  0.2255
11016TIP3    H154463   4.696   3.781   0.827 -0.0878  2.6770 -0.9603
11016TIP3    H254464   4.707   3.862   0.954 -1.1282  0.0193  0.9181
11017TIP3   OH254465   1.528   5.679   6.166  0.5586  0.1077  0.1469
11017TIP3    H154466   1.502   5.623   6.239 -0.6203 -0.8484 -0.9714
11017TIP3    H254467   1.599   5.733   6.202  2.0802 -2.3770  1.1818
11018TIP3   OH254468   5.350   0.467  14.807 -0.2233 -0.0628  0.0527
11018TIP3    H154469   5.425   0.495  14.859 -0.6274  1.0187  0.0860
11018TIP3    H254470   5.348   0.372  14.817  1.2773 -0.1433 -0.1564
11019TIP3   OH254471   4.907   4.677  15.224 -0.5205 -0.1280  0.4233
11019TIP3    H154472   4.898   4.759  15.176 -1.8811  0.3488  1.4373
11019TIP3    H254473   4.961   4.622  15.167 -0.5513  1.0428 -0.7955
11020TIP3   OH254474   4.955   0.633   6.434 -0.4559 -0.1161 -0.1495
11020TIP3    H154475   5.044   0.635   6.400 -0.7170 -0.4487 -0.8714
11020TIP3    H254476   4.945   0.717   6.479 -0.6629  1.1554 -2.3947
11021TIP3   OH254477   5.811   0.758   3.932  0.2487  0.2738  0.0174
11021TIP3    H154478   5.858   0.679   3.960  0.8925 -0.0533 -1.7906
11021TIP3    H254479   5.757   0.783   4.007  0.6629 -1.4094  0.9184
11022TIP3   OH254480   5.628   3.429  16.330  0.2289 -0.3397 -0.5700
11022TIP3    H154481   5.620   3.517  16.367 -0.7205 -0.4829 -0.4148
11022TIP3    H254482   5.596   3.438  16.240  0.5403 -0.4376 -0.6925
11023TIP3   OH254483   2.186   6.524   4.035 -0.1957 -0.2256  0.6257
11023TIP3    H154484   2.191   6.613   4.002 -1.6555 -0.6703 -0.9544
11023TIP3    H254485   2.236   6.525   4.116  2.0668  1.3743 -0.6846
11024TIP3   OH254486   5.593   6.739   0.428  0.0522 -0.6451  0.0314
11024TIP3    H154487   5.511   6.689   0.434 -0.6144  0.4547  0.3342
11024TIP3    H254488   5.569   6.819   0.382  0.9567 -0.2866  0.1633
11025TIP3   OH254489   1.689   4.652   4.639 -0.0939  0.4456  0.0019
11025TIP3    H154490   1.757   4.593   4.671 -1.2708 -0.8061  0.2761
11025TIP3    H254491   1.705   4.658   4.545 -0.1708 -0.6112 -0.0872
11026TIP3   OH254492   2.327   2.054   5.720  0.7948 -0.2305  0.4592
11026TIP3    H154493   2.272   2.132   5.729 -0.4738 -0.8571 -1.3334
11026TIP3    H254494   2.410   2.087   5.686 -0.5773  0.1966 -2.8375
11027TIP3   OH254495   5.997   1.476  10.812 -0.5296 -0.1452 -0.5098
11027TIP3    H154496   5.993   1.381  10.819  1.0436 -0.1455  0.9564
11027TIP3    H254497   6.085   1.499  10.842 -1.2583  1.8458  0.2918
11028TIP3   OH254498   2.093   4.793   1.758  0.3813 -0.1546 -0.0254
11028TIP3    H154499   2.076   4.828   1.846 -1.2432 -1.9301  0.4177
11028TIP3    H254500   2.024   4.831   1.704 -0.2187 -1.1354  0.0453
11029TIP3   OH254501   2.632   2.717   0.011  0.1068  0.1312 -1.0248
11029TIP3    H154502   2.711   2.749  -0.034 -0.2510  2.0061 -0.4388
11029TIP3    H254503   2.648   2.736   0.103 -0.5735 -0.5098 -0.7706
11030TIP3   OH254504   5.197   3.020   0.453  0.2177  0.0274  0.4717
11030TIP3    H154505   5.142   2.974   0.516  1.4709 -2.3159 -0.0532
11030TIP3    H254506   5.135   3.074   0.403 -1.8462 -3.1422 -0.6769
11031TIP3   OH254507   5.844   0.171  14.712  0.4877 -0.4657 -0.2238
11031TIP3    H154508   5.764   0.119  14.717  0.6426 -0.5910  1.0918
11031TIP3    H254509   5.823   0.253  14.756  0.8483 -0.1848 -0.5670
11032TIP3   OH254510   5.292   1.281  13.210  0.5732  0.2084  0.2474
11032TIP3    H154511   5.318   1.223  13.139 -0.5335  1.0692 -0.9135
11032TIP3    H254512   5.335   1.364  13.190  3.0757 -0.4083  2.5017
11033TIP3   OH254513   1.640   6.213   5.516 -0.2119 -0.3217 -0.1191
11033TIP3    H154514   1.723   6.218   5.469 -0.1900 -0.7239 -0.1261
11033TIP3    H254515   1.576   6.249   5.455  0.1242  1.0731  0.3175
11034TIP3   OH254516   4.364   5.767  13.783 -0.1248 -0.1560 -0.7803
11034TIP3    H154517   4.445   5.815  13.771 -0.5152  0.3876 -1.2991
11034TIP3    H254518   4.381   5.681  13.747 -0.1777  0.3575 -2.0626
11035TIP3   OH254519   4.888   5.387   6.518 -0.6577 -0.0563 -0.0427
11035TIP3    H154520   4.809   5.336   6.536  0.0865 -0.8778  1.0100
11035TIP3    H254521   4.958   5.323   6.510 -0.0890  0.6522 -1.0996
11036TIP3   OH254522   2.140   5.121  15.626 -0.0765 -0.1779  0.2669
11036TIP3    H154523   2.172   5.167  15.548 -0.4215 -0.8585 -0.2861
11036TIP3    H254524   2.211   5.130  15.690 -0.7342  2.4558  0.7426
11037TIP3   OH254525   2.151   6.081  16.622  0.2923 -0.8001 -0.4578
11037TIP3    H154526   2.174   6.105  16.712 -1.4299 -1.7893  0.3017
11037TIP3    H254527   2.172   6.159  16.571 -1.0436  0.7841  1.2287
11038TIP3   OH254528   5.901   2.571   4.396 -0.1081 -0.6752 -0.5979
11038TIP3    H154529   5.989   2.578   4.432 -0.0825 -1.5005 -0.4687
11038TIP3    H254530   5.908   2.605   4.307  0.3252 -0.6565 -0.5571
11039TIP3   OH254531   4.719   5.922  10.873  0.2023 -0.3138 -0.3062
11039TIP3    H154532   4.713   6.005  10.825 -1.0927  1.1474  2.1484
11039TIP3    H254533   4.637   5.877  10.853 -0.5132  0.4695  0.7274
11040TIP3   OH254534   4.966   5.462   2.545  0.2755  0.0104 -0.1372
11040TIP3    H154535   4.968   5.444   2.639 -0.9455  0.0816 -0.0802
11040TIP3    H254536   4.922   5.386   2.507 -1.3774  1.0319 -0.3566
11041TIP3   OH254537   1.119   1.246   1.747  0.2137 -0.8186 -0.1923
11041TIP3    H154538   1.025   1.263   1.756  0.3931  0.1800 -0.0990
11041TIP3    H254539   1.159   1.333   1.740  0.8083 -1.2032 -3.6792
11042TIP3   OH254540   5.199   4.141  14.879 -0.3843 -0.1424  0.4772
11042TIP3    H154541   5.111   4.134  14.841 -0.0710 -0.2814 -0.2458
11042TIP3    H254542   5.237   4.219  14.838  0.9454 -1.7806 -1.6440
11043TIP3   OH254543   3.021   0.259   2.071 -0.6287 -0.4771  0.1462
11043TIP3    H154544   2.999   0.174   2.032 -1.8113 -0.8557  1.5874
11043TIP3    H254545   3.082   0.298   2.008 -3.1665 -0.6045 -2.6518
11044TIP3   OH254546   0.896   5.295  16.139 -0.1896  0.4086 -0.4776
11044TIP3    H154547   0.901   5.284  16.044  1.8610  0.2282 -0.4040
11044TIP3    H254548   0.973   5.248  16.173  0.3146  2.2303  1.0951
11045TIP3   OH254549   3.487   2.654  14.352  0.4598 -0.2890 -0.5645
11045TIP3    H154550   3.519   2.662  14.442  1.0734  2.1972 -0.9251
11045TIP3    H254551   3.478   2.560  14.338  2.0764 -0.8275  1.4989
11046TIP3   OH254552   6.277   2.345   5.432  0.0729 -0.6812 -0.0683
11046TIP3    H154553   6.199   2.396   5.412  0.9478  0.8772  0.2750
11046TIP3    H254554   6.279   2.341   5.528  1.3075  0.8371  0.0100
11047TIP3   OH254555   1.527   3.877  15.225  0.2514 -0.0854  0.0566
11047TIP3    H154556   1.452   3.842  15.177  0.4318 -2.3047  1.2344
11047TIP3    H254557   1.488   3.930  15.294 -0.2627 -1.1525  0.6098
11048TIP3   OH254558   1.320   5.963  10.906 -0.2175  0.4995 -0.3246
11048TIP3    H154559   1.254   5.995  10.967  1.2714  0.1524  1.5593
11048TIP3    H254560   1.291   5.875  10.883 -1.3437  1.0216 -1.0132
11049TIP3   OH254561   5.523   2.400  16.855 -0.1998 -0.0485 -0.7288
11049TIP3    H154562   5.429   2.419  16.854  0.0831  1.8383  1.2463
11049TIP3    H254563   5.532   2.322  16.800 -2.6601  0.7325 -2.4162
11050TIP3   OH254564   0.296   0.875  11.201  0.2527  0.6381  0.3948
11050TIP3    H154565   0.206   0.847  11.219  0.6122 -0.2095  0.9333
11050TIP3    H254566   0.340   0.796  11.170  0.4501  1.3750 -1.3243
11051TIP3   OH254567   1.165   6.397   4.223 -0.4329  0.4446 -0.1315
11051TIP3    H154568   1.195   6.481   4.187 -1.1494  0.7800  0.0539
11051TIP3    H254569   1.218   6.384   4.301 -0.3504  0.7427 -0.1372
11052TIP3   OH254570   2.606   4.149  11.714 -0.0670 -0.0538 -0.6016
11052TIP3    H154571   2.613   4.211  11.787  0.4996 -0.3329 -0.4136
11052TIP3    H254572   2.565   4.200  11.643  0.4775  0.5655 -0.4820
11053TIP3   OH254573   3.645   3.858  14.650 -0.4633 -1.2112  0.1998
11053TIP3    H154574   3.620   3.922  14.584  1.3672 -0.3175  0.3228
11053TIP3    H254575   3.661   3.910  14.729  1.8564 -1.6605  0.0910
11054TIP3   OH254576   3.597   6.228  11.234  0.2945 -0.4146  0.2371
11054TIP3    H154577   3.597   6.268  11.147  1.1628  0.0731  0.4560
11054TIP3    H254578   3.627   6.138  11.220  0.5222 -0.3082  0.0463
11055TIP3   OH254579   4.510   0.245   1.150 -0.1714 -0.5286  0.4972
11055TIP3    H154580   4.493   0.312   1.216 -3.3318 -0.6267 -0.0785
11055TIP3    H254581   4.448   0.176   1.170  1.5241 -2.3550 -0.2635
11056TIP3   OH254582   6.449   5.052   4.748  0.3681  0.2852 -0.8530
11056TIP3    H154583   6.434   4.965   4.784 -0.4330  1.1669  1.0921
11056TIP3    H254584   6.422   5.046   4.657 -1.0666 -1.1295 -0.3631
11057TIP3   OH254585   4.506   3.880   2.821  0.7576 -0.6836  0.1243
11057TIP3    H154586   4.444   3.814   2.790  0.4606 -0.3103 -0.0785
11057TIP3    H254587   4.456   3.961   2.826  0.5081 -0.9015  2.5342
11058TIP3   OH254588   0.037   0.435  12.654  0.1949  0.1537 -0.1376
11058TIP3    H154589   0.062   0.351  12.617 -1.5756 -0.8499  0.8075
11058TIP3    H254590  -0.041   0.461  12.604 -1.1119 -0.3143  1.5758
11059TIP3   OH254591   3.623   2.067  14.206  0.0102  0.7134  0.0696
11059TIP3    H154592   3.688   2.050  14.275  0.4040 -0.0312 -0.4701
11059TIP3    H254593   3.621   2.162  14.198 -0.2476  0.8306  1.3041
11060TIP3   OH254594   1.254   5.848  12.530 -0.1028  0.0716 -0.1626
11060TIP3    H154595   1.286   5.757  12.528  0.4669  0.2804 -0.9641
11060TIP3    H254596   1.158   5.840  12.529 -0.1292 -0.5623  2.0760
11061TIP3   OH254597   1.368   4.520  13.388  0.3391  0.0570  0.3361
11061TIP3    H154598   1.284   4.492  13.351  0.3036 -0.7956  1.0237
11061TIP3    H254599   1.433   4.490  13.325  0.2964 -1.5863  1.0141
11062TIP3   OH254600   3.192   1.866   5.191  0.1725 -0.2780  0.0739
11062TIP3    H154601   3.220   1.776   5.176  1.7254  0.3348 -0.9356
11062TIP3    H254602   3.163   1.897   5.105 -0.5631  0.1298  0.4597
11063TIP3   OH254603   4.974   3.059  15.964 -0.1245  0.4577 -0.0119
11063TIP3    H154604   4.940   3.037  15.877 -0.5392 -0.5784  0.3986
11063TIP3    H254605   5.068   3.046  15.958 -0.2221 -0.2296 -0.1436
11064TIP3   OH254606   6.388   0.951  13.056 -0.2183  0.0150 -0.9394
11064TIP3    H154607   6.373   0.876  13.112 -1.6550 -0.0808 -1.3987
11064TIP3    H254608   6.361   1.027  13.109 -0.1813  0.0562 -0.9795
11065TIP3   OH254609   6.596   3.049  14.168  0.0106  0.1694  0.0321
11065TIP3    H154610   6.525   3.001  14.210 -0.8999  2.4076  1.2678
11065TIP3    H254611   6.641   3.093  14.240  1.2876  0.5307 -0.9406
11066TIP3   OH254612   1.204   6.053   1.283  0.0117  0.4038 -0.2030
11066TIP3    H154613   1.273   6.117   1.303 -0.4945  0.7344  0.5610
11066TIP3    H254614   1.205   6.045   1.188 -0.6859  2.4409 -0.4246
11067TIP3   OH254615   5.149   2.344   5.677  0.2113  0.8729 -0.6183
11067TIP3    H154616   5.227   2.332   5.731 -0.0859 -1.9058 -0.6591
11067TIP3    H254617   5.145   2.438   5.660  2.1634  1.3960  1.4116
11068TIP3   OH254618   2.306   0.574  14.754  0.0123 -0.3293 -0.1096
11068TIP3    H154619   2.264   0.490  14.773  0.9248 -0.4350  1.7067
11068TIP3    H254620   2.305   0.620  14.838 -1.7952  2.1480 -1.3412
11069TIP3   OH254621   2.167   1.956  15.214  0.2300  0.6237  0.0951
11069TIP3    H154622   2.082   1.992  15.188  0.2227  0.1188 -0.6107
11069TIP3    H254623   2.190   1.896  15.143  0.8796  0.2784  0.5885
11070TIP3   OH254624   3.793   2.881   5.168 -0.8040  0.7973 -0.2454
11070TIP3    H154625   3.773   2.798   5.210  0.0118  0.1774 -1.0516
11070TIP3    H254626   3.842   2.930   5.233 -1.4362  0.7295  0.2928
11071TIP3   OH254627   6.580   5.415   3.548  0.5998 -0.5260  0.0522
11071TIP3    H154628   6.570   5.467   3.468 -1.3111 -0.2656  0.3970
11071TIP3    H254629   6.577   5.479   3.619 -1.4044 -0.9826  0.4614
11072TIP3   OH254630   0.833   2.539  13.088 -0.4930  0.4110  0.3812
11072TIP3    H154631   0.775   2.574  13.021 -1.2419 -0.4405  0.5719
11072TIP3    H254632   0.879   2.616  13.122 -1.1226  1.0268 -0.1343
11073TIP3   OH254633   4.054   0.276   1.987 -0.3210  0.2884  0.1941
11073TIP3    H154634   4.106   0.351   2.016 -1.8253  1.5438 -0.2251
11073TIP3    H254635   4.099   0.244   1.909  0.5075  0.5448  0.5537
11074TIP3   OH254636   1.963   1.944  12.381 -0.4781  0.1672 -0.2326
11074TIP3    H154637   1.923   1.908  12.301  1.3313 -0.0436 -1.1035
11074TIP3    H254638   2.058   1.937  12.366 -0.0799  0.9505  1.5764
11075TIP3   OH254639   4.154   6.370   4.372 -0.3485 -0.7648  0.3109
11075TIP3    H154640   4.245   6.350   4.390 -0.0703 -0.5273 -0.7240
11075TIP3    H254641   4.119   6.402   4.455  0.7974  0.1409  0.4688
11076TIP3   OH254642   4.021   4.433   5.271  0.2591 -0.4000 -0.2385
11076TIP3    H154643   4.072   4.369   5.222 -0.3932  0.9502 -2.8407
11076TIP3    H254644   4.085   4.498   5.301  0.5987 -1.0112  0.4079
11077TIP3   OH254645   6.370   1.988  12.940  0.1225  0.0650  0.4950
11077TIP3    H154646   6.285   1.949  12.961 -0.1378  0.4098  0.1143
11077TIP3    H254647   6.371   1.990  12.844  1.6723 -2.3610  0.3948
11078TIP3   OH254648   0.771   2.842   1.436 -0.2889 -0.3908  0.5110
11078TIP3    H154649   0.814   2.792   1.505 -0.4397 -0.1491  0.7788
11078TIP3    H254650   0.698   2.787   1.408 -1.3352  0.2929  1.8005
11079TIP3   OH254651   1.197   0.423  12.777  0.7209  0.4952 -0.5398
11079TIP3    H154652   1.278   0.465  12.808 -0.2959  0.7388  2.0629
11079TIP3    H254653   1.182   0.352  12.840 -0.4276 -0.3820 -1.7609
11080TIP3   OH254654   1.718   3.369   4.847  0.3492 -0.2459 -0.1535
11080TIP3    H154655   1.675   3.453   4.832 -1.3409 -0.4615  2.7170
11080TIP3    H254656   1.658   3.304   4.809 -0.0485 -0.3341  0.6147
11081TIP3   OH254657   6.578   5.773  11.176  0.0238 -0.0689  0.0689
11081TIP3    H154658   6.555   5.778  11.269  1.3238 -0.8204  0.4551
11081TIP3    H254659   6.603   5.862  11.153 -0.6261  0.1941  0.3364
11082TIP3   OH254660   0.315   4.353   5.189  0.5547 -0.1977  0.1447
11082TIP3    H154661   0.258   4.422   5.226  0.9258  0.7090 -0.9187
11082TIP3    H254662   0.282   4.272   5.228 -0.5242  0.4676  0.6862
11083TIP3   OH254663   5.296   1.969   3.672 -0.0948 -0.7774 -0.4088
11083TIP3    H154664   5.376   2.014   3.698 -0.7227  1.1493 -1.6387
11083TIP3    H254665   5.286   1.899   3.737  0.9687  0.7913  1.5493
11084TIP3   OH254666   3.777   5.699   4.397 -0.1935  0.8934 -0.1183
11084TIP3    H154667   3.746   5.625   4.345  1.8211  1.4106 -2.2596
11084TIP3    H254668   3.799   5.662   4.482  0.1468 -0.8319 -0.9272
11085TIP3   OH254669   5.999   0.786  16.629 -0.5006  0.0110 -0.1943
11085TIP3    H154670   5.939   0.719  16.598  0.4220 -1.0613  0.2633
11085TIP3    H254671   6.005   0.849  16.556 -0.5714 -0.9631 -1.0550
11086TIP3   OH254672   0.931   4.767   0.848 -0.4239 -0.2322 -0.2775
11086TIP3    H154673   0.931   4.694   0.909  1.1665  0.6162  0.8208
11086TIP3    H254674   0.959   4.729   0.765  1.5123 -0.7318  0.5395
11087TIP3   OH254675   5.793   6.145  12.258  0.0295  0.1505 -0.0483
11087TIP3    H154676   5.710   6.192  12.259  0.1395  0.3867 -1.1770
11087TIP3    H254677   5.789   6.087  12.334  0.1285  2.3645  1.7733
11088TIP3   OH254678   1.959   0.011  13.218  0.2876  0.1634 -0.3049
11088TIP3    H154679   1.899   0.073  13.259  1.4711  0.4862  1.0023
11088TIP3    H254680   1.920  -0.075  13.236 -0.5237  0.4276 -0.7481
11089TIP3   OH254681   3.195   6.195  13.753  0.4727  0.1013 -0.5637
11089TIP3    H154682   3.214   6.139  13.677  0.5695 -1.1276  0.3314
11089TIP3    H254683   3.193   6.134  13.827 -0.5224  1.1437  0.2956
11090TIP3   OH254684   5.694   2.523   3.792  0.0023 -0.1150 -0.1661
11090TIP3    H154685   5.677   2.579   3.717 -1.3689 -2.1020 -1.4231
11090TIP3    H254686   5.694   2.583   3.867 -1.7219  1.5249 -1.3890
11091TIP3   OH254687   6.458   1.064   1.520 -0.2898 -0.0182 -0.0856
11091TIP3    H154688   6.541   1.111   1.515  0.6606 -1.6232  0.0146
11091TIP3    H254689   6.443   1.032   1.431  1.0270 -2.6700  0.5543
11092TIP3   OH254690   4.398   5.529  16.552 -0.0511  0.4388 -0.0194
11092TIP3    H154691   4.462   5.535  16.623  0.4276 -0.6390 -0.3392
11092TIP3    H254692   4.351   5.448  16.568  0.1039  0.1531 -0.9450
11093TIP3   OH254693   2.463   3.991  14.184  0.1861  0.3085  0.5287
11093TIP3    H154694   2.393   3.987  14.119 -0.5696  0.8039  1.2995
11093TIP3    H254695   2.491   3.900  14.194 -0.5971  0.0518  0.4841
11094TIP3   OH254696   5.539   6.161   4.215 -0.2487  0.0978 -0.1592
11094TIP3    H154697   5.631   6.164   4.188 -0.4999  0.7152 -0.9638
11094TIP3    H254698   5.502   6.086   4.168 -0.0902 -0.3636  0.4289
11095TIP3   OH254699   5.524   3.716  15.632 -0.3882  0.2199 -0.3632
11095TIP3    H154700   5.508   3.710  15.538  2.1799 -0.8926 -0.8267
11095TIP3    H254701   5.530   3.626  15.662  0.4261  0.5476  0.5289
11096TIP3   OH254702   4.135   3.092  13.047 -0.4390  0.3378 -0.0676
11096TIP3    H154703   4.097   3.016  13.003  0.8521 -0.3461 -0.0389
11096TIP3    H254704   4.211   3.116  12.994 -0.9133  1.7262 -0.1662
11097TIP3   OH254705   5.372   0.657   5.940 -0.1327  0.1309  0.0736
11097TIP3    H154706   5.458   0.691   5.918  0.0024 -0.8400 -1.0191
11097TIP3    H254707   5.381   0.625   6.030  0.1305  1.6213  0.5923
11098TIP3   OH254708   4.480   5.058  16.142  0.3138 -0.6116 -0.0698
11098TIP3    H154709   4.483   4.970  16.103  0.1725 -1.5368  1.9141
11098TIP3    H254710   4.390   5.087  16.127  0.8129  0.0098 -2.3152
11099TIP3   OH254711   3.099   2.293  14.632 -0.0541  0.1425  0.6205
11099TIP3    H154712   3.070   2.361  14.570  1.1025 -0.3628 -0.5230
11099TIP3    H254713   3.037   2.221  14.620 -0.0343  0.1787  0.2926
11100TIP3   OH254714   5.606   2.142  14.905 -0.3094  0.3809  0.5627
11100TIP3    H154715   5.622   2.153  14.998 -0.1597  3.1887  0.3044
11100TIP3    H254716   5.662   2.208  14.863 -0.9574 -0.2621 -1.4490
11101TIP3   OH254717   3.807   2.392   0.365  0.2459 -0.1662  0.1037
11101TIP3    H154718   3.881   2.429   0.412  0.3565  0.9146 -0.8632
11101TIP3    H254719   3.751   2.468   0.345 -0.2985 -0.7347 -0.6016
11102TIP3   OH254720   4.374   2.649   2.336 -0.1470  0.0722  0.3069
11102TIP3    H154721   4.329   2.667   2.419 -0.4063  1.5138 -0.1253
11102TIP3    H254722   4.467   2.661   2.356 -0.1517 -0.3006  0.5606
11103TIP3   OH254723   0.432   2.430   1.215 -0.0834  0.7593  0.8623
11103TIP3    H154724   0.451   2.504   1.273  1.0289  0.0961  1.3973
11103TIP3    H254725   0.432   2.354   1.274  1.4225  0.0263 -0.0253
11104TIP3   OH254726   3.600   1.637  15.990 -0.4298  0.4651  0.8671
11104TIP3    H154727   3.589   1.581  16.067 -0.4557  1.9712  1.9905
11104TIP3    H254728   3.510   1.656  15.963 -0.4283 -0.7837 -0.1180
11105TIP3   OH254729   4.537   3.111   4.673  0.3651  0.1635 -0.3658
11105TIP3    H154730   4.495   3.093   4.757  0.2603  1.6246 -0.0826
11105TIP3    H254731   4.621   3.065   4.678 -0.2721 -0.9944 -0.0756
11106TIP3   OH254732   5.182   3.775  13.375  0.1680  0.3042 -0.1106
11106TIP3    H154733   5.251   3.787  13.310  0.7686  0.5779  0.5545
11106TIP3    H254734   5.134   3.697  13.347  0.9458 -0.0668 -0.4219
11107TIP3   OH254735   0.978   4.860   5.510 -0.0568  0.8014  0.6682
11107TIP3    H154736   0.894   4.904   5.498 -0.0644  0.9296  1.2022
11107TIP3    H254737   1.023   4.872   5.426 -1.1659 -0.5568 -0.1811
11108TIP3   OH254738   6.391   6.485  15.597 -0.1787 -0.4367  0.1881
11108TIP3    H154739   6.329   6.558  15.599 -1.0402 -0.9609 -2.6580
11108TIP3    H254740   6.342   6.412  15.559  1.7125 -1.3099 -0.7579
11109TIP3   OH254741   4.076   2.671  11.068  0.3823 -0.6062 -0.8900
11109TIP3    H154742   4.060   2.765  11.056  0.7872 -0.2149  1.2431
11109TIP3    H254743   4.087   2.637  10.979 -2.3234  0.8665 -1.9024
11110TIP3   OH254744   4.216   6.422  14.241 -0.7537  0.3015  0.3726
11110TIP3    H154745   4.215   6.505  14.192  0.0345  0.7337  1.0541
11110TIP3    H254746   4.267   6.442  14.320 -1.7071 -0.4717  1.2066
11111TIP3   OH254747   4.840   6.054   2.035  0.4049  0.1223 -0.4712
11111TIP3    H154748   4.748   6.026   2.029 -0.2147  1.8857  0.1697
11111TIP3    H254749   4.862   6.046   2.127  0.9404 -0.3500 -0.6316
11112TIP3   OH254750   4.856   2.470   0.486  0.4603  0.3059 -0.4931
11112TIP3    H154751   4.835   2.496   0.397  1.1132  1.7781 -0.2388
11112TIP3    H254752   4.843   2.550   0.538  0.3385 -0.4591  0.6943
11113TIP3   OH254753   4.337   4.820   0.203  0.7696  0.4440  0.8227
11113TIP3    H154754   4.422   4.838   0.162  0.7741 -0.4318  0.4369
11113TIP3    H254755   4.274   4.866   0.148  0.9749  1.0736  1.0929
11114TIP3   OH254756   3.362   6.433  15.732 -0.2315  0.2892 -0.1205
11114TIP3    H154757   3.428   6.439  15.801  0.4767 -0.0261 -0.7544
11114TIP3    H254758   3.281   6.461  15.774  0.2918  0.6355  0.6883
11115TIP3   OH254759   4.654   0.052  12.736 -0.2306 -0.0584  0.1197
11115TIP3    H154760   4.640   0.124  12.798 -1.1316  0.0968 -0.2630
11115TIP3    H254761   4.679   0.095  12.654  1.3783 -0.2765  0.4486
11116TIP3   OH254762   0.784   4.861  15.815 -0.1057  0.2098  0.1396
11116TIP3    H154763   0.766   4.950  15.847 -1.2971  0.3046 -0.7332
11116TIP3    H254764   0.859   4.871  15.757 -0.0700  0.6102  0.2481
11117TIP3   OH254765   4.647   2.058   5.552 -0.1227  0.5583 -0.4770
11117TIP3    H154766   4.614   2.133   5.503  0.4958  0.6987 -0.6970
11117TIP3    H254767   4.718   2.024   5.497 -1.0082 -0.7660 -0.8386
11118TIP3   OH254768   0.260   6.407  15.280  0.2764  0.0765  0.1167
11118TIP3    H154769   0.268   6.387  15.187 -0.8828  0.3916 -0.0682
11118TIP3    H254770   0.182   6.462  15.286  0.7985  0.7287  1.1825
11119TIP3   OH254771   5.403   2.243  10.938  0.0612  0.0609 -0.0798
11119TIP3    H154772   5.420   2.155  10.905  1.0629  0.6535 -1.2016
11119TIP3    H254773   5.477   2.262  10.995 -1.2309 -0.6188  1.9806
11120TIP3   OH254774   0.874   1.876  12.223  0.1956 -0.1804 -0.1638
11120TIP3    H154775   0.940   1.841  12.283 -0.0924  0.3751  0.4894
11120TIP3    H254776   0.796   1.823  12.239 -0.1993  0.6497  0.7262
11121TIP3   OH254777   1.535   2.082   4.387 -0.2682 -0.3321  0.4442
11121TIP3    H154778   1.626   2.108   4.373 -0.3918 -0.5009 -0.7738
11121TIP3    H254779   1.484   2.148   4.340 -0.7363 -0.7603  0.3486
11122TIP3   OH254780   6.233   2.313  16.218 -0.2164 -0.0252  0.0530
11122TIP3    H154781   6.140   2.294  16.235 -0.2149  0.0796  0.1848
11122TIP3    H254782   6.236   2.332  16.124 -0.3276 -0.0355  0.0468
11123TIP3   OH254783   4.017   5.095   2.831 -0.0092 -0.3688  0.0756
11123TIP3    H154784   4.070   5.170   2.805 -0.5390  0.0311  0.1372
11123TIP3    H254785   4.034   5.085   2.925  0.6084 -0.7708 -0.0748
11124TIP3   OH254786   2.041   0.190  16.950 -0.2010  0.6731 -0.0653
11124TIP3    H154787   1.978   0.258  16.973 -0.3480  1.1954 -1.8504
11124TIP3    H254788   2.112   0.237  16.907  0.0884 -0.2077 -0.5687
11125TIP3   OH254789   6.192   1.807  15.397 -0.1785 -0.3452  0.0024
11125TIP3    H154790   6.283   1.775  15.397  0.0370  0.2325 -1.2819
11125TIP3    H254791   6.184   1.855  15.480  0.9420  0.2890 -0.2336
11126TIP3   OH254792   3.300   1.706   4.647  0.1785 -0.6758  0.0233
11126TIP3    H154793   3.224   1.765   4.654  0.1701 -0.7551  0.6371
11126TIP3    H254794   3.331   1.697   4.737  0.7710 -0.8376 -0.1989
11127TIP3   OH254795   5.302   3.874   4.437  0.2185 -0.2357  0.1654
11127TIP3    H154796   5.313   3.783   4.465  0.2709 -0.2855 -0.0219
11127TIP3    H254797   5.368   3.922   4.487  1.3111 -0.5283 -0.9662
11128TIP3   OH254798   6.138   0.323   1.879  0.4941 -0.8418 -0.5622
11128TIP3    H154799   6.057   0.274   1.897  0.9776 -1.1213  0.9980
11128TIP3    H254800   6.117   0.413   1.903  1.2265 -1.2641  1.8688
11129TIP3   OH254801   1.269   5.730  17.016  0.1020 -0.4477  0.3371
11129TIP3    H154802   1.271   5.796  16.946 -0.0276  0.3829  1.0940
11129TIP3    H254803   1.184   5.687  17.007 -0.1525  0.0500  0.3334
11130TIP3   OH254804   3.865   3.882  12.000 -0.1723 -0.2265 -0.2049
11130TIP3    H154805   3.771   3.884  12.016 -0.1325  0.7249 -0.0081
11130TIP3    H254806   3.905   3.909  12.083  0.1705  1.4509 -0.8622
11131TIP3   OH254807   0.258   0.353  16.172  0.2494  0.2827 -0.0428
11131TIP3    H154808   0.193   0.295  16.132 -1.7555  1.4033  1.3855
11131TIP3    H254809   0.341   0.327  16.133 -0.9721 -1.5735 -1.5856
11132TIP3   OH254810   0.994   1.118  11.630 -0.4188 -0.6826  0.0306
11132TIP3    H154811   1.077   1.141  11.672  0.3776 -1.5325 -1.0058
11132TIP3    H254812   1.013   1.122  11.536 -2.3740  2.0245 -0.3530
11133TIP3   OH254813   2.394   3.555  17.117  0.2122  0.0188  0.4414
11133TIP3    H154814   2.323   3.599  17.164 -1.0365  0.0338 -1.3771
11133TIP3    H254815   2.397   3.468  17.156 -0.6949  0.0701  0.6628
11134TIP3   OH254816   3.964   6.715  10.890 -0.3116 -0.3009  0.7260
11134TIP3    H154817   3.886   6.711  10.834 -0.6890  0.4322  1.1851
11134TIP3    H254818   4.008   6.796  10.862  1.3079 -1.6481 -0.8331
11135TIP3   OH254819   3.197   0.946   4.620 -0.0949  0.3791 -0.0396
11135TIP3    H154820   3.238   0.860   4.614 -1.3165 -0.3906  1.6794
11135TIP3    H254821   3.196   0.965   4.714 -1.2179  1.5874 -0.2702
11136TIP3   OH254822   0.672   5.018   4.675  0.3133  0.2859  0.3036
11136TIP3    H154823   0.671   4.943   4.614  1.6039  1.2360 -0.9620
11136TIP3    H254824   0.596   5.070   4.651  0.1324  0.0304  0.3229
11137TIP3   OH254825   6.072   2.692  16.520 -0.0883 -0.1919 -0.0656
11137TIP3    H154826   6.009   2.643  16.573 -1.2230  0.6339 -0.6295
11137TIP3    H254827   6.107   2.627  16.458  1.1315 -1.1358  1.5176
11138TIP3   OH254828   2.033   4.910  13.401 -0.1909 -0.3243  0.5727
11138TIP3    H154829   2.098   4.842  13.382 -0.6908 -1.0408  1.3287
11138TIP3    H254830   1.985   4.876  13.477 -0.4052  0.9195  1.0144
11139TIP3   OH254831   3.017   5.410   3.252 -0.0578 -0.1166 -0.2765
11139TIP3    H154832   3.045   5.320   3.232 -0.4258 -0.0003 -1.3969
11139TIP3    H254833   3.091   5.464   3.225  0.5041 -0.1141  1.1731
11140TIP3   OH254834   4.121   1.590   5.763 -0.0381  0.3511 -0.4633
11140TIP3    H154835   4.122   1.505   5.720 -0.1233 -0.0922  0.4034
11140TIP3    H254836   4.057   1.582   5.833 -0.8023  1.4561 -1.0000
11141TIP3   OH254837   3.652   0.089   2.346  0.0801 -0.2332  0.5049
11141TIP3    H154838   3.747   0.083   2.335  0.0501 -0.3685  0.3168
11141TIP3    H254839   3.619   0.105   2.258 -0.0157  0.5387  0.6708
11142TIP3   OH254840   0.529   6.535   1.871 -0.3970 -0.1363 -0.8283
11142TIP3    H154841   0.615   6.560   1.838 -0.6701  1.0773 -0.6555
11142TIP3    H254842   0.489   6.485   1.800 -0.2698  0.8885 -1.6383
11143TIP3   OH254843   1.751   5.468   6.188  0.1926  0.1048 -0.1320
11143TIP3    H154844   1.818   5.529   6.218 -1.2399  2.2934 -1.1780
11143TIP3    H254845   1.684   5.523   6.148 -2.1929 -1.9976  0.7106
11144TIP3   OH254846   5.194   1.368  11.819 -0.1293  0.0658  0.1793
11144TIP3    H154847   5.282   1.342  11.792 -0.1113  0.0121  0.2879
11144TIP3    H254848   5.136   1.324  11.757 -0.1907 -1.5855  1.3291
11145TIP3   OH254849   5.007   4.430   4.407  0.1849 -0.0231 -0.4051
11145TIP3    H154850   4.957   4.376   4.468 -0.6972  0.9573 -0.2350
11145TIP3    H254851   5.098   4.404   4.422  0.0216  0.3813  1.5636
11146TIP3   OH254852   2.754   6.108  16.372 -0.2123 -0.3597 -0.0894
11146TIP3    H154853   2.740   6.102  16.278  2.5326  0.3372 -0.6152
11146TIP3    H254854   2.834   6.057  16.388 -0.8247 -0.7951  1.9500
11147TIP3   OH254855   0.704   0.273   1.591 -0.8890 -0.1944 -0.0968
11147TIP3    H154856   0.763   0.339   1.555  0.6222 -1.3709  0.1088
11147TIP3    H254857   0.714   0.197   1.533  1.1814 -1.9369  2.3270
11148TIP3   OH254858   1.377   2.100  11.131  0.7094  0.3648  0.1932
11148TIP3    H154859   1.462   2.136  11.156  0.1307  0.7730  1.7361
11148TIP3    H254860   1.383   2.087  11.037  2.4418  0.4723  0.2522
11149TIP3   OH254861   2.064   3.547   4.198  0.0291 -0.0574  0.7076
11149TIP3    H154862   2.146   3.572   4.154 -0.1601 -0.9030 -0.1857
11149TIP3    H254863   1.997   3.601   4.156 -0.2300 -1.2405 -0.4890
11150TIP3   OH254864   4.144   4.386   6.426 -0.2149  0.1653  0.2046
11150TIP3    H154865   4.136   4.431   6.510  0.6757 -0.7339  0.7921
11150TIP3    H254866   4.239   4.374   6.414 -0.3893 -0.6978 -0.3895
11151TIP3   OH254867   1.703   0.134   0.733 -1.0028 -0.0859 -0.5325
11151TIP3    H154868   1.717   0.146   0.639 -1.6713  0.6330 -0.5437
11151TIP3    H254869   1.773   0.184   0.775 -1.0405  0.0539 -0.6382
11152TIP3   OH254870   6.457   5.380  14.491 -0.4974 -0.0550 -0.3655
11152TIP3    H154871   6.408   5.415  14.566  0.9635  0.5501  0.3467
11152TIP3    H254872   6.435   5.438  14.418  0.0631  0.9544  0.2416
11153TIP3   OH254873   4.377   2.434   5.714 -0.1307 -0.7174 -0.4268
11153TIP3    H154874   4.385   2.339   5.714 -0.5496 -0.7520  0.1279
11153TIP3    H254875   4.299   2.452   5.661 -3.1462 -0.9742  3.4673
11154TIP3   OH254876   5.250   2.265  14.072 -0.6784  0.1671 -0.2564
11154TIP3    H154877   5.168   2.313  14.060 -0.0282  1.5334  0.5443
11154TIP3    H254878   5.265   2.222  13.988 -2.3646 -0.3581 -0.3105
11155TIP3   OH254879   6.585   6.671  16.789  0.0563 -0.5553 -0.3117
11155TIP3    H154880   6.661   6.711  16.747 -0.1953  1.3869  0.9253
11155TIP3    H254881   6.620   6.627  16.866  0.0005 -0.1468 -0.0508
11156TIP3   OH254882   2.544   5.818  12.626 -0.1881  0.5393 -0.1545
11156TIP3    H154883   2.558   5.901  12.671 -2.3661  1.3336 -0.8553
11156TIP3    H254884   2.457   5.789  12.655 -0.1946 -0.6326 -1.2562
11157TIP3   OH254885   0.830   0.774  13.054 -0.5296  0.7243  0.1259
11157TIP3    H154886   0.867   0.805  12.972 -1.0319  1.5891  0.2113
11157TIP3    H254887   0.736   0.789  13.045 -1.5096 -4.3286 -1.4123
11158TIP3   OH254888   4.866   2.917  16.175 -0.3371 -0.5031 -0.1003
11158TIP3    H154889   4.802   2.861  16.132  0.6380 -0.6926 -1.3848
11158TIP3    H254890   4.908   2.965  16.103 -0.9962  1.7579  0.9254
11159TIP3   OH254891   3.784   2.388  16.105  0.2028 -0.0887 -0.2039
11159TIP3    H154892   3.848   2.454  16.079  1.6300 -0.8739  1.2048
11159TIP3    H254893   3.824   2.343  16.179 -0.0866 -3.4804 -1.9401
11160TIP3   OH254894   2.172   2.897  13.027 -0.2358 -0.4357 -0.1289
11160TIP3    H154895   2.167   2.878  13.121  0.4020  0.1710  0.0278
11160TIP3    H254896   2.151   2.990  13.020 -1.7310 -0.7887 -0.7408
11161TIP3   OH254897   4.316   1.773   2.857 -0.4343 -0.6205  0.2579
11161TIP3    H154898   4.224   1.768   2.830 -0.9908  0.2521  1.8076
11161TIP3    H254899   4.366   1.748   2.780 -1.9270  0.6280 -1.1875
11162TIP3   OH254900   2.187   4.237  16.694  0.3199  0.2498  0.5595
11162TIP3    H154901   2.243   4.241  16.771 -1.8090  0.1776  2.1855
11162TIP3    H254902   2.171   4.329  16.671  0.2773  0.2787  0.7064
11163TIP3   OH254903   2.973   0.226   2.361 -0.2779 -0.5488 -0.5583
11163TIP3    H154904   2.988   0.220   2.266  2.0506 -1.3797 -0.1927
11163TIP3    H254905   3.032   0.295   2.391 -1.1700 -0.1218  0.2902
11164TIP3   OH254906   2.351   2.524  11.961  0.0257 -0.3927 -0.8502
11164TIP3    H154907   2.432   2.570  11.983  0.1595 -0.5115 -1.1010
11164TIP3    H254908   2.337   2.543  11.868 -0.8015  0.5189 -0.5621
11165TIP3   OH254909   0.228   6.505  12.285  0.3628 -0.1027 -0.0596
11165TIP3    H154910   0.191   6.569  12.346 -0.4414 -0.2810 -0.3498
11165TIP3    H254911   0.180   6.425  12.303  1.2603 -0.5921  0.1940
11166TIP3   OH254912   2.382   5.609  11.321 -0.8207  0.3601 -0.2408
11166TIP3    H154913   2.417   5.584  11.406 -1.2534  0.5850  0.0060
11166TIP3    H254914   2.459   5.639  11.272 -0.6953  1.1645  0.4090
11167TIP3   OH254915   1.172   4.860   3.767  0.6085  0.0653  0.2585
11167TIP3    H154916   1.242   4.810   3.810 -0.5706  0.6759  3.0940
11167TIP3    H254917   1.188   4.951   3.791  0.5804  0.6487 -1.7277
11168TIP3   OH254918   5.224   1.301  15.212 -0.2538  1.1643  0.3753
11168TIP3    H154919   5.312   1.301  15.174  0.0840  0.4238  1.1524
11168TIP3    H254920   5.207   1.210  15.235 -1.0751  1.3634  0.5987
11169TIP3   OH254921   2.306   5.876   4.796 -0.2628  0.0531  0.2470
11169TIP3    H154922   2.324   5.790   4.833 -1.3572 -0.4446 -0.3422
11169TIP3    H254923   2.262   5.924   4.867  2.1251  0.8631  1.2766
11170TIP3   OH254924   4.955   0.576  13.132 -0.2841 -0.0400  0.0198
11170TIP3    H154925   4.989   0.604  13.217 -0.1963 -1.1018  0.3473
11170TIP3    H254926   4.916   0.656  13.095  1.4537  0.9141  0.1529
11171TIP3   OH254927   6.769   0.875  11.272 -0.2934  0.1709  0.3559
11171TIP3    H154928   6.776   0.846  11.181 -1.5593 -1.5885  0.7609
11171TIP3    H254929   6.763   0.970  11.266  0.7178  0.1826 -1.3098
11172TIP3   OH254930   4.676   5.634  15.402  0.1338 -0.6677  0.4319
11172TIP3    H154931   4.617   5.624  15.477 -1.3888  2.5616 -0.1950
11172TIP3    H254932   4.763   5.614  15.437 -0.8855 -2.2232  2.2357
11173TIP3   OH254933   6.020   3.234   0.845 -0.0046 -0.2482  0.4982
11173TIP3    H154934   6.083   3.242   0.918  0.3737 -0.3310  0.1844
11173TIP3    H254935   6.073   3.202   0.772 -0.4508 -0.4710  0.2757
11174TIP3   OH254936   2.639   4.672   5.885  0.1078  0.6516 -0.2857
11174TIP3    H154937   2.713   4.611   5.873 -2.0370 -2.0812 -0.5641
11174TIP3    H254938   2.612   4.659   5.976 -1.8741 -0.7525 -1.0034
11175TIP3   OH254939   5.265   5.576   5.092 -0.3329 -0.2922  0.1104
11175TIP3    H154940   5.180   5.532   5.093  0.4571 -1.9086 -0.2348
11175TIP3    H254941   5.244   5.668   5.108 -2.5604  0.0867 -3.5397
11176TIP3   OH254942   3.448   0.921  12.471  0.8407  0.1920  0.1654
11176TIP3    H154943   3.535   0.951  12.445  0.2597 -0.7685 -3.5084
11176TIP3    H254944   3.449   0.827  12.453 -0.6330 -0.0511  1.1647
11177TIP3   OH254945   3.241   3.058  14.852  0.2856 -0.0185 -0.2401
11177TIP3    H154946   3.281   2.971  14.856  0.5014  0.1330  1.3734
11177TIP3    H254947   3.147   3.041  14.851  0.3338 -0.2891 -1.0525
11178TIP3   OH254948   4.850   4.555   1.967 -0.0137  0.4762  0.1744
11178TIP3    H154949   4.840   4.553   2.062  1.4320 -0.7990  0.3372
11178TIP3    H254950   4.797   4.482   1.935 -1.4110  1.5811 -0.1411
11179TIP3   OH254951   3.882   1.787  14.307 -0.2590 -0.0348  0.0589
11179TIP3    H154952   3.909   1.820  14.222  1.1075 -2.2546 -0.4355
11179TIP3    H254953   3.832   1.859  14.345  1.8792  2.2889 -1.2094
11180TIP3   OH254954   1.655   2.441   2.598  0.0254  0.1464 -0.4152
11180TIP3    H154955   1.584   2.406   2.544 -0.7334 -2.3817  1.9643
11180TIP3    H254956   1.620   2.521   2.636 -0.8459 -0.0897 -0.7003
11181TIP3   OH254957   1.581   1.925   2.267 -0.3229 -0.0972  0.0626
11181TIP3    H154958   1.558   1.993   2.204 -0.8251 -1.6110 -1.4756
11181TIP3    H254959   1.663   1.955   2.306  0.4688  0.5463 -1.9427
11182TIP3   OH254960   1.811   4.615   2.548 -0.8575 -0.7438  0.6143
11182TIP3    H154961   1.890   4.640   2.500 -2.0101  1.6852 -0.2196
11182TIP3    H254962   1.764   4.557   2.489 -0.2699 -1.2422  0.6235
11183TIP3   OH254963   3.755   5.405   4.793 -0.0825  0.2106  0.0663
11183TIP3    H154964   3.783   5.472   4.855 -2.5868  0.6337  0.8511
11183TIP3    H254965   3.676   5.440   4.754 -0.9398 -1.8660 -0.2156
11184TIP3   OH254966   0.578   0.795   0.858 -0.2581  0.2656 -0.4462
11184TIP3    H154967   0.669   0.777   0.881 -0.3965 -2.6828 -1.7373
11184TIP3    H254968   0.582   0.835   0.772 -0.1702 -0.5575 -0.8354
11185TIP3   OH254969   3.511   5.425  11.180 -0.3852 -0.1168 -0.0859
11185TIP3    H154970   3.529   5.345  11.130  0.4369  1.7948 -3.0798
11185TIP3    H254971   3.435   5.463  11.137 -0.5325  0.9388  1.0566
11186TIP3   OH254972   5.156   5.324   2.915  0.6262 -0.0538 -0.6272
11186TIP3    H154973   5.178   5.267   2.842 -0.3828 -2.8403  1.0873
11186TIP3    H254974   5.064   5.348   2.900  1.4003  2.4524 -2.0519
11187TIP3   OH254975   1.272   4.160  13.947 -0.1281 -0.0600 -0.6416
11187TIP3    H154976   1.272   4.153  14.043 -0.3705  1.6729 -0.4743
11187TIP3    H254977   1.310   4.247  13.930  0.2290 -0.4880 -2.1392
11188TIP3   OH254978   2.400   6.210  14.653 -0.1789  0.2515 -0.0307
11188TIP3    H154979   2.347   6.289  14.665  1.0032  1.2934 -1.3128
11188TIP3    H254980   2.423   6.210  14.560  0.9993 -0.8541  0.2260
11189TIP3   OH254981   3.665   2.036  10.338  0.0610  0.4485 -0.3095
11189TIP3    H154982   3.679   2.099  10.409  1.4786  1.2186 -1.2393
11189TIP3    H254983   3.633   1.957  10.382  1.9130  0.5534  1.3305
11190TIP3   OH254984   3.011   5.920  11.918  0.3417 -0.7019 -0.1101
11190TIP3    H154985   3.069   5.848  11.893  0.6869 -0.7387  0.7624
11190TIP3    H254986   3.067   5.998  11.916  0.1234 -0.5499 -0.4260
11191TIP3   OH254987   1.946   4.511   0.370  0.3876  0.0250  0.6783
11191TIP3    H154988   1.937   4.494   0.463  2.3244 -0.8615  0.7673
11191TIP3    H254989   2.033   4.550   0.361  0.3469 -0.1498 -0.7801
11192TIP3   OH254990   5.258   2.796  15.986 -0.0401 -0.2428  0.1010
11192TIP3    H154991   5.299   2.850  15.919  1.0640  2.6637  2.8734
11192TIP3    H254992   5.330   2.769  16.043 -0.7238 -3.8816 -0.4986
11193TIP3   OH254993   3.994   3.101  13.672 -0.3789 -0.4069 -0.2500
11193TIP3    H154994   3.949   3.035  13.619 -0.4464 -1.4378  1.0271
11193TIP3    H254995   4.065   3.053  13.715 -1.3540 -0.0620  1.9078
11194TIP3   OH254996   3.506   3.934   1.365  0.1484  0.2593  0.1632
11194TIP3    H154997   3.481   3.961   1.453  0.9960  0.7545  0.2662
11194TIP3    H254998   3.602   3.941   1.364  0.1720 -0.0308 -0.7039
11195TIP3   OH254999   0.141   4.420  12.634  0.6555  0.1894 -0.1835
11195TIP3    H155000   0.110   4.419  12.543 -2.0926 -2.5079  0.6185
11195TIP3    H255001   0.205   4.349  12.638  1.8790  1.2527 -0.2714
11196TIP3   OH255002   2.860   5.204   3.419 -0.1833  0.1658  0.0535
11196TIP3    H155003   2.769   5.183   3.399 -0.4844  0.9600  0.5713
11196TIP3    H255004   2.881   5.278   3.363 -0.1767  0.6309  0.6558
11197TIP3   OH255005   4.889   3.801  16.600  0.1943  0.0415 -0.0924
11197TIP3    H155006   4.929   3.758  16.524 -0.0153 -0.1475 -0.0970
11197TIP3    H255007   4.944   3.878  16.615  1.4418 -0.9919  0.8308
11198TIP3   OH255008   0.146   6.491   5.646 -0.0714  0.6309 -0.6465
11198TIP3    H155009   0.139   6.453   5.559  0.2509  1.5353 -1.0746
11198TIP3    H255010   0.186   6.422   5.699  0.0395  0.1903 -1.2956
11199TIP3   OH255011   2.614   0.326   0.239  0.1359  0.1405 -0.1904
11199TIP3    H155012   2.528   0.321   0.282  0.7570 -1.9683  0.9466
11199TIP3    H255013   2.596   0.304   0.148 -0.5407 -0.2357  0.0244
11200TIP3   OH255014   4.289   1.710   4.779  0.1590  0.1340  0.1021
11200TIP3    H155015   4.241   1.732   4.699 -1.7894 -1.4704  0.7324
11200TIP3    H255016   4.357   1.649   4.750  0.8057  1.1346 -0.5723
11201TIP3   OH255017   3.738   5.642   5.777  0.2221  0.3081  0.5906
11201TIP3    H155018   3.774   5.710   5.834  0.2071  1.5689 -0.8479
11201TIP3    H255019   3.656   5.679   5.745 -0.7337 -1.1663  1.1972
11202TIP3   OH255020   1.528   4.056   1.859 -0.3922 -0.3385  0.0556
11202TIP3    H155021   1.519   3.969   1.898 -0.2716 -1.3572 -2.0733
11202TIP3    H255022   1.439   4.083   1.838 -0.3862 -0.2037  0.2069
11203TIP3   OH255023   2.511   1.499   5.026 -0.1915  0.2210  0.1674
11203TIP3    H155024   2.509   1.434   4.955 -0.3769 -0.9547  1.2255
11203TIP3    H255025   2.603   1.501   5.054 -0.1540  0.5510  0.0288
11204TIP3   OH255026   4.516   5.077   3.784 -0.9208  0.1007  0.2295
11204TIP3    H155027   4.604   5.045   3.806 -0.8289  1.1922  1.6121
11204TIP3    H255028   4.469   5.078   3.868 -1.4588  1.8189 -0.0404
11205TIP3   OH255029   1.708   2.467   1.632 -0.4474  0.3574 -0.4438
11205TIP3    H155030   1.791   2.515   1.629  1.3227 -2.2030  1.9752
11205TIP3    H255031   1.721   2.392   1.575 -2.2401  1.2855 -2.2042
11206TIP3   OH255032   2.978   2.608   2.832  0.2087 -0.2170 -0.1771
11206TIP3    H155033   3.009   2.587   2.920 -0.6773 -2.9048 -0.4250
11206TIP3    H255034   3.051   2.584   2.775 -0.7329 -2.7591 -0.4436
11207TIP3   OH255035   2.584   0.147   0.014 -0.0362 -0.1878 -0.4295
11207TIP3    H155036   2.517   0.120  -0.048 -1.1443  0.1389  0.5901
11207TIP3    H255037   2.614   0.066   0.055  1.7970 -0.5995 -2.3850
11208TIP3   OH255038   3.963   4.686   5.099 -0.1197  0.1494 -0.0272
11208TIP3    H155039   3.868   4.676   5.104  0.0165 -0.6765  2.8817
11208TIP3    H255040   3.996   4.638   5.175  2.5933  1.0595 -0.5163
11209TIP3   OH255041   4.099   2.392   1.804  1.0185  0.8419 -0.4663
11209TIP3    H155042   4.106   2.386   1.709  1.6101 -0.6690 -0.3640
11209TIP3    H255043   4.060   2.309   1.831  1.4567  0.9692  0.6553
11210TIP3   OH255044   6.626   5.890   4.039  0.1345  0.2549  0.4720
11210TIP3    H155045   6.581   5.806   4.029 -0.6464  0.6856  0.3148
11210TIP3    H255046   6.616   5.912   4.132 -0.0832  0.4138  0.4096
11211TIP3   OH255047   1.404   2.554   3.157 -0.1679 -0.2667 -0.0055
11211TIP3    H155048   1.337   2.598   3.104 -0.1438 -0.2962 -0.0600
11211TIP3    H255049   1.457   2.505   3.094 -0.5982 -0.9067  0.1281
11212TIP3   OH255050   3.362   4.681   0.760 -0.0368  0.3818 -0.1738
11212TIP3    H155051   3.342   4.708   0.850  0.6520 -0.1110  0.1389
11212TIP3    H255052   3.318   4.597   0.751  1.0252 -0.2410  0.1907
11213TIP3   OH255053   5.048   0.389   3.236 -0.6576  0.2629 -0.3104
11213TIP3    H155054   5.127   0.347   3.203  0.5558  2.1829  0.0025
11213TIP3    H255055   5.077   0.476   3.264 -2.3665  0.0937  2.2943
11214TIP3   OH255056   5.166   3.752   6.164  0.4499  0.9053 -0.1433
11214TIP3    H155057   5.255   3.786   6.151  1.0814 -1.3448 -2.6976
11214TIP3    H255058   5.173   3.659   6.143 -2.4260  0.5458  0.1149
11215TIP3   OH255059   3.608   4.743   4.026 -0.1097  0.0233  0.9845
11215TIP3    H155060   3.647   4.657   4.011 -0.7948 -0.3799  1.4744
11215TIP3    H255061   3.520   4.725   4.060 -0.0070  0.9066  1.7747
11216TIP3   OH255062   1.635   1.519   3.306  0.2881  0.3705  0.3978
11216TIP3    H155063   1.604   1.574   3.234  2.7906  0.2370 -0.8969
11216TIP3    H255064   1.687   1.578   3.360 -1.6460  0.4908  2.2672
11217TIP3   OH255065   2.013   6.668   5.819 -0.1740 -0.1665 -0.2788
11217TIP3    H155066   1.998   6.710   5.903  1.0431  3.2043 -1.5796
11217TIP3    H255067   2.108   6.665   5.810 -0.2412  1.2080 -2.1868
11218TIP3   OH255068   6.584   5.750  12.995 -0.3911 -0.3239 -0.0723
11218TIP3    H155069   6.550   5.762  13.084 -0.0470 -1.1429  0.1832
11218TIP3    H255070   6.625   5.663  12.997 -2.2181 -1.2804 -1.6287
11219TIP3   OH255071   4.342   4.348  10.735  0.0762 -0.2268  0.1204
11219TIP3    H155072   4.360   4.423  10.791 -0.0763 -0.7825  0.9253
11219TIP3    H255073   4.262   4.372  10.688 -0.8748 -0.4902  1.5237
11220TIP3   OH255074   5.983   0.601  11.774 -0.4102 -0.3752  0.3173
11220TIP3    H155075   5.999   0.614  11.868  1.5963  0.4469 -0.0882
11220TIP3    H255076   5.944   0.683  11.745  1.0887  0.2849  0.0480
11221TIP3   OH255077   3.826   6.522  16.595 -0.9157 -0.2533 -0.5280
11221TIP3    H155078   3.813   6.427  16.595 -1.4562 -0.2312  1.9340
11221TIP3    H255079   3.906   6.535  16.645 -2.0071  0.6739  1.0366
11222TIP3   OH255080   6.018   3.242   3.141  0.0048 -0.1288  0.3870
11222TIP3    H155081   6.054   3.204   3.061 -0.1326 -0.0829  0.3041
11222TIP3    H255082   6.093   3.244   3.201 -0.0590 -0.7965  0.4936
11223TIP3   OH255083   5.391   3.948  15.640 -0.2293  0.3029 -0.6847
11223TIP3    H155084   5.424   4.011  15.576 -1.9178  0.9345 -0.9643
11223TIP3    H255085   5.459   3.881  15.645  1.3933  1.8681 -0.7519
11224TIP3   OH255086   1.830   0.702  11.561 -0.1354  0.5120  0.5011
11224TIP3    H155087   1.847   0.630  11.622  1.1896  0.1152 -0.2705
11224TIP3    H255088   1.745   0.682  11.522 -1.0764  0.8581  2.2826
11225TIP3   OH255089   4.793   5.680   4.870 -0.0244  0.2658  0.1501
11225TIP3    H155090   4.754   5.609   4.818 -0.5559 -0.3006  1.2918
11225TIP3    H255091   4.718   5.732   4.900  0.3419  1.1355 -0.4086
11226TIP3   OH255092   2.749   3.790   4.149 -0.0252 -0.2348 -0.7994
11226TIP3    H155093   2.769   3.731   4.077 -0.0323 -0.3030 -0.7463
11226TIP3    H255094   2.723   3.872   4.108  1.3334  0.1822 -0.8822
11227TIP3   OH255095   4.095   5.988   1.890  0.0471 -0.3220 -0.1489
11227TIP3    H155096   4.024   5.924   1.888  1.0608 -1.4585 -1.3989
11227TIP3    H255097   4.053   6.069   1.920 -1.4265 -1.3550  0.7017
11228TIP3   OH255098   3.466   4.607   4.482 -0.0840  0.3045  0.2115
11228TIP3    H155099   3.425   4.550   4.416  0.2582  0.0854  0.1890
11228TIP3    H255100   3.419   4.586   4.563  0.4703 -0.4831  0.3407
11229TIP3   OH255101   2.344   5.631   3.467  0.6522  0.0282  0.1077
11229TIP3    H155102   2.368   5.688   3.394 -0.3465  1.1785  0.6389
11229TIP3    H255103   2.358   5.686   3.545  0.0603 -0.5967  0.6603
11230TIP3   OH255104   1.522   4.790   1.267  0.2942 -0.2492 -0.0299
11230TIP3    H155105   1.535   4.850   1.341 -1.1502  0.8763 -0.6367
11230TIP3    H255106   1.550   4.705   1.300  0.1359  0.3096  1.6557
11231TIP3   OH255107   4.304   1.485   1.753 -0.1069 -0.0790  0.1983
11231TIP3    H155108   4.377   1.438   1.712  0.8999  0.6713  1.0751
11231TIP3    H255109   4.298   1.448   1.841 -0.3007  0.3644  0.3736
11232TIP3   OH255110   6.058   0.247  16.653  0.3104  0.0781 -0.0154
11232TIP3    H155111   6.105   0.282  16.728  0.5827 -0.1639 -0.0673
11232TIP3    H255112   6.062   0.317  16.587  1.0159 -0.1114 -0.1865
11233TIP3   OH255113   4.529   2.613  13.641  0.2810  0.2160 -0.0979
11233TIP3    H155114   4.509   2.647  13.554  0.7707 -0.0100 -0.3071
11233TIP3    H255115   4.513   2.686  13.700 -2.6731 -0.3597 -0.0282
11234TIP3   OH255116   0.986   0.654  14.321 -0.2932  0.4308  0.4218
11234TIP3    H155117   1.007   0.587  14.256  1.1452  1.1682  0.0770
11234TIP3    H255118   0.976   0.734  14.270 -1.5948  0.5688  0.8689
11235TIP3   OH255119   1.822   6.441   4.605  0.4677  0.3748 -0.4640
11235TIP3    H155120   1.795   6.363   4.558  0.6568  0.1831 -0.2605
11235TIP3    H255121   1.873   6.491   4.542  2.7127 -0.9813  0.1673
11236TIP3   OH255122   0.240   5.222  11.595 -0.3524 -0.4913 -0.2202
11236TIP3    H155123   0.311   5.231  11.658 -1.9899  0.7946  1.5936
11236TIP3    H255124   0.246   5.301  11.540 -2.0446  1.2770  1.9053
11237TIP3   OH255125   2.192   4.811   2.548  1.0637  0.0083 -0.0120
11237TIP3    H155126   2.242   4.891   2.567 -0.0945  0.7374  0.0651
11237TIP3    H255127   2.172   4.774   2.634  0.3014  0.4660  0.0119
11238TIP3   OH255128   6.027   0.679  16.269 -0.6053  0.0656  0.4463
11238TIP3    H155129   6.028   0.758  16.215  0.5089  1.2513  2.0922
11238TIP3    H255130   5.949   0.689  16.324 -1.7144 -1.1169 -0.8293
11239TIP3   OH255131   4.335   5.299  10.317 -0.0242 -0.3873 -0.3601
11239TIP3    H155132   4.388   5.221  10.329 -0.4372 -0.8274 -1.3192
11239TIP3    H255133   4.284   5.282  10.238  1.3732  1.6761 -1.8208
11240TIP3   OH255134   5.987   0.938   2.462 -0.1262  0.1722 -0.6983
11240TIP3    H155135   5.934   0.884   2.520 -1.3043  1.9757 -0.0025
11240TIP3    H255136   6.040   0.992   2.522 -2.6710  3.3825 -1.0369
11241TIP3   OH255137   0.244   6.593  16.304 -0.2210  0.1356 -0.6091
11241TIP3    H155138   0.314   6.652  16.333  0.6462 -0.6676 -1.0303
11241TIP3    H255139   0.163   6.640  16.325  0.4263  2.2711 -2.4879
11242TIP3   OH255140   4.245   2.604  15.864 -0.1975 -0.3088 -0.5467
11242TIP3    H155141   4.221   2.563  15.780 -0.7148  0.0923 -0.6040
11242TIP3    H255142   4.284   2.688  15.839  1.7996 -1.1568 -0.4785
11243TIP3   OH255143   5.481   1.885   3.098 -0.4030  0.3176 -0.4887
11243TIP3    H155144   5.477   1.975   3.128 -0.9357 -0.6027  2.5681
11243TIP3    H255145   5.396   1.848   3.122 -0.6610 -0.7544 -2.7676
11244TIP3   OH255146   4.865   6.317  17.019 -0.0939  0.1501 -0.4857
11244TIP3    H155147   4.841   6.246  16.960  2.8832 -0.6947 -0.8460
11244TIP3    H255148   4.865   6.277  17.106  1.0380 -0.2114 -0.6268
11245TIP3   OH255149   1.256   2.895  15.526 -0.4395 -0.0887 -0.6811
11245TIP3    H155150   1.312   2.973  15.532  2.4883 -2.1457  1.5064
11245TIP3    H255151   1.196   2.902  15.600  1.2555 -0.8031  0.8458
11246TIP3   OH255152   2.045   4.461   0.925 -0.0169 -0.6808 -0.2817
11246TIP3    H155153   2.127   4.510   0.916  0.3726 -1.2252  0.2436
11246TIP3    H255154   2.067   4.387   0.982 -1.4184  0.4489  1.8454
11247TIP3   OH255155   2.387   2.806   5.027 -0.2654  0.1723 -0.5885
11247TIP3    H155156   2.394   2.839   5.117  0.4203 -2.6575  0.5089
11247TIP3    H255157   2.304   2.760   5.025  0.5499 -1.3596 -0.7648
11248TIP3   OH255158   5.952   4.519   2.163 -0.1125  0.7536  0.2049
11248TIP3    H155159   5.947   4.575   2.085 -0.4260 -1.2031 -1.2761
11248TIP3    H255160   6.044   4.490   2.165  0.0025  1.1512  0.8517
11249TIP3   OH255161   5.733   5.734   3.890  0.4039  0.3723  0.0664
11249TIP3    H155162   5.681   5.770   3.819  1.4835 -1.9167 -2.0185
11249TIP3    H255163   5.785   5.665   3.850  1.9860 -0.2324  2.8640
11250TIP3   OH255164   5.276   0.690   4.908 -0.2613  1.1801  0.0276
11250TIP3    H155165   5.331   0.677   4.831 -1.6764  1.1131 -1.0005
11250TIP3    H255166   5.187   0.676   4.877 -0.7646 -1.3565  2.1871
11251TIP3   OH255167   4.511   3.288  12.655 -0.3849 -0.8203 -0.2356
11251TIP3    H155168   4.421   3.321  12.654 -0.4279 -0.8290 -2.8010
11251TIP3    H255169   4.503   3.194  12.638  0.0856 -0.8570 -0.2756
11252TIP3   OH255170   5.566   1.473   4.713 -0.6252  0.1487  0.0302
11252TIP3    H155171   5.523   1.511   4.636  2.0167  1.1426 -1.0603
11252TIP3    H255172   5.538   1.528   4.786 -0.8400  1.0265 -0.7004
11253TIP3   OH255173   5.003   4.920  16.429  0.0798  0.3123  0.9967
11253TIP3    H155174   5.030   5.008  16.457 -0.1016  1.0928 -1.1074
11253TIP3    H255175   5.071   4.893  16.368 -0.7333 -0.2933  0.3379
11254TIP3   OH255176   4.385   5.099  11.343 -0.5129  0.2866 -0.1363
11254TIP3    H155177   4.356   5.188  11.324  1.7572  0.3912 -4.0624
11254TIP3    H255178   4.479   5.107  11.358 -0.5469 -1.3188  1.3396
11255TIP3   OH255179   1.911   0.663   0.482 -0.5003 -0.4960  0.1473
11255TIP3    H155180   1.932   0.719   0.407 -0.5312 -2.0503 -1.0712
11255TIP3    H255181   1.955   0.704   0.556 -0.9918  1.4459 -0.5760
11256TIP3   OH255182   1.278   4.817  16.277  0.1537 -0.3321 -0.6002
11256TIP3    H155183   1.331   4.890  16.309  0.3532 -0.0298 -1.5993
11256TIP3    H255184   1.243   4.847  16.193 -1.7085 -0.4914  0.0894
11257TIP3   OH255185   3.119   2.814  11.166 -0.4195  0.0327 -0.7602
11257TIP3    H155186   3.099   2.808  11.073 -2.3507  0.8274 -0.4488
11257TIP3    H255187   3.122   2.908  11.184 -0.9201 -0.1050  0.1186
11258TIP3   OH255188   0.073   4.738  11.259  0.4171 -0.2388 -0.1628
11258TIP3    H155189   0.080   4.736  11.355  0.5217  0.7220 -0.1408
11258TIP3    H255190   0.150   4.786  11.230 -0.2690  0.6033 -0.6421
11259TIP3   OH255191   0.246   0.879  17.191  0.5341 -0.9792  0.8784
11259TIP3    H155192   0.334   0.842  17.195  1.7275  1.7351  1.7731
11259TIP3    H255193   0.233   0.901  17.099  1.3659 -0.1438  0.9523
11260TIP3   OH255194   5.472   6.735  13.020  0.1125 -0.0283 -0.0390
11260TIP3    H155195   5.378   6.725  13.005  0.0143  0.0736  0.4819
11260TIP3    H255196   5.480   6.744  13.115  0.5070  1.3693 -0.1774
11261TIP3   OH255197   6.412   5.300  16.414 -0.4956 -0.0681 -0.1211
11261TIP3    H155198   6.454   5.368  16.361 -1.2003  0.3913 -0.0977
11261TIP3    H255199   6.428   5.327  16.504  0.8486 -0.9371 -0.0655
11262TIP3   OH255200   0.604   5.218  13.913 -0.6475 -0.1639 -0.3310
11262TIP3    H155201   0.583   5.309  13.933 -0.6338 -0.3483  0.5694
11262TIP3    H255202   0.604   5.174  13.998 -2.2298 -1.3435 -0.8970
11263TIP3   OH255203   4.576   6.285   0.702 -0.4776  0.2894 -0.3403
11263TIP3    H155204   4.621   6.200   0.709 -0.9746 -0.0692 -1.3112
11263TIP3    H255205   4.509   6.271   0.635 -1.5844  1.0198  0.5882
11264TIP3   OH255206   2.569   1.622   2.525 -0.4321 -0.3229 -1.0595
11264TIP3    H155207   2.564   1.530   2.498 -1.2664 -1.1424  1.5017
11264TIP3    H255208   2.481   1.656   2.509 -0.8231 -0.7065  0.1531
11265TIP3   OH255209   0.253   1.229   5.644 -0.1262 -0.1770  0.5606
11265TIP3    H155210   0.230   1.243   5.553  2.8786  1.2389 -0.1120
11265TIP3    H255211   0.202   1.152   5.671 -1.5509 -0.2577 -2.0730
11266TIP3   OH255212   4.273   1.600  13.155  0.3351  0.1870  0.0397
11266TIP3    H155213   4.257   1.509  13.181 -1.5576  0.9791  1.9040
11266TIP3    H255214   4.187   1.633  13.129  0.4922  2.0709  1.6706
11267TIP3   OH255215   2.178   4.186  12.603 -0.6402  0.2351 -0.7813
11267TIP3    H155216   2.092   4.171  12.642  0.6321  0.3861  2.3625
11267TIP3    H255217   2.174   4.275  12.570 -1.5900  0.3505 -0.3930
11268TIP3   OH255218   6.028   0.762  11.535  0.0985  0.0679  0.4523
11268TIP3    H155219   6.081   0.741  11.458  0.3180  0.7016  0.4289
11268TIP3    H255220   5.952   0.704  11.528  0.2717 -0.1031 -0.0675
11269TIP3   OH255221   4.859   4.263   3.110  0.0705 -0.2996  0.0866
11269TIP3    H155222   4.808   4.208   3.051  1.4455 -1.2151 -0.3131
11269TIP3    H255223   4.848   4.223   3.197  0.3388 -0.6832 -0.0529
11270TIP3   OH255224   1.468   0.168  15.652 -0.0957  0.4571  0.1108
11270TIP3    H155225   1.400   0.217  15.607 -0.4883  0.9137  1.1534
11270TIP3    H255226   1.435   0.159  15.742 -0.4876 -2.5684 -0.2461
11271TIP3   OH255227   4.119   4.904  13.158  0.3014  0.4834 -0.6255
11271TIP3    H155228   4.167   4.930  13.236  0.5141  0.9316 -0.9006
11271TIP3    H255229   4.067   4.981  13.136 -1.8392 -0.5018  0.6136
11272TIP3   OH255230   0.513   0.039  12.311  0.5574 -0.2643 -0.2832
11272TIP3    H155231   0.419   0.053  12.313  0.6114  0.0450  1.1260
11272TIP3    H255232   0.550   0.123  12.282  0.4940  0.3315  1.2667
11273TIP3   OH255233   4.191   1.895  12.564  0.3136 -0.0260 -0.1974
11273TIP3    H155234   4.276   1.851  12.568 -0.2254 -1.4021 -2.2252
11273TIP3    H255235   4.213   1.988  12.559  1.6562 -0.3043  0.1025
11274TIP3   OH255236   1.247   3.607  13.627 -0.1640 -0.0514  0.6088
11274TIP3    H155237   1.335   3.589  13.593  0.3408  1.0309  1.3054
11274TIP3    H255238   1.189   3.593  13.552  0.5288 -1.3238  0.2814
11275TIP3   OH255239   6.047   5.058  12.246  0.3164 -0.5586 -0.1919
11275TIP3    H155240   6.087   5.044  12.332 -1.2830 -1.5821  0.4222
11275TIP3    H255241   5.964   5.010  12.250 -1.2155  1.8182 -1.2376
11276TIP3   OH255242   2.199   5.319  14.829  0.9302 -0.1818  0.2845
11276TIP3    H155243   2.266   5.380  14.799  1.3766 -0.8378 -0.0750
11276TIP3    H255244   2.214   5.240  14.779  0.2270 -0.5257  0.5982
11277TIP3   OH255245   0.722   4.337   2.272 -0.4570  0.4157 -0.0206
11277TIP3    H155246   0.629   4.313   2.279  0.1691 -2.1334  0.3045
11277TIP3    H255247   0.759   4.315   2.357  0.7728 -0.1284 -0.6723
11278TIP3   OH255248   3.707   5.740   6.506  0.0102  0.3183 -0.2508
11278TIP3    H155249   3.787   5.697   6.478 -0.4056 -0.7187  0.0928
11278TIP3    H255250   3.728   5.781   6.590  0.2238  0.1789 -0.2380
11279TIP3   OH255251   0.580   1.033   4.946  0.1027  0.2050  0.1197
11279TIP3    H155252   0.653   1.037   5.007  0.1062  0.2320  0.1136
11279TIP3    H255253   0.526   1.110   4.967 -0.0058  0.0992  0.2269
11280TIP3   OH255254   2.483   4.419   2.457  0.3295  0.3016 -0.1783
11280TIP3    H155255   2.488   4.429   2.361 -0.9410  1.9692 -0.1186
11280TIP3    H255256   2.389   4.410   2.475  0.6351 -1.0750  0.8486
11281TIP3   OH255257   2.931   0.583  13.795  0.1237  0.1337 -0.3597
11281TIP3    H155258   2.887   0.644  13.854 -0.9552 -0.8809 -0.0774
11281TIP3    H255259   3.007   0.552  13.845 -0.5479 -0.4012  0.3656
11282TIP3   OH255260   0.836   2.114  12.396 -0.3361 -0.4601 -0.6164
11282TIP3    H155261   0.838   2.062  12.477  0.2534  0.6914  0.1386
11282TIP3    H255262   0.846   2.050  12.326 -0.7972 -1.4807  0.2244
11283TIP3   OH255263   0.594   3.112  12.561 -0.3380 -0.4234  0.0271
11283TIP3    H155264   0.593   3.093  12.467 -0.2136 -0.1816 -0.0213
11283TIP3    H255265   0.529   3.051  12.597 -1.5199  0.5325 -0.4201
11284TIP3   OH255266   5.375   4.359   6.073 -0.2957 -0.2703  0.7714
11284TIP3    H155267   5.446   4.302   6.041  0.4699  1.1458 -0.1395
11284TIP3    H255268   5.337   4.397   5.995 -0.8747  0.3921  1.3613
11285TIP3   OH255269   5.372   0.364   1.704 -0.4116 -0.1577  0.0489
11285TIP3    H155270   5.444   0.395   1.759 -0.2283  1.8038 -1.1625
11285TIP3    H255271   5.411   0.298   1.647 -0.2582 -1.1057  1.2198
11286TIP3   OH255272   0.539   0.919  16.712  0.0271  0.0059 -0.5076
11286TIP3    H155273   0.519   1.012  16.699  0.9644  0.1387 -1.1092
11286TIP3    H255274   0.622   0.919  16.760 -0.9752 -0.5316  1.3376
11287TIP3   OH255275   4.078   4.250  12.039 -0.2411 -0.2770 -0.1123
11287TIP3    H155276   4.166   4.224  12.011 -0.7173  0.7341 -2.8437
11287TIP3    H255277   4.020   4.211  11.974 -1.7273  0.2229  0.8686
11288TIP3   OH255278   1.599   4.544   3.681  0.2342  0.4222  0.3174
11288TIP3    H155279   1.577   4.551   3.773 -1.4480 -0.4322  0.0126
11288TIP3    H255280   1.686   4.584   3.674 -0.7820  3.1119  1.7645
11289TIP3   OH255281   3.170   2.276   1.191  0.1976 -1.0730  0.0287
11289TIP3    H155282   3.094   2.316   1.233 -0.8318 -1.8023 -1.0450
11289TIP3    H255283   3.171   2.185   1.222  2.5377 -0.3214  2.4810
11290TIP3   OH255284   6.546   5.141   5.305  0.6410 -0.0543 -0.0042
11290TIP3    H155285   6.577   5.201   5.237  0.3007  0.7271  0.5287
11290TIP3    H255286   6.554   5.189   5.387 -1.8740  0.1782  0.1824
11291TIP3   OH255287   5.911   2.823   5.582 -0.1820 -0.4534  1.1697
11291TIP3    H155288   5.945   2.913   5.575 -0.0554 -0.5392  0.6153
11291TIP3    H255289   5.837   2.830   5.642  0.4019 -0.1422  1.8763
11292TIP3   OH255290   5.225   6.027  16.083  0.0942 -0.0625 -0.4586
11292TIP3    H155291   5.226   5.965  16.010  0.3707  0.1233 -0.6143
11292TIP3    H255292   5.164   5.989  16.146 -1.3839  0.5447 -1.4572
11293TIP3   OH255293   0.365   0.277  14.945 -0.0545 -0.4990  0.4360
11293TIP3    H155294   0.339   0.359  14.988 -0.1577 -0.6814  0.7259
11293TIP3    H255295   0.359   0.211  15.014 -2.8507 -1.3057 -0.4576
11294TIP3   OH255296   1.240   1.990   2.166 -0.2850  0.0955  0.0175
11294TIP3    H155297   1.311   1.990   2.103 -1.6690  0.3166 -1.6304
11294TIP3    H255298   1.283   1.997   2.251  1.5822  2.4712 -0.9936
11295TIP3   OH255299   0.110   4.964   0.482  0.6883 -0.0847  0.2539
11295TIP3    H155300   0.075   4.879   0.508  0.3800  0.0582  0.3167
11295TIP3    H255301   0.151   4.999   0.561  1.6364 -0.5709 -0.0058
11296TIP3   OH255302   0.060   2.437  13.279  0.3743 -0.2923 -0.6037
11296TIP3    H155303   0.096   2.434  13.368  0.2305 -1.4619 -0.5712
11296TIP3    H255304   0.112   2.504  13.234 -0.0620  0.8793  0.5742
11297TIP3   OH255305   1.427   1.211   2.749 -0.3987 -0.1426 -0.1868
11297TIP3    H155306   1.514   1.184   2.780 -0.3665  0.9617  0.7780
11297TIP3    H255307   1.366   1.164   2.805 -0.3361  3.3688  3.2037
11298TIP3   OH255308   1.718   6.300  15.618  1.0473  0.6013 -0.3193
11298TIP3    H155309   1.713   6.313  15.712 -1.5067 -0.1690 -0.2526
11298TIP3    H255310   1.638   6.250  15.597  1.9906 -0.0222 -2.7576
11299TIP3   OH255311   4.209   0.461  13.220  1.0548  0.1753  0.5575
11299TIP3    H155312   4.223   0.392  13.155  0.3488  1.2799 -0.7996
11299TIP3    H255313   4.284   0.452  13.279  2.9253  0.4877 -1.6267
11300TIP3   OH255314   4.442   5.998  11.103 -0.2675  0.0982  0.4435
11300TIP3    H155315   4.350   5.999  11.129 -0.2310 -0.3520  0.6079
11300TIP3    H255316   4.447   6.056  11.027 -0.8847 -0.7019 -0.2263
11301TIP3   OH255317   1.482   3.871   3.105  0.3097  0.4740  0.0770
11301TIP3    H155318   1.525   3.798   3.062 -0.5807 -0.8384  1.3066
11301TIP3    H255319   1.542   3.896   3.176  0.3108  0.4998  0.0670
11302TIP3   OH255320   3.022   2.766   0.565  0.0505  0.6491  0.4476
11302TIP3    H155321   3.065   2.838   0.518 -0.1641  1.3592  1.3143
11302TIP3    H255322   2.933   2.764   0.528  0.1198  0.7002  0.2765
11303TIP3   OH255323   1.377   0.946  12.926 -0.0245 -0.4555  0.3770
11303TIP3    H155324   1.441   0.950  12.997 -2.0464  1.4739  2.2723
11303TIP3    H255325   1.295   0.923  12.970 -0.9442 -1.4991 -1.7509
11304TIP3   OH255326   3.451   5.411   4.772  0.3825  0.1075 -0.0703
11304TIP3    H155327   3.368   5.365   4.782  1.0301 -1.0510  0.0810
11304TIP3    H255328   3.426   5.500   4.747 -0.8830 -0.3599 -0.5410
11305TIP3   OH255329   2.427   5.390   0.804 -0.2466  0.0701 -0.4432
11305TIP3    H155330   2.441   5.351   0.891  0.4895 -0.1484 -0.6498
11305TIP3    H255331   2.498   5.453   0.795 -1.5774  1.6941 -0.0001
11306TIP3   OH255332   0.558   4.194  13.459 -0.0080  0.6040 -0.1812
11306TIP3    H155333   0.620   4.188  13.532 -0.6691  0.8507  0.4001
11306TIP3    H255334   0.490   4.130  13.478  1.3040 -1.5223 -2.0702
11307TIP3   OH255335   6.489   4.722   2.812  0.1077 -0.6195  0.1028
11307TIP3    H155336   6.418   4.782   2.787 -0.8475 -0.6415  2.5094
11307TIP3    H255337   6.567   4.777   2.810 -0.6232  0.5453  1.4351
11308TIP3   OH255338   4.417   2.412  12.124 -0.0735 -0.1722 -0.0331
11308TIP3    H155339   4.465   2.369  12.053 -0.6330 -1.2162  0.2057
11308TIP3    H255340   4.460   2.381  12.204 -0.0987  0.1915  0.1224
11309TIP3   OH255341   1.667   0.649   5.307 -0.1697  0.0739 -0.4318
11309TIP3    H155342   1.615   0.664   5.228 -0.4398  2.0915  0.0724
11309TIP3    H255343   1.617   0.690   5.377  0.5605 -0.7751  0.6193
11310TIP3   OH255344   2.501   5.852  15.883 -0.3554  0.1239  0.4965
11310TIP3    H155345   2.444   5.904  15.939 -0.0168  1.5731 -0.4688
11310TIP3    H255346   2.442   5.791  15.839 -1.1743  1.5302 -0.4165
11311TIP3   OH255347   3.674   2.276  15.638  0.5710 -0.0189 -0.2054
11311TIP3    H155348   3.681   2.316  15.551 -1.5924 -1.0026 -0.8937
11311TIP3    H255349   3.731   2.200  15.633 -0.5249 -0.8183 -1.2746
11312TIP3   OH255350   2.430   3.036   0.458  0.3070  0.1496  0.0377
11312TIP3    H155351   2.510   3.007   0.503  0.3495 -0.6859 -0.5493
11312TIP3    H255352   2.365   2.969   0.479  0.2031 -0.0145 -0.7442
11313TIP3   OH255353   5.470   1.443   3.781 -0.0552 -0.5261  0.0588
11313TIP3    H155354   5.529   1.510   3.748  0.3145 -0.3724  1.0001
11313TIP3    H255355   5.461   1.381   3.708 -0.2857  0.4477 -0.7640
11314TIP3   OH255356   2.625   5.354  14.108 -0.1196  0.1231 -0.5622
11314TIP3    H155357   2.715   5.328  14.126  0.0765 -0.4585 -2.1346
11314TIP3    H255358   2.626   5.380  14.016 -1.9387 -1.9250 -1.2728
11315TIP3   OH255359   4.714   4.866   5.696 -0.0923  0.2729  0.5868
11315TIP3    H155360   4.746   4.944   5.650  0.2013 -0.0626  0.2191
11315TIP3    H255361   4.787   4.803   5.690  0.6858  0.8329  3.0496
11316TIP3   OH255362   4.646   1.600  14.808 -0.2333  0.3139 -0.0398
11316TIP3    H155363   4.636   1.681  14.759 -1.8177  1.2488  1.7048
11316TIP3    H255364   4.687   1.626  14.891 -1.2151 -0.5579  0.7500
11317TIP3   OH255365   3.184   4.569  12.159  0.3258  0.8101  0.3043
11317TIP3    H155366   3.146   4.492  12.116 -1.1413  2.2814 -1.1557
11317TIP3    H255367   3.274   4.543  12.178  0.4209 -0.6666 -1.7870
11318TIP3   OH255368   0.389   6.611  13.336  0.0619 -0.3626  0.1778
11318TIP3    H155369   0.348   6.567  13.261  0.2826 -0.8459  0.3331
11318TIP3    H255370   0.346   6.573  13.413 -0.3232  0.2954  0.2951
11319TIP3   OH255371   4.873   3.190   5.507 -0.2220  0.3328 -0.1667
11319TIP3    H155372   4.874   3.106   5.553 -0.7873  1.8836  2.9487
11319TIP3    H255373   4.784   3.198   5.473 -1.3073  1.0341  2.5473
11320TIP3   OH255374   4.265   6.211  14.790  0.3512 -0.1858  0.4761
11320TIP3    H155375   4.298   6.163  14.714  1.0559  0.0831  0.6007
11320TIP3    H255376   4.288   6.302  14.772 -0.9097  0.1093  0.2729
11321TIP3   OH255377   3.671   6.372   1.760 -0.0498 -0.2478  0.1482
11321TIP3    H155378   3.671   6.432   1.834 -1.3420  0.0506 -0.0640
11321TIP3    H255379   3.663   6.429   1.683 -5.3615 -0.6405  0.0705
11322TIP3   OH255380   6.151   6.161  17.249  0.5166 -0.1461 -0.1260
11322TIP3    H155381   6.217   6.092  17.250 -0.7082 -1.3572 -0.3542
11322TIP3    H255382   6.091   6.139  17.320  0.4356  1.0362  0.1964
11323TIP3   OH255383   3.702   6.541   4.456 -0.2101 -0.0975  0.7595
11323TIP3    H155384   3.757   6.503   4.524  1.0505  0.3059 -0.0103
11323TIP3    H255385   3.698   6.473   4.388 -0.9859 -0.2730  0.9732
11324TIP3   OH255386   2.737   2.826   3.100 -0.0554  0.1246 -0.1687
11324TIP3    H155387   2.687   2.765   3.155 -0.6035  0.9306  0.2563
11324TIP3    H255388   2.670   2.878   3.055  0.3245 -1.6169 -2.9614
11325TIP3   OH255389   0.220   3.002  15.153  0.1877  0.5177 -0.5600
11325TIP3    H155390   0.142   3.050  15.123  0.6445  1.5247 -0.1772
11325TIP3    H255391   0.291   3.066  15.147  0.6348  0.1846  0.8736
11326TIP3   OH255392   0.029   0.516  15.517  0.3296 -0.2371 -0.3729
11326TIP3    H155393  -0.058   0.556  15.517  0.1558 -0.5876 -1.4768
11326TIP3    H255394   0.075   0.559  15.589 -0.7442 -0.0280  0.2108
11327TIP3   OH255395   4.924   4.377  15.484 -0.3545 -0.4018 -0.5169
11327TIP3    H155396   5.001   4.431  15.466 -0.5364  0.1561  0.3379
11327TIP3    H255397   4.958   4.301  15.532 -0.5155  0.6383  1.3207
11328TIP3   OH255398   0.179   3.501  15.848  0.4690 -0.3887 -0.1963
11328TIP3    H155399   0.261   3.469  15.884  0.5090 -0.9030 -0.7235
11328TIP3    H255400   0.204   3.576  15.794  0.1765  1.8211  2.5192
11329TIP3   OH255401   2.475   6.314  15.318 -0.4373 -0.3633  0.9215
11329TIP3    H155402   2.436   6.391  15.358 -1.2466  0.3167 -1.0612
11329TIP3    H255403   2.468   6.246  15.385 -2.9596  0.3298  1.4687
11330TIP3   OH255404   5.053   4.494  15.097  0.6300  0.2763  0.0729
11330TIP3    H155405   5.109   4.524  15.169 -0.2515  1.3691  0.3376
11330TIP3    H255406   5.008   4.418  15.133  1.2863 -0.0854  0.1546
11331TIP3   OH255407   2.426   3.935   2.950 -0.1477 -0.0116  0.3397
11331TIP3    H155408   2.344   3.886   2.946 -1.1254  1.5668  0.3847
11331TIP3    H255409   2.455   3.942   2.859  0.5185 -1.4575  0.4108
11332TIP3   OH255410   0.166   1.655   5.263  0.2353  0.1383 -0.0914
11332TIP3    H155411   0.106   1.713   5.216 -2.1180 -1.2800  0.9689
11332TIP3    H255412   0.175   1.693   5.350 -2.7874 -1.7846  1.2455
11333TIP3   OH255413   3.806   3.476   2.602 -0.2260 -0.4917 -0.3951
11333TIP3    H155414   3.731   3.535   2.597 -1.0196 -1.3721  0.5860
11333TIP3    H255415   3.792   3.426   2.683  2.0546  0.1665  0.4991
11334TIP3   OH255416   0.479   0.382  14.438 -0.0445 -0.1231  0.3961
11334TIP3    H155417   0.406   0.332  14.399  1.4067 -0.6687 -1.8400
11334TIP3    H255418   0.522   0.319  14.496 -0.6591 -0.1499  0.8359
11335TIP3   OH255419   1.668   0.965   5.117 -0.3372 -0.3711 -0.0224
11335TIP3    H155420   1.684   0.992   5.027  1.2322 -0.2186  0.2676
11335TIP3    H255421   1.755   0.963   5.157 -1.0671  0.3301  1.7090
11336TIP3   OH255422   0.694   6.666   5.592 -0.3397  0.3566 -0.4820
11336TIP3    H155423   0.664   6.681   5.682 -0.7519  0.8002 -0.6866
11336TIP3    H255424   0.788   6.686   5.594 -0.5368  1.3587 -0.3595
11337TIP3   OH255425   0.258   2.329   3.117 -0.1566  0.1024  0.0496
11337TIP3    H155426   0.250   2.252   3.174 -0.4188  0.1465  0.0725
11337TIP3    H255427   0.240   2.403   3.174 -1.7879  0.0695 -0.3764
11338TIP3   OH255428   3.456   1.220  15.068  0.1109  0.3796  0.0036
11338TIP3    H155429   3.416   1.282  15.007 -0.3505  0.1975  0.1187
11338TIP3    H255430   3.548   1.247  15.072 -0.1637  1.3039  0.3492
11339TIP3   OH255431   6.539   2.372  14.085  0.3266 -0.1823  0.0531
11339TIP3    H155432   6.571   2.452  14.126 -0.4540 -0.0349  0.4057
11339TIP3    H255433   6.547   2.305  14.153 -0.4424 -0.0584  0.2866
11340TIP3   OH255434   6.606   4.513   2.036  0.3506  0.2049 -0.2631
11340TIP3    H155435   6.560   4.592   2.009 -0.1591 -0.3867 -1.1875
11340TIP3    H255436   6.688   4.545   2.073 -0.3233  1.2111  0.3943
11341TIP3   OH255437   4.573   2.374   4.563 -0.1008  0.7823  0.1360
11341TIP3    H155438   4.596   2.291   4.523  3.1397  1.3226  0.5770
11341TIP3    H255439   4.568   2.356   4.657 -0.3271  0.9134  0.1513
11342TIP3   OH255440   3.999   2.088   6.214  0.4748 -0.2155  0.2754
11342TIP3    H155441   3.920   2.133   6.241 -0.4162 -2.3930  1.5462
11342TIP3    H255442   4.050   2.078   6.295  1.0401 -0.7140 -0.1324
11343TIP3   OH255443   3.807   5.098  14.035 -0.1823 -0.5742 -0.6453
11343TIP3    H155444   3.738   5.035  14.056 -0.3787 -0.0897  0.1966
11343TIP3    H255445   3.799   5.111  13.940 -1.4044 -0.3655 -0.5353
11344TIP3   OH255446   2.386   5.433  15.323  0.0105  0.0965 -0.3682
11344TIP3    H155447   2.304   5.479  15.345  0.1612  0.4869 -0.6148
11344TIP3    H255448   2.452   5.476  15.377 -0.2168 -1.3715  1.1692
11345TIP3   OH255449   3.476   3.390   1.519  0.1857 -0.0368  0.4178
11345TIP3    H155450   3.502   3.330   1.589  2.9382  1.1749  0.5625
11345TIP3    H255451   3.471   3.476   1.561  1.5689  0.6520 -0.7362
11346TIP3   OH255452   1.092   6.167   4.103 -0.2501  0.1305 -0.0440
11346TIP3    H155453   1.107   6.149   4.010 -2.7939 -0.5950 -0.4010
11346TIP3    H255454   1.092   6.263   4.109  0.2710  0.1778 -0.7245
11347TIP3   OH255455   0.322   4.666  15.731  0.4205  0.3332  0.0871
11347TIP3    H155456   0.370   4.746  15.752  1.3218 -0.1171 -0.1818
11347TIP3    H255457   0.366   4.631  15.654  0.2963 -0.6261  0.4339
11348TIP3   OH255458   6.023   2.181  17.032  0.3058 -0.0225  0.1432
11348TIP3    H155459   6.080   2.152  16.961  1.0410  1.1474  0.2215
11348TIP3    H255460   6.023   2.277  17.025 -0.4984  0.0616  1.0389
11349TIP3   OH255461   2.037   5.736  16.827  0.1496 -0.0506 -0.0290
11349TIP3    H155462   1.958   5.771  16.784 -0.5527 -1.0006  0.4537
11349TIP3    H255463   2.110   5.774  16.777 -0.5813  1.4984  0.0074
11350TIP3   OH255464   3.598   1.246   1.513 -0.0868  1.4617  0.1927
11350TIP3    H155465   3.583   1.216   1.602  3.7463  1.9824  1.2107
11350TIP3    H255466   3.619   1.167   1.463 -2.3824  1.1522 -0.3589
11351TIP3   OH255467   4.684   6.389   5.623 -0.2090  0.1230  0.6394
11351TIP3    H155468   4.676   6.484   5.623 -0.3989  0.1093  0.9320
11351TIP3    H255469   4.651   6.362   5.709 -1.1962 -0.2947  0.1494
11352TIP3   OH255470   4.381   0.065  12.962  0.3889 -0.3787  0.4082
11352TIP3    H155471   4.366   0.075  12.868  1.6427 -0.5644  0.1660
11352TIP3    H255472   4.430   0.143  12.987  2.1088 -1.3973  0.3943
11353TIP3   OH255473   2.066   2.413   3.281 -0.0100  0.3796 -0.1468
11353TIP3    H155474   1.974   2.389   3.289 -0.2588  1.0605 -0.8869
11353TIP3    H255475   2.112   2.348   3.335 -0.8093 -0.7495 -0.7651
11354TIP3   OH255476   6.298   1.568  12.875  0.4869 -0.0354 -0.0157
11354TIP3    H155477   6.380   1.523  12.894  0.2962 -0.1436  0.6034
11354TIP3    H255478   6.235   1.497  12.859  0.4055  0.0325  0.0022
11355TIP3   OH255479   1.851   2.744   3.646 -0.3300 -0.5854 -0.6804
11355TIP3    H155480   1.929   2.790   3.678 -1.2071  0.4351  0.0288
11355TIP3    H255481   1.887   2.670   3.595  1.0923 -0.2056 -0.2844
11356TIP3   OH255482   5.900   0.242   1.964  0.2091  0.9284  0.3535
11356TIP3    H155483   5.852   0.251   2.046 -0.8900  0.6983 -0.2433
11356TIP3    H255484   5.833   0.224   1.899  0.9333  2.2384 -0.7985
11357TIP3   OH255485   3.508   0.059  14.106  0.2066 -0.2581  0.0338
11357TIP3    H155486   3.573   0.062  14.176  0.1028 -1.4569  0.2064
11357TIP3    H255487   3.427   0.035  14.149  0.2214 -1.3844 -0.5288
11358TIP3   OH255488   1.242   2.109   2.862  0.2373  0.1522  0.1009
11358TIP3    H155489   1.227   2.018   2.837  0.0262  0.4359 -0.8711
11358TIP3    H255490   1.170   2.157   2.821 -1.6579  0.3895  3.3519
11359TIP3   OH255491   1.458   5.155   1.222 -0.0045 -0.0439  0.2587
11359TIP3    H155492   1.363   5.153   1.213  0.0830  1.5643 -1.6445
11359TIP3    H255493   1.489   5.093   1.156  0.2855 -1.0749  1.3324
11360TIP3   OH255494   2.248   5.980  12.532 -0.5519  0.1094 -0.4365
11360TIP3    H155495   2.190   6.047  12.568 -1.0643  1.0493 -2.8435
11360TIP3    H255496   2.205   5.897  12.552 -1.2989  0.6427  0.1984
11361TIP3   OH255497   0.329   3.484  17.059  0.5555 -0.2596 -0.3474
11361TIP3    H155498   0.255   3.534  17.095  1.2238 -0.0101  0.6951
11361TIP3    H255499   0.303   3.393  17.069  0.8247 -0.2052  1.0085
11362TIP3   OH255500   0.810   0.457  15.394 -0.2682 -0.4731 -0.7111
11362TIP3    H155501   0.771   0.391  15.336  0.1783 -2.2731  0.9178
11362TIP3    H255502   0.741   0.474  15.459 -0.2975  0.5278 -0.9932
11363TIP3   OH255503   0.834   6.252   5.417 -0.0190  0.5221 -0.1038
11363TIP3    H155504   0.883   6.317   5.367  1.7948 -0.0359  0.8623
11363TIP3    H255505   0.770   6.303   5.467  2.3222  1.8515  1.7745
11364TIP3   OH255506   0.563   1.671  16.561 -0.4427  0.2879  0.8840
11364TIP3    H155507   0.535   1.755  16.525 -0.7974  0.0862  0.6830
11364TIP3    H255508   0.484   1.618  16.562  0.3539 -1.2023 -2.1764
11365TIP3   OH255509   3.929   4.797   0.543 -0.0718 -0.7630  0.3891
11365TIP3    H155510   3.927   4.767   0.453 -0.1851 -1.2167  0.5400
11365TIP3    H255511   4.020   4.824   0.558 -0.1936 -0.1051 -0.0441
11366TIP3   OH255512   0.902   5.168   3.729  0.7043 -0.1545 -0.1056
11366TIP3    H155513   0.969   5.103   3.714 -0.0240 -1.2837  1.3005
11366TIP3    H255514   0.853   5.136   3.805 -1.4552  0.5869 -1.1026
11367TIP3   OH255515   5.907   0.568   2.733 -0.0266 -0.1088  0.4570
11367TIP3    H155516   5.852   0.492   2.718  0.6843 -0.4143 -0.8043
11367TIP3    H255517   5.988   0.532   2.771  0.0778  0.0921  0.4258
11368TIP3   OH255518   3.628   6.335   3.809 -0.3323 -0.0878  0.0636
11368TIP3    H155519   3.596   6.262   3.863 -2.5454  0.0286 -0.9820
11368TIP3    H255520   3.559   6.400   3.813  0.4847  0.8959 -1.0869
11369TIP3   OH255521   3.709   5.670  13.337  0.0855 -0.4435 -0.5154
11369TIP3    H155522   3.649   5.736  13.303  0.0482 -0.4973 -0.5547
11369TIP3    H255523   3.794   5.692  13.298  0.4649  0.6258  0.8285
11370TIP3   OH255524   0.066   2.791  13.412  0.1238  0.0166  0.7510
11370TIP3    H155525   0.114   2.749  13.484  0.1791 -0.5939  0.3667
11370TIP3    H255526  -0.019   2.813  13.449 -0.1191 -0.9677  0.8047
11371TIP3   OH255527   1.325   6.041  16.025  0.2799 -0.4455 -0.2524
11371TIP3    H155528   1.388   5.984  16.069  0.5074 -0.0321 -0.0373
11371TIP3    H255529   1.249   6.042  16.082  0.1524 -0.7848 -0.4114
11372TIP3   OH255530   2.669   0.626  15.501 -0.3254 -0.2702  0.4321
11372TIP3    H155531   2.648   0.645  15.410  0.9580  0.6074  0.2829
11372TIP3    H255532   2.757   0.589  15.497  0.0725  0.5274  1.3610
11373TIP3   OH255533   0.109   1.648   0.472  0.6010  0.7276  0.8356
11373TIP3    H155534   0.038   1.593   0.437  0.9448  1.0517 -0.4248
11373TIP3    H255535   0.088   1.657   0.565 -0.9141  0.6518  0.5326
11374TIP3   OH255536   6.094   1.551  16.904 -0.2994 -0.1617 -0.2178
11374TIP3    H155537   6.108   1.645  16.889  0.1121 -0.1982 -0.0772
11374TIP3    H255538   6.159   1.508  16.848 -2.5745 -0.4941 -2.8694
11375TIP3   OH255539   5.008   5.807   5.134  0.3641  0.3142 -0.4118
11375TIP3    H155540   4.954   5.792   5.212  2.4071  0.2723  1.0610
11375TIP3    H255541   5.004   5.901   5.119  1.5426  0.6076  0.9783
11376TIP3   OH255542   1.120   5.821   4.945 -0.0319 -0.6214  0.3896
11376TIP3    H155543   1.200   5.827   4.893  0.0241 -1.4484  0.3736
11376TIP3    H255544   1.125   5.897   5.004  0.1845 -0.0070 -0.3988
11377TIP3   OH255545   5.990   6.301  14.105  0.1214  0.2221 -0.1222
11377TIP3    H155546   6.085   6.294  14.094  0.4540 -1.2845  2.6376
11377TIP3    H255547   5.977   6.304  14.200 -2.6103  0.5018 -0.4111
11378TIP3   OH255548   6.483   5.480   4.443 -0.2771  0.1737 -0.0937
11378TIP3    H155549   6.500   5.560   4.494 -1.6874  0.9255 -0.7332
11378TIP3    H255550   6.568   5.437   4.437  0.1914  0.7397  1.7287
11379TIP3   OH255551   6.296   6.128   0.496  0.2327 -0.6502 -0.0469
11379TIP3    H155552   6.300   6.038   0.530  1.1297 -1.8287 -2.8867
11379TIP3    H255553   6.360   6.129   0.425  0.5543  2.4232  0.1577
11380TIP3   OH255554   1.670   5.878  15.446 -0.0399 -0.1538 -0.6244
11380TIP3    H155555   1.613   5.885  15.523  0.5302 -1.1665 -0.0993
11380TIP3    H255556   1.616   5.912  15.374 -0.2184  1.8503  0.3594
11381TIP3   OH255557   6.297   0.894   5.200  0.2164 -0.1313 -0.1932
11381TIP3    H155558   6.342   0.960   5.251  1.6778 -1.4976  0.3453
11381TIP3    H255559   6.213   0.935   5.177 -0.3924  0.6819  2.9864
11382TIP3   OH255560   0.785   1.026   5.643 -0.1775  0.1241 -0.6076
11382TIP3    H155561   0.718   0.992   5.584 -1.2787  1.5355 -0.2388
11382TIP3    H255562   0.736   1.059   5.719  1.0361  0.1320  0.2049
11383TIP3   OH255563   5.419   4.835   1.102  0.2002 -0.4325 -0.5279
11383TIP3    H155564   5.412   4.919   1.147  0.8351 -0.9044  0.4911
11383TIP3    H255565   5.437   4.858   1.011 -1.4631  0.5486 -0.6541
11384TIP3   OH255566   2.309   4.063   3.267 -0.1820  0.4470 -0.0375
11384TIP3    H155567   2.301   4.143   3.216 -0.1008  0.4715 -0.0119
11384TIP3    H255568   2.222   4.022   3.262 -0.9412  1.6756  1.8734
11385TIP3   OH255569   1.532   0.224  16.875 -0.3046  0.2300 -0.7871
11385TIP3    H155570   1.538   0.135  16.841 -1.6125  0.1625 -0.8776
11385TIP3    H255571   1.575   0.220  16.960  0.3228 -0.3014 -1.1189
11386TIP3   OH255572   3.976   1.543  16.589 -0.3291 -0.0956  0.1039
11386TIP3    H155573   4.006   1.473  16.531  0.2812  0.8083 -0.6823
11386TIP3    H255574   3.891   1.568  16.554 -0.4785 -0.3295  0.2929
11387TIP3   OH255575   1.799   2.376  11.539 -0.4451 -0.1652  0.6300
11387TIP3    H155576   1.869   2.432  11.571 -1.7415  1.8060  0.1613
11387TIP3    H255577   1.800   2.388  11.444 -0.8768 -0.7816  0.5407
11388TIP3   OH255578   4.610   4.609  14.485 -0.6146  0.3107  0.3966
11388TIP3    H155579   4.579   4.621  14.395 -0.0439  0.1958  0.1767
11388TIP3    H255580   4.690   4.557  14.475 -1.3983 -1.0696  1.0961
11389TIP3   OH255581   0.320   4.290  14.828  0.4213  0.3105  0.4946
11389TIP3    H155582   0.397   4.237  14.807 -0.7093 -1.1015 -0.3292
11389TIP3    H255583   0.303   4.340  14.748 -0.6163 -0.8556 -0.0532
11390TIP3   OH255584   6.209   6.016  15.260  0.1368 -0.0591  0.2940
11390TIP3    H155585   6.275   5.989  15.196  1.5115  0.2547  1.5160
11390TIP3    H255586   6.146   5.945  15.261  2.0137 -1.8223  1.1921
11391TIP3   OH255587   1.721   3.257  14.519  0.0554 -0.0291 -0.0412
11391TIP3    H155588   1.726   3.335  14.574 -0.2160 -1.1937  1.7606
11391TIP3    H255589   1.712   3.290  14.430  0.5056  1.9717  0.5988
11392TIP3   OH255590   5.045   5.045  14.034 -0.4188  0.3874 -0.3362
11392TIP3    H155591   5.001   5.116  13.989 -0.9745  1.0221  1.1447
11392TIP3    H255592   5.013   5.050  14.124  0.6891 -0.7884  0.1582
11393TIP3   OH255593   5.525   3.497  14.710  0.3031 -0.0692 -0.1590
11393TIP3    H155594   5.555   3.486  14.621 -0.9397 -0.4741 -0.5538
11393TIP3    H255595   5.452   3.559  14.703 -0.9386 -1.4219  0.3040
11394TIP3   OH255596   5.093   0.574  15.422  0.5853  0.2925 -1.0563
11394TIP3    H155597   5.105   0.596  15.514  0.3185  1.5038 -1.2837
11394TIP3    H255598   5.007   0.533  15.417 -0.0815  1.6334 -0.9652
11395TIP3   OH255599   0.345   3.457   4.179 -0.1622  0.5002  0.3593
11395TIP3    H155600   0.302   3.374   4.199 -1.7152  1.2575  0.3711
11395TIP3    H255601   0.384   3.444   4.092  1.8124 -1.0182  1.4050
11396TIP3   OH255602   5.643   0.448  11.235  0.1183  0.5066  0.3847
11396TIP3    H155603   5.555   0.411  11.245 -0.1910  1.5033  1.6447
11396TIP3    H255604   5.667   0.428  11.144 -0.2329 -2.2298  0.7952
11397TIP3   OH255605   6.625   5.607   1.213  0.8266  0.5759  0.0800
11397TIP3    H155606   6.631   5.674   1.145  1.5259  0.6398  0.2019
11397TIP3    H255607   6.572   5.647   1.282  2.1896  1.4524  0.6586
11398TIP3   OH255608   3.532   0.626  14.659 -0.0288 -0.4550 -0.2173
11398TIP3    H155609   3.529   0.643  14.565 -0.1584 -2.4566 -0.6262
11398TIP3    H255610   3.624   0.636  14.683 -0.1974  1.4990 -0.2102
11399TIP3   OH255611   6.702   4.286  11.584 -0.3068 -0.0178 -0.4123
11399TIP3    H155612   6.714   4.289  11.679  0.6290  1.3512 -0.5543
11399TIP3    H255613   6.744   4.203  11.558  0.6201  0.2370  0.2209
11400TIP3   OH255614   4.327   4.598  10.871 -0.2041  0.5367 -0.8467
11400TIP3    H155615   4.266   4.586  10.943 -0.2171  0.3223 -0.8939
11400TIP3    H255616   4.314   4.689  10.843  2.0850  1.7141  1.5331
11401TIP3   OH255617   4.854   2.614  14.429 -0.5926 -0.3059  0.2185
11401TIP3    H155618   4.848   2.676  14.356  0.5857 -0.8147 -0.3416
11401TIP3    H255619   4.777   2.557  14.419 -0.6069 -0.1767 -0.4489
11402TIP3   OH255620   4.699   4.701   3.727  0.7309 -0.1193  0.1443
11402TIP3    H155621   4.681   4.608   3.717  0.5408 -0.3089  1.8927
11402TIP3    H255622   4.617   4.738   3.759  0.3859  0.9340 -1.8035
11403TIP3   OH255623   2.769   3.756   4.717  0.3302 -0.1789 -0.0960
11403TIP3    H155624   2.838   3.794   4.772 -1.9099  1.5392  1.7350
11403TIP3    H255625   2.734   3.830   4.667 -0.7056 -0.8369 -0.3834
11404TIP3   OH255626   2.053   6.607   1.382  0.1373  0.4202 -0.1213
11404TIP3    H155627   2.132   6.565   1.347 -1.4623 -1.6865 -1.4546
11404TIP3    H255628   2.050   6.693   1.338  1.3128  0.2376 -0.5838
11405TIP3   OH255629   6.122   0.125   2.643 -0.1144 -0.7898 -0.2129
11405TIP3    H155630   6.144   0.050   2.699 -0.2448 -0.3619  0.4166
11405TIP3    H255631   6.128   0.201   2.700 -1.6594 -0.4860 -0.4118
11406TIP3   OH255632   2.955   0.896   5.614  0.2477 -0.3607  0.3096
11406TIP3    H155633   2.971   0.867   5.524  1.0728 -0.0452  0.3462
11406TIP3    H255634   2.860   0.889   5.625 -0.1721  1.7984 -1.3467
11407TIP3   OH255635   3.255   3.343   4.197 -0.5980 -0.0582 -0.3467
11407TIP3    H155636   3.209   3.274   4.245  0.0306 -0.5857 -0.4821
11407TIP3    H255637   3.187   3.389   4.149 -1.1297 -0.0629  0.3972
11408TIP3   OH255638   2.144   5.935  14.859  0.3431  0.0889 -0.0103
11408TIP3    H155639   2.180   6.012  14.903  0.2481 -0.4283  1.0079
11408TIP3    H255640   2.104   5.884  14.930  1.9363 -1.7633 -0.3619
11409TIP3   OH255641   1.430   6.447   2.320 -0.1596 -0.4122  0.0317
11409TIP3    H155642   1.392   6.388   2.386 -1.0129 -0.6581 -0.6544
11409TIP3    H255643   1.354   6.489   2.279  0.3692 -0.0421 -0.5903
11410TIP3   OH255644   5.750   0.436   5.236  0.9237  0.0418 -0.2160
11410TIP3    H155645   5.699   0.504   5.279  0.0431 -0.5248 -0.3474
11410TIP3    H255646   5.701   0.414   5.157  0.0825 -2.1624  0.8164
11411TIP3   OH255647   3.078   2.758   0.004  0.3080 -0.3400  0.3086
11411TIP3    H155648   3.137   2.811   0.057  0.8974  1.2450 -1.8075
11411TIP3    H255649   3.104   2.775  -0.086  0.3352 -4.0727 -0.5546
11412TIP3   OH255650   1.579   2.068  13.874  0.0354 -0.2452  0.1336
11412TIP3    H155651   1.495   2.054  13.917 -0.4328  1.5021 -0.1304
11412TIP3    H255652   1.645   2.042  13.939 -0.6268 -3.5235 -0.3170
11413TIP3   OH255653   6.622   1.228   0.313  0.1613 -0.2924 -0.0358
11413TIP3    H155654   6.686   1.191   0.253  0.4208  1.1925 -0.7100
11413TIP3    H255655   6.654   1.205   0.400  1.1130 -0.3384 -0.3915
11414TIP3   OH255656   6.429   0.121  11.682  0.6257  0.5162  0.1080
11414TIP3    H155657   6.346   0.079  11.704 -0.3843  1.1626 -2.1040
11414TIP3    H255658   6.419   0.147  11.590  4.1985 -1.5710 -1.0898
11415TIP3   OH255659   2.506   4.553  11.052  0.1093  0.1147  0.5583
11415TIP3    H155660   2.586   4.606  11.049  0.3377 -0.2171  0.7692
11415TIP3    H255661   2.463   4.570  10.968  0.9288 -0.5261 -0.0068
11416TIP3   OH255662   4.395   5.073  14.483 -0.3787 -0.4479 -0.3356
11416TIP3    H155663   4.394   4.984  14.517  3.1805 -0.5357 -0.1163
11416TIP3    H255664   4.445   5.068  14.402  1.0168  1.5039  0.3257
11417TIP3   OH255665   1.734   3.994   5.009 -0.2892  0.2859 -0.4475
11417TIP3    H155666   1.680   3.980   5.087 -0.0461  0.2298 -0.2881
11417TIP3    H255667   1.697   4.073   4.968 -0.7898 -0.0294 -0.6014
11418TIP3   OH255668   5.544   2.829   4.820  0.3385 -0.0315  0.8487
11418TIP3    H155669   5.582   2.860   4.738 -1.7538  1.0159  0.2101
11418TIP3    H255670   5.542   2.906   4.876  1.4974 -0.6779  1.8366
11419TIP3   OH255671   0.558   6.645   5.162  0.0526  0.4427 -0.2091
11419TIP3    H155672   0.582   6.583   5.094 -0.5684  0.5697 -0.5477
11419TIP3    H255673   0.580   6.601   5.244 -0.5137 -0.2845 -0.4391
11420TIP3   OH255674   5.149   0.766  13.987  0.5960  0.3176 -0.2665
11420TIP3    H155675   5.174   0.682  14.027  1.1893  0.8795  0.5572
11420TIP3    H255676   5.159   0.830  14.057 -1.6096  0.8291 -0.3403
11421TIP3   OH255677   3.751   1.322  15.744  0.1428 -0.5377  0.5043
11421TIP3    H155678   3.753   1.237  15.788  3.6726 -1.0478 -0.3918
11421TIP3    H255679   3.827   1.369  15.777  0.9430  0.4127 -2.3636
11422TIP3   OH255680   0.870   0.017   1.281  0.4534 -0.1006 -0.0317
11422TIP3    H155681   0.901   0.097   1.240 -1.2339  1.0943  0.9014
11422TIP3    H255682   0.874  -0.049   1.211  0.2729  1.2004 -1.3145
11423TIP3   OH255683   0.451   3.145  14.964  0.1753  0.3045  0.1289
11423TIP3    H155684   0.395   3.187  15.029  0.1469  1.1087 -0.4031
11423TIP3    H255685   0.485   3.067  15.008 -0.4288  0.4385  0.8516
11424TIP3   OH255686   4.765   2.566   5.168 -0.0505 -0.3854  0.3977
11424TIP3    H155687   4.804   2.547   5.254  0.9296  1.0880  0.3038
11424TIP3    H255688   4.839   2.582   5.110 -0.6252 -2.6631 -1.1299
11425TIP3   OH255689   5.490   4.927  11.169 -0.4304 -0.0703 -0.2807
11425TIP3    H155690   5.562   4.989  11.181 -1.5868  1.7587 -2.1186
11425TIP3    H255691   5.533   4.847  11.136  0.7818  1.0339 -1.5287
11426TIP3   OH255692   6.122   5.587   0.275 -0.5728 -0.2900 -0.0671
11426TIP3    H155693   6.158   5.513   0.324  0.6827 -0.4933 -1.2452
11426TIP3    H255694   6.087   5.645   0.342 -0.1279 -1.1909  0.9768
11427TIP3   OH255695   6.053   0.907   3.531 -0.6527  0.1510  0.0144
11427TIP3    H155696   5.985   0.974   3.544  0.4671  1.6629 -1.4257
11427TIP3    H255697   6.037   0.874   3.442  1.0129  1.2209 -0.7290
11428TIP3   OH255698   0.581   0.548  14.145 -0.1846  0.0566 -0.1645
11428TIP3    H155699   0.659   0.561  14.198 -0.7686  2.4512  0.2418
11428TIP3    H255700   0.511   0.532  14.209 -0.1055 -2.0822 -0.5236
11429TIP3   OH255701   0.917   3.225   0.433 -0.1915 -0.1462  0.3758
11429TIP3    H155702   0.982   3.166   0.470 -1.8134 -1.5643  1.1009
11429TIP3    H255703   0.903   3.192   0.344 -2.1187 -1.8512  1.2319
11430TIP3   OH255704   1.756   3.383   1.815  0.4865 -0.4422  0.4796
11430TIP3    H155705   1.692   3.410   1.749  0.1744 -0.5151  0.7497
11430TIP3    H255706   1.766   3.459   1.872  0.5445 -0.4730  0.5109
11431TIP3   OH255707   6.619   3.901  15.696 -0.2067  0.3401  0.4128
11431TIP3    H155708   6.701   3.881  15.650 -1.7413 -2.6745 -1.3287
11431TIP3    H255709   6.628   3.858  15.780  0.2565  0.6636  0.5373
11432TIP3   OH255710   2.317   2.258  14.229 -0.1216  0.2574 -0.1737
11432TIP3    H155711   2.242   2.198  14.231 -0.4772  0.3919 -3.5779
11432TIP3    H255712   2.391   2.204  14.257 -1.0561 -0.5808  0.7943
11433TIP3   OH255713   0.089   0.508   3.871  0.8500 -0.1180  0.2993
11433TIP3    H155714   0.121   0.431   3.918  0.2678  0.2584  1.3625
11433TIP3    H255715   0.111   0.582   3.927 -0.7210  0.2594  0.4858
11434TIP3   OH255716   6.095   5.237   3.930 -0.7557 -0.2752  0.2831
11434TIP3    H155717   6.024   5.232   3.994 -1.4449  0.4892 -0.3932
11434TIP3    H255718   6.109   5.331   3.917  0.5939 -0.4037  0.6153
11435TIP3   OH255719   2.143   4.383  15.418 -0.2099  0.4617 -0.4200
11435TIP3    H155720   2.187   4.463  15.387 -1.5841  0.2539 -3.2186
11435TIP3    H255721   2.107   4.408  15.503  1.3305  2.0785 -0.1727
11436TIP3   OH255722   5.642   2.008   4.171  0.0266 -0.7371 -0.0038
11436TIP3    H155723   5.629   2.078   4.107 -0.4477 -1.5238 -0.7723
11436TIP3    H255724   5.613   2.046   4.254 -2.0430 -0.6324 -0.7352
11437TIP3   OH255725   1.580   0.666   4.590 -0.3554  0.7581 -0.2422
11437TIP3    H155726   1.576   0.762   4.591 -1.7758  0.7291 -1.2072
11437TIP3    H255727   1.529   0.639   4.666 -2.1417  0.7539 -1.3928
11438TIP3   OH255728   1.414   2.703  13.990 -0.5108  0.2960  0.5601
11438TIP3    H155729   1.363   2.652  14.053  0.1058 -0.0512  0.7866
11438TIP3    H255730   1.404   2.794  14.020 -0.4433  0.1613  0.9998
11439TIP3   OH255731   1.421   4.954   3.892 -0.0093  0.2699 -0.5584
11439TIP3    H155732   1.418   4.861   3.914 -0.6297  0.1602 -1.0747
11439TIP3    H255733   1.508   4.983   3.920  0.5384 -0.6737 -1.2272
11440TIP3   OH255734   5.273   2.731  17.053 -0.6346  0.1877 -0.4844
11440TIP3    H155735   5.215   2.801  17.083  1.9762  2.0436  0.5792
11440TIP3    H255736   5.301   2.760  16.965  1.3710  1.2155  0.4225
11441TIP3   OH255737   3.109   4.279  16.797  0.1216  0.3860  0.0238
11441TIP3    H155738   3.158   4.203  16.829  1.0661 -0.0474 -2.2241
11441TIP3    H255739   3.017   4.255  16.808  0.4116 -0.9575 -0.3237
11442TIP3   OH255740   6.207   0.638   5.368 -0.9840 -0.0339  0.2921
11442TIP3    H155741   6.171   0.614   5.282 -1.1420 -0.0239  0.3547
11442TIP3    H255742   6.300   0.653   5.352 -0.6995 -1.5172  0.4088
11443TIP3   OH255743   1.571   1.561   5.670 -0.3707  0.5200 -0.1488
11443TIP3    H155744   1.548   1.500   5.741 -0.0715  1.6177  0.9310
11443TIP3    H255745   1.512   1.635   5.683  1.5427  1.9815  0.7226
11444TIP3   OH255746   4.969   3.486   0.866 -0.5811  0.0572  0.2215
11444TIP3    H155747   4.920   3.490   0.784 -2.0586  0.9826  1.0969
11444TIP3    H255748   5.032   3.557   0.860  1.9821 -2.1630 -1.6260
11445TIP3   OH255749   3.970   3.587  13.437  0.1633  0.4636 -0.1592
11445TIP3    H155750   3.947   3.631  13.519  0.8088  0.1570  0.2002
11445TIP3    H255751   3.987   3.658  13.375  1.2593  0.7437  0.4285
11446TIP3   OH255752   0.957   2.671  16.287 -0.4747  0.0149 -0.3762
11446TIP3    H155753   0.877   2.661  16.236 -0.7004 -0.1936  0.0101
11446TIP3    H255754   0.997   2.584  16.287 -2.3292 -1.0262  2.8038
11447TIP3   OH255755   1.504   5.124  16.105 -0.1953 -0.3102 -0.1773
11447TIP3    H155756   1.426   5.078  16.075 -0.6435 -0.3162  0.9411
11447TIP3    H255757   1.567   5.054  16.126  0.1072 -0.3056 -1.0588
11448TIP3   OH255758   2.631   5.185   0.405 -0.3529  0.0200  0.1023
11448TIP3    H155759   2.586   5.266   0.381  0.8640  0.5546 -0.4419
11448TIP3    H255760   2.564   5.133   0.450 -0.5595  2.3181  2.7118
11449TIP3   OH255761   0.775   5.441  15.881  0.6485  0.4741  0.1703
11449TIP3    H155762   0.702   5.434  15.818  1.2458  0.2889 -0.5132
11449TIP3    H255763   0.834   5.504  15.841  0.3433  1.4782  1.2637
11450TIP3   OH255764   2.958   4.766   1.111  0.3272 -0.7458 -0.3552
11450TIP3    H155765   2.998   4.683   1.137  2.1801  0.0343 -0.5653
11450TIP3    H255766   2.897   4.787   1.182  1.4985 -1.1957  0.8292
11451TIP3   OH255767   2.920   4.649   3.191  0.5132  0.1961 -0.5573
11451TIP3    H155768   2.972   4.592   3.249 -1.3106  0.7376  1.7326
11451TIP3    H255769   2.980   4.719   3.167  1.0830  0.4767  1.5023
11452TIP3   OH255770   2.833   4.497  11.169  0.1075  0.2293 -0.3801
11452TIP3    H155771   2.830   4.436  11.095  0.6434 -0.7954  0.4202
11452TIP3    H255772   2.793   4.577  11.136 -1.8084 -0.9556 -1.0945
11453TIP3   OH255773   3.541   4.780  11.675 -0.3129 -0.5012 -0.3527
11453TIP3    H155774   3.583   4.863  11.652  1.3881 -0.9485  0.9502
11453TIP3    H255775   3.571   4.718  11.609  1.8804 -1.0194  1.0463
11454TIP3   OH255776   1.475   1.480  15.467 -0.5943  0.1490 -0.2387
11454TIP3    H155777   1.470   1.574  15.445 -1.0074  0.1042 -0.3405
11454TIP3    H255778   1.461   1.436  15.384 -2.6415 -0.0329  0.1566
11455TIP3   OH255779   5.735   1.337  15.586  0.4319 -0.6520 -0.0998
11455TIP3    H155780   5.745   1.248  15.551  1.1667 -1.3488  1.7445
11455TIP3    H255781   5.824   1.365  15.605  0.1741  0.3671 -0.3387
11456TIP3   OH255782   2.462   3.457  14.908 -0.1790  0.0127 -0.3747
11456TIP3    H155783   2.468   3.376  14.858  2.4583  0.8605 -1.6191
11456TIP3    H255784   2.419   3.519  14.849 -2.0748 -0.3518  0.5291
11457TIP3   OH255785   6.100   1.676   0.034 -0.0164  0.0748 -0.3220
11457TIP3    H155786   6.048   1.595   0.029  0.5344 -0.2376 -1.1191
11457TIP3    H255787   6.066   1.731  -0.036  1.2761 -0.4688 -1.4033
11458TIP3   OH255788   2.330   0.213  12.611 -0.3564  0.0515  0.6619
11458TIP3    H155789   2.366   0.175  12.691  1.4005 -0.6294 -0.3815
11458TIP3    H255790   2.237   0.223  12.628 -0.7366 -3.6649  1.4340
11459TIP3   OH255791   4.141   5.546  15.141  0.1353  0.4199 -0.3506
11459TIP3    H155792   4.219   5.567  15.089  0.0930 -0.1021 -0.6281
11459TIP3    H255793   4.142   5.451  15.150 -0.1173  0.4646  0.2065
11460TIP3   OH255794   4.478   5.328  15.320 -0.4457 -0.0752  0.0212
11460TIP3    H155795   4.528   5.383  15.259 -2.3906  0.1504 -1.4540
11460TIP3    H255796   4.543   5.297  15.383  1.5602  0.1420 -1.8342
11461TIP3   OH255797   0.235   0.293  12.915 -0.4842 -0.4169  0.1115
11461TIP3    H155798   0.182   0.329  12.844 -2.2236 -1.0496  1.0364
11461TIP3    H255799   0.281   0.368  12.951 -1.1171  0.2377 -0.4131
11462TIP3   OH255800   0.660   5.698   1.221  0.3064 -0.0531 -0.8069
11462TIP3    H155801   0.718   5.698   1.298 -0.0240  0.2936 -0.5566
11462TIP3    H255802   0.604   5.775   1.233 -1.4033 -1.3274 -0.1426
11463TIP3   OH255803   2.958   2.438   2.539 -0.2705  0.1159 -0.0201
11463TIP3    H155804   2.876   2.439   2.588 -1.4584  0.4864 -1.8793
11463TIP3    H255805   2.971   2.346   2.516 -0.5312  0.1418 -0.2780
11464TIP3   OH255806   6.444   6.639  17.135  0.2968  0.4985 -0.1601
11464TIP3    H155807   6.383   6.606  17.069 -0.5093  0.8553  0.3885
11464TIP3    H255808   6.483   6.560  17.173 -2.1969  0.0118  1.7038
11465TIP3   OH255809   1.745   6.252   3.417 -0.6327  0.1945  0.2087
11465TIP3    H155810   1.673   6.190   3.404  0.0683 -0.3818 -1.2196
11465TIP3    H255811   1.818   6.213   3.368  0.1797  1.5518  0.3055
11466TIP3   OH255812   0.449   3.159  16.174  0.4424  0.5004  0.0847
11466TIP3    H155813   0.407   3.142  16.090  1.3984 -0.5772 -0.1948
11466TIP3    H255814   0.393   3.115  16.238  1.2533 -1.1925 -0.3191
11467TIP3   OH255815   0.810   3.931   2.192 -0.3900  0.5712 -0.0502
11467TIP3    H155816   0.717   3.909   2.200 -0.1709  0.1638  1.9459
11467TIP3    H255817   0.835   3.960   2.280  1.0456  2.0813 -0.8993
11468TIP3   OH255818   4.527   2.681   3.091  0.5960  0.0268  0.2222
11468TIP3    H155819   4.584   2.736   3.145  1.0215  0.5632 -0.7510
11468TIP3    H255820   4.522   2.598   3.138  2.8853 -0.3346 -0.0662
11469TIP3   OH255821   3.305   4.334   1.197 -0.0798 -0.2407 -0.1874
11469TIP3    H155822   3.354   4.356   1.118  0.7737 -1.2954  0.0321
11469TIP3    H255823   3.363   4.359   1.269 -1.0602  1.2014  0.1538
11470TIP3   OH255824   1.749   1.636  14.289 -0.6838 -0.2228 -0.1913
11470TIP3    H155825   1.765   1.558  14.341 -4.0196 -0.9289  0.0213
11470TIP3    H255826   1.714   1.603  14.206  1.8576  0.9758 -1.8739
11471TIP3   OH255827   4.307   5.062   2.595  0.2086 -0.0003 -0.7213
11471TIP3    H155828   4.336   5.045   2.505  0.8514  0.0068 -0.5158
11471TIP3    H255829   4.381   5.106   2.637  0.1523 -0.5699 -0.0072
11472TIP3   OH255830   1.391   2.450   0.454 -0.2360  0.0738  0.0806
11472TIP3    H155831   1.370   2.374   0.509 -1.9927  0.1071 -0.4887
11472TIP3    H255832   1.350   2.431   0.370  0.8836  0.8450 -0.6681
11473TIP3   OH255833   4.688   4.863   1.324  0.2469 -0.5002 -0.0539
11473TIP3    H155834   4.736   4.819   1.395  2.0686  0.5794 -0.5360
11473TIP3    H255835   4.748   4.860   1.249 -2.0267 -2.5042 -1.9445
11474TIP3   OH255836   3.239   0.538  11.069 -0.3709  0.0877 -1.0228
11474TIP3    H155837   3.148   0.514  11.049 -0.5434 -0.0129 -0.1391
11474TIP3    H255838   3.245   0.533  11.164  1.5016 -3.2995 -1.1738
11475TIP3   OH255839   1.697   4.369  12.459 -0.3588 -0.5067  0.1194
11475TIP3    H155840   1.763   4.385  12.391 -0.0645  2.9990  1.0122
11475TIP3    H255841   1.623   4.424  12.433 -0.5231  0.3154  2.1764
11476TIP3   OH255842   1.907   0.389  13.680 -0.1394 -0.3858 -0.1812
11476TIP3    H155843   1.859   0.395  13.598 -0.1533 -0.2928 -0.1662
11476TIP3    H255844   1.869   0.313  13.725 -1.1260  0.4167  0.3827
11477TIP3   OH255845   6.399   2.649   6.495  0.2184  0.5769  0.2109
11477TIP3    H155846   6.452   2.695   6.429  0.4998  0.4009  0.3121
11477TIP3    H255847   6.419   2.557   6.482  0.8107  0.5852  0.9968
11478TIP3   OH255848   0.868   3.379  14.106  0.4268 -0.3571  0.8760
11478TIP3    H155849   0.798   3.320  14.078  1.2143 -0.3742 -1.2588
11478TIP3    H255850   0.887   3.352  14.196 -0.3893 -2.2168  0.5505
11479TIP3   OH255851   4.092   5.506  12.206  0.3169  0.7634 -0.0373
11479TIP3    H155852   4.110   5.414  12.187 -2.2923 -0.2272  1.6280
11479TIP3    H255853   4.177   5.549  12.202  1.7082 -1.8146 -0.3638
11480TIP3   OH255854   1.833   2.127   5.268 -0.5875 -0.0911 -0.1650
11480TIP3    H155855   1.754   2.074   5.270 -0.4857 -0.2400 -0.0711
11480TIP3    H255856   1.836   2.169   5.354 -0.5759 -0.0689 -0.1762
11481TIP3   OH255857   2.679   2.887  14.494  0.2781  0.0759 -0.5501
11481TIP3    H155858   2.599   2.915  14.538  1.7429 -0.3311  2.6256
11481TIP3    H255859   2.706   2.963  14.443 -1.1306  0.8595 -0.1734
11482TIP3   OH255860   3.256   1.850   4.281  0.0250 -0.4868 -0.4587
11482TIP3    H155861   3.239   1.829   4.189  0.2888 -2.0218 -0.1853
11482TIP3    H255862   3.172   1.878   4.316 -0.4559 -1.5696 -0.7419
11483TIP3   OH255863   2.075   6.230  17.239  0.1560 -0.2271  0.6281
11483TIP3    H155864   2.100   6.315  17.203  0.5670 -0.0802  1.2497
11483TIP3    H255865   1.994   6.248  17.288  0.7504  0.0120  1.5561
11484TIP3   OH255866   1.565   2.455   4.966 -0.7717  0.0814 -0.3307
11484TIP3    H155867   1.491   2.483   5.020 -0.2462  0.4370  0.2242
11484TIP3    H255868   1.579   2.527   4.905  0.8955  1.3454  1.4207
11485TIP3   OH255869   1.119   6.198   5.386 -0.6609  0.1615 -0.3527
11485TIP3    H155870   1.071   6.166   5.462 -0.0923 -0.0928 -0.0897
11485TIP3    H255871   1.108   6.293   5.388  0.3001  0.2774  0.7321
11486TIP3   OH255872   1.699   4.367   0.987 -0.3337  0.2359  0.0785
11486TIP3    H155873   1.693   4.457   0.954  1.6224 -0.3361 -2.0185
11486TIP3    H255874   1.732   4.377   1.076  0.6442  1.5879 -0.3982
11487TIP3   OH255875   4.454   3.012  11.478 -0.3199  0.0835 -0.5222
11487TIP3    H155876   4.502   3.068  11.539  0.2855  0.8252 -1.6432
11487TIP3    H255877   4.449   2.927  11.522  0.8988  0.3511  0.1790
11488TIP3   OH255878   4.999   4.340   1.596 -0.8594 -0.0995  0.8651
11488TIP3    H155879   4.990   4.300   1.510  0.6756  0.4430  0.4344
11488TIP3    H255880   4.961   4.275   1.656  0.2376 -1.5686  0.0347
11489TIP3   OH255881   0.780   3.723  15.586  0.1831  0.6952  0.3176
11489TIP3    H155882   0.776   3.628  15.598  0.8285  0.4409 -1.2868
11489TIP3    H255883   0.856   3.750  15.636 -0.6117  0.5437  1.6620
11490TIP3   OH255884   3.792   1.127  13.423 -0.2522  0.0049 -0.0763
11490TIP3    H155885   3.832   1.051  13.380  1.3861  1.6802 -1.6970
11490TIP3    H255886   3.707   1.137  13.380 -1.1159 -1.6620  1.1227
11491TIP3   OH255887   4.161   6.696   3.021 -0.5187  0.3535 -0.2175
11491TIP3    H155888   4.216   6.618   3.032  0.9264  1.3967  0.2489
11491TIP3    H255889   4.170   6.720   2.929  0.1658  0.7580 -0.0523
11492TIP3   OH255890   0.135   5.861   1.347 -0.4302 -0.5612 -0.4023
11492TIP3    H155891   0.177   5.919   1.284  0.7295  0.2364  1.0362
11492TIP3    H255892   0.118   5.781   1.297  0.1197  0.1540 -1.8133
11493TIP3   OH255893   2.029   1.849  12.054 -0.6645  0.6663  0.5072
11493TIP3    H155894   2.085   1.842  11.977 -1.2604 -0.6352  0.1703
11493TIP3    H255895   1.983   1.932  12.043 -0.6199  0.5729 -0.4728
11494TIP3   OH255896   3.198   1.653   3.688 -0.0920 -0.2608 -0.0521
11494TIP3    H155897   3.254   1.731   3.687 -0.5648  0.0853  0.3156
11494TIP3    H255898   3.256   1.582   3.661  0.5595  0.0799  0.4277
11495TIP3   OH255899   4.904   2.154  14.129  0.1147 -0.3136 -0.2147
11495TIP3    H155900   4.811   2.163  14.148  0.2980  1.6612 -0.0147
11495TIP3    H255901   4.943   2.237  14.156  1.8373 -0.8239 -0.9176
11496TIP3   OH255902   6.091   1.250  15.199 -0.1588 -0.9482 -0.1008
11496TIP3    H155903   5.997   1.231  15.205 -0.2379 -0.4179  0.5924
11496TIP3    H255904   6.100   1.335  15.243  0.6568 -1.0327 -0.0938
11497TIP3   OH255905   3.050   2.230  15.303  0.3999 -0.0899 -0.6364
11497TIP3    H155906   2.983   2.173  15.341 -0.5841  1.2832 -0.2173
11497TIP3    H255907   3.053   2.205  15.210 -3.9003  2.5632 -1.7733
11498TIP3   OH255908   5.693   4.472   2.723  0.3515 -0.7387  0.2094
11498TIP3    H155909   5.611   4.481   2.770  0.6547  0.1973  0.5849
11498TIP3    H255910   5.755   4.528   2.771  1.2020 -1.4140 -0.0703
11499TIP3   OH255911   5.980   1.244   2.598 -0.3222 -0.1050 -0.0093
11499TIP3    H155912   6.071   1.221   2.584 -0.4556 -0.6159 -0.0501
11499TIP3    H255913   5.952   1.283   2.514 -0.0182  0.4792  0.1561
11500TIP3   OH255914   3.058   0.351  12.439  0.3026 -0.1537 -0.4287
11500TIP3    H155915   3.049   0.263  12.404 -0.4994 -0.8572  1.4656
11500TIP3    H255916   2.969   0.379  12.459  0.7741 -0.1975  1.9800
11501TIP3   OH255917   2.225   3.177  16.884  0.5397 -0.0130  0.0267
11501TIP3    H155918   2.155   3.112  16.886  0.5461 -0.0088  0.5934
11501TIP3    H255919   2.281   3.151  16.811  0.2454 -0.3272 -0.0872
11502TIP3   OH255920   1.362   2.579  11.480 -0.0980 -0.1061 -0.4412
11502TIP3    H155921   1.349   2.644  11.549  1.0451  0.6365 -0.9018
11502TIP3    H255922   1.280   2.581  11.430 -0.5525  0.0636  0.2902
11503TIP3   OH255923   3.345   0.285  15.483 -0.5871  0.5158 -0.1853
11503TIP3    H155924   3.270   0.239  15.520 -0.5949  0.8105  0.1646
11503TIP3    H255925   3.413   0.277  15.549 -0.0392 -0.4474 -0.8378
11504TIP3   OH255926   6.522   0.145   4.750 -0.3112 -0.5371  0.3133
11504TIP3    H155927   6.547   0.229   4.789 -2.9004  0.2435  0.4699
11504TIP3    H255928   6.466   0.104   4.815 -0.3033 -1.7245 -0.3962
11505TIP3   OH255929   4.143   0.329  12.242 -0.0247 -0.6347  0.0087
11505TIP3    H155930   4.112   0.239  12.251 -0.8572 -0.5392 -1.5543
11505TIP3    H255931   4.234   0.320  12.213  0.5407 -0.9293  1.7493
11506TIP3   OH255932   0.199   1.324   0.541  0.1029  0.2019 -0.1846
11506TIP3    H155933   0.287   1.289   0.555  0.1427  0.0931 -0.6754
11506TIP3    H255934   0.213   1.405   0.493 -0.1459 -0.8551 -2.1358
11507TIP3   OH255935   3.917   4.725   2.913 -0.3768  0.0389  0.7539
11507TIP3    H155936   3.895   4.644   2.961 -0.5286  0.1508  0.8741
11507TIP3    H255937   4.005   4.709   2.880 -1.9306 -2.0082 -3.0828
11508TIP3   OH255938   1.891   0.519  14.551  0.5502 -0.1163 -0.2524
11508TIP3    H155939   1.797   0.525  14.569  0.2044 -1.1649 -1.5370
11508TIP3    H255940   1.932   0.522  14.637 -0.6114  1.0908  0.2889
11509TIP3   OH255941   6.157   3.396   6.156 -0.2330  0.6041 -0.1406
11509TIP3    H155942   6.150   3.316   6.209 -0.4848  0.3640 -0.5330
11509TIP3    H255943   6.134   3.368   6.067 -1.7065  1.3965 -0.0360
11510TIP3   OH255944   0.015   2.957   4.181 -0.2585  0.6044  0.3016
11510TIP3    H155945   0.026   2.976   4.088  0.2260 -0.3424  0.1512
11510TIP3    H255946   0.075   3.018   4.225 -1.5670  2.0835  0.1228
11511TIP3   OH255947   3.419   5.768  12.616 -0.0634 -0.5305 -1.0200
11511TIP3    H155948   3.397   5.805  12.701 -0.4610  0.6799 -1.6183
11511TIP3    H255949   3.334   5.763  12.570  0.3535  0.6157 -1.9969
11512TIP3   OH255950   0.871   6.361  11.280 -0.0036  0.2570  0.2402
11512TIP3    H155951   0.907   6.391  11.197 -2.5842 -0.9855 -1.4484
11512TIP3    H255952   0.786   6.404  11.287  0.4139  0.8794  2.6412
11513TIP3   OH255953   2.622   3.060   4.406  0.2583 -0.4012  0.3118
11513TIP3    H155954   2.626   3.155   4.392 -0.0856 -0.3619  0.4839
11513TIP3    H255955   2.604   3.024   4.320 -3.9623 -0.0397  0.8303
11514TIP3   OH255956   1.812   1.158  12.695  0.2475 -0.2029 -0.6875
11514TIP3    H155957   1.836   1.176  12.604  1.2476 -1.8551 -0.7934
11514TIP3    H255958   1.730   1.109  12.689 -0.7683  1.4006 -0.5560
11515TIP3   OH255959   5.635   3.522   0.601 -0.5884 -0.6059 -0.5763
11515TIP3    H155960   5.599   3.434   0.611 -1.9413 -0.2681 -1.9351
11515TIP3    H255961   5.668   3.524   0.511 -1.2548  0.4846 -0.8174
11516TIP3   OH255962   4.126   3.292   3.257 -0.2888  0.1031  0.5683
11516TIP3    H155963   4.191   3.258   3.318 -0.1796  1.2173  1.1057
11516TIP3    H255964   4.075   3.354   3.309 -0.8176  0.3487 -0.2304
11517TIP3   OH255965   2.411   2.183  14.673  0.0812 -0.4031 -0.6623
11517TIP3    H155966   2.446   2.252  14.618 -0.6596  0.9588  0.5196
11517TIP3    H255967   2.332   2.153  14.628  0.4494 -0.5752 -1.2153
11518TIP3   OH255968   4.973   5.877  17.153 -0.0641  0.4803  0.0247
11518TIP3    H155969   5.029   5.948  17.185  0.1588  0.8999 -1.2397
11518TIP3    H255970   4.901   5.921  17.108  0.1682 -0.0688 -0.9232
11519TIP3   OH255971   2.793   6.733   5.726  0.2443 -0.7013  0.2455
11519TIP3    H155972   2.872   6.772   5.690  0.2886 -1.1629 -0.1748
11519TIP3    H255973   2.764   6.794   5.794  0.2893  0.0699 -0.4197
11520TIP3   OH255974   3.445   5.358   1.997 -0.1015 -0.0530  0.0395
11520TIP3    H155975   3.479   5.390   1.914  0.7716 -0.2911  0.2950
11520TIP3    H255976   3.523   5.328   2.044 -0.2003  2.6406  2.1137
11521TIP3   OH255977   6.661   4.964   2.421 -0.3761  0.2273 -0.1803
11521TIP3    H155978   6.644   4.880   2.464  1.4018  0.0807  0.3406
11521TIP3    H255979   6.644   4.947   2.328 -1.0412 -0.4088  0.0472
11522TIP3   OH255980   2.880   0.710  10.627  0.4324  0.1122  0.7858
11522TIP3    H155981   2.948   0.644  10.613 -0.7899 -1.5793  2.2932
11522TIP3    H255982   2.800   0.669  10.594 -0.3106  0.9474  1.4915
11523TIP3   OH255983   1.656   5.349   0.396  0.6983 -0.1668 -0.2166
11523TIP3    H155984   1.644   5.327   0.304  1.9851 -3.1293  0.1823
11523TIP3    H255985   1.582   5.306   0.440 -0.3104  1.8141  0.1546
11524TIP3   OH255986   3.128   0.874  12.755  0.1654  0.2274 -0.3862
11524TIP3    H155987   3.112   0.802  12.695 -0.8341  0.7597 -0.7697
11524TIP3    H255988   3.161   0.832  12.835  0.1253 -0.5999 -0.7981
11525TIP3   OH255989   3.179   1.002   4.900 -0.1452  1.0651  0.7166
11525TIP3    H155990   3.086   1.004   4.922  0.1314  0.4441  2.0418
11525TIP3    H255991   3.206   1.094   4.902 -0.9591  1.3742 -0.8578
11526TIP3   OH255992   6.584   0.559  14.173  0.0766 -0.1116 -0.2598
11526TIP3    H155993   6.517   0.504  14.213  0.0976 -0.3446 -0.5458
11526TIP3    H255994   6.551   0.648  14.183  0.5653 -0.0631  1.2370
11527TIP3   OH255995   6.240   5.122  15.714  0.6805 -0.0672 -0.1878
11527TIP3    H155996   6.276   5.043  15.675  3.2684  0.2294  1.3063
11527TIP3    H255997   6.262   5.114  15.807 -2.8524  0.4546  0.8210
11528TIP3   OH255998   2.217   0.511   0.354 -0.1009 -0.2259 -0.0349
11528TIP3    H155999   2.214   0.606   0.365  0.5185 -0.3248  1.1471
11528TIP3    H256000   2.159   0.494   0.280  0.0507  1.0977 -0.4885
11529TIP3   OH256001   2.217   4.581   4.691 -0.3601 -0.1436 -0.1379
11529TIP3    H156002   2.307   4.549   4.691  1.2515  3.5938 -2.4325
11529TIP3    H256003   2.184   4.559   4.777  3.5601  0.0873  1.6738
11530TIP3   OH256004   0.808   6.055   1.310  0.5167 -0.4944  0.0366
11530TIP3    H156005   0.867   6.014   1.374  1.0523  0.5346  0.2455
11530TIP3    H256006   0.723   6.055   1.352  0.1755 -2.6347 -0.5483
11531TIP3   OH256007   6.566   4.566  16.006 -0.3106  0.3390 -0.2616
11531TIP3    H156008   6.631   4.496  16.006 -2.0824 -1.3941 -0.5188
11531TIP3    H256009   6.490   4.529  16.051 -0.6469  2.8287  1.4513
11532TIP3   OH256010   6.075   5.987  14.300 -0.1050 -0.6504  0.9969
11532TIP3    H156011   6.097   6.080  14.300 -0.0746 -0.6572  1.0870
11532TIP3    H256012   6.008   5.978  14.368  0.2080 -0.7682  1.2908
11533TIP3   OH256013   3.237   0.604   5.813  0.5970  0.2546 -0.3319
11533TIP3    H156014   3.144   0.625   5.813  0.3118 -0.9274  0.3022
11533TIP3    H256015   3.272   0.649   5.736 -0.2169  1.8341  0.1566
11534TIP3   OH256016   6.115   1.769  14.203 -0.3661 -0.0301 -0.6501
11534TIP3    H156017   6.144   1.686  14.242  0.1752 -0.4516 -1.8896
11534TIP3    H256018   6.164   1.836  14.250 -0.8167 -0.3955  0.3793
11535TIP3   OH256019   6.008   4.098  11.780 -0.4757 -0.2618  0.0598
11535TIP3    H156020   5.956   4.176  11.797  0.6409  0.5506 -0.0977
11535TIP3    H256021   6.092   4.132  11.748  0.2793 -1.4999  0.6532
11536TIP3   OH256022   0.272   0.443   2.368  0.6864 -0.0232 -0.0829
11536TIP3    H156023   0.352   0.422   2.417 -0.1528 -0.7792  1.0045
11536TIP3    H256024   0.295   0.520   2.316  1.8538  0.2983  0.8762
11537TIP3   OH256025   0.532   0.645  15.399  0.1936  0.2346 -0.0762
11537TIP3    H156026   0.554   0.552  15.391  4.1139  0.9767  0.1881
11537TIP3    H256027   0.448   0.654  15.354  0.3413 -3.1933 -1.2969
11538TIP3   OH256028   3.148   1.289   4.836  0.3006 -0.1573  0.4119
11538TIP3    H156029   3.107   1.316   4.753  1.1378 -0.9540 -0.2864
11538TIP3    H256030   3.225   1.345   4.845  0.7447 -0.7165  0.1494
11539TIP3   OH256031   3.944   5.109  10.817 -0.2852 -0.6225 -0.1384
11539TIP3    H156032   3.962   5.055  10.741  1.4453 -0.6631  0.2537
11539TIP3    H256033   3.850   5.100  10.832 -0.9663  0.5256 -3.1108
11540TIP3   OH256034   5.269   3.403  13.110 -0.1262 -0.0236  0.4032
11540TIP3    H156035   5.319   3.338  13.160  0.8946  0.7546  0.4150
11540TIP3    H256036   5.224   3.454  13.177  2.3539  1.9417  0.7221
11541TIP3   OH256037   4.007   4.187   5.962  0.0964  0.5049 -0.0102
11541TIP3    H156038   3.969   4.168   6.047  0.1093 -0.3768 -0.1824
11541TIP3    H256039   3.969   4.271   5.936 -0.0393  0.6938  0.7801
11542TIP3   OH256040   5.232   5.320   1.536 -0.1468 -0.5311 -0.2332
11542TIP3    H156041   5.216   5.413   1.523  2.3482 -0.0571 -0.3477
11542TIP3    H256042   5.149   5.285   1.568 -1.3046  1.5990 -0.7889
11543TIP3   OH256043   4.114   5.813  13.937  0.7486 -0.6029  0.2962
11543TIP3    H156044   4.129   5.751  14.009  1.3826 -0.8405 -0.0282
11543TIP3    H256045   4.198   5.816  13.891  0.4775 -0.1155 -0.1717
11544TIP3   OH256046   0.733   5.230   0.119 -0.5022 -0.4741 -0.0945
11544TIP3    H156047   0.796   5.203   0.052 -0.1308  1.2674 -0.5161
11544TIP3    H256048   0.782   5.225   0.201  0.3994  1.3333 -0.4759
11545TIP3   OH256049   4.460   4.433  16.618  0.2396  0.0094  0.0588
11545TIP3    H156050   4.443   4.470  16.704 -0.0524  0.9110 -0.3782
11545TIP3    H256051   4.480   4.508  16.562  1.4951 -0.6502 -0.4216
11546TIP3   OH256052   3.760   5.457  16.658  0.3546  0.7249 -0.3686
11546TIP3    H156053   3.829   5.512  16.695 -0.8018  2.5286 -0.7559
11546TIP3    H256054   3.775   5.461  16.563  0.5138  0.0115 -0.3751
11547TIP3   OH256055   3.529   1.344   4.049 -0.8820  0.3197  0.5210
11547TIP3    H156056   3.565   1.258   4.069  1.0188  1.2040  1.1484
11547TIP3    H256057   3.487   1.333   3.964 -1.2156 -1.3549  0.8657
11548TIP3   OH256058   0.899   1.282  14.425  0.4471 -0.1090  0.5709
11548TIP3    H156059   0.853   1.356  14.384 -0.7424 -1.1853 -0.1142
11548TIP3    H256060   0.977   1.269  14.370  1.2184  1.2554  1.2948
11549TIP3   OH256061   4.636   4.415   3.839 -0.1785  0.9543  0.4497
11549TIP3    H156062   4.588   4.351   3.890 -1.6361  1.2371 -0.5122
11549TIP3    H256063   4.601   4.406   3.750  3.0564 -0.3338 -0.8360
11550TIP3   OH256064   5.813   4.285   1.507  0.3440 -0.0349  1.2947
11550TIP3    H156065   5.905   4.309   1.520  0.9237 -0.7087 -0.9678
11550TIP3    H256066   5.772   4.364   1.472  0.7242 -0.4137 -0.0969
11551TIP3   OH256067   1.264   4.811  14.186 -0.2816  0.2935 -0.1982
11551TIP3    H156068   1.221   4.727  14.205  3.7207 -2.2489 -1.1089
11551TIP3    H256069   1.206   4.853  14.122 -1.2151 -3.1138 -1.8571
11552TIP3   OH256070   1.005   0.824  11.774  0.3177  0.5751  0.1847
11552TIP3    H156071   0.948   0.848  11.701  0.1735  1.2840  0.5179
11552TIP3    H256072   1.092   0.857  11.748  0.8054 -1.2715 -0.7162
11553TIP3   OH256073   4.650   3.303  15.238  0.9620 -0.6834  0.0552
11553TIP3    H156074   4.702   3.224  15.224  1.3986 -0.2534 -0.7819
11553TIP3    H256075   4.580   3.274  15.297  1.8427 -1.3825  0.7871
11554TIP3   OH256076   5.945   0.058   1.310  0.2669 -0.5492 -0.5898
11554TIP3    H156077   5.850   0.046   1.315 -0.3501  3.0057 -1.0828
11554TIP3    H256078   5.970   0.018   1.227 -0.7537 -1.5577 -0.4423
11555TIP3   OH256079   3.836   2.991  16.222 -0.3185 -0.2736  0.0430
11555TIP3    H156080   3.914   3.046  16.225 -0.0652 -0.6832  2.1617
11555TIP3    H256081   3.763   3.053  16.229 -0.1669  0.0333 -0.9646
11556TIP3   OH256082   6.618   2.978   2.903 -0.4695  0.1554  0.2795
11556TIP3    H156083   6.565   2.918   2.955 -1.3033 -0.2289 -0.9544
11556TIP3    H256084   6.709   2.957   2.926 -0.7488 -1.5692 -0.1000
11557TIP3   OH256085   3.504   3.030   0.164  0.2205  0.1052  0.1129
11557TIP3    H156086   3.522   3.068   0.078 -1.7943  1.6424  0.2877
11557TIP3    H256087   3.509   2.935   0.150 -1.8952  0.2167 -2.2283
11558TIP3   OH256088   5.687   5.057  16.613  0.3214 -0.0397  0.5850
11558TIP3    H156089   5.777   5.067  16.645  0.9965 -2.1360 -0.4744
11558TIP3    H256090   5.664   4.966  16.632 -0.9822  0.0022 -0.6004
11559TIP3   OH256091   3.597   3.808   3.243 -0.2235  0.0546  0.4402
11559TIP3    H156092   3.523   3.762   3.283  0.1613 -0.2045  0.8568
11559TIP3    H256093   3.565   3.833   3.156 -0.7019 -0.3124  0.5067
11560TIP3   OH256094   6.489   2.786   0.142 -1.0859 -0.0649 -0.3224
11560TIP3    H156095   6.524   2.701   0.116 -0.5184  0.5732 -1.7412
11560TIP3    H256096   6.513   2.795   0.234  0.1504 -0.8203 -0.5435
11561TIP3   OH256097   2.654   0.839   2.897  0.9084  0.3990 -0.3430
11561TIP3    H156098   2.708   0.778   2.847  0.4649 -0.1627 -0.1379
11561TIP3    H256099   2.707   0.858   2.975  0.2011 -1.3592  0.6326
11562TIP3   OH256100   5.429   5.035   1.923 -0.7560 -0.0714 -0.5824
11562TIP3    H156101   5.469   4.981   1.990  0.1582 -1.9297 -2.5302
11562TIP3    H256102   5.338   5.044   1.951 -0.1059  0.4841  1.6111
11563TIP3   OH256103   3.936   1.833   3.211 -0.0812 -0.0074 -0.0060
11563TIP3    H156104   4.013   1.779   3.231 -0.3968 -0.2365  0.5994
11563TIP3    H256105   3.866   1.770   3.193 -0.0023  0.1936 -1.1180
11564TIP3   OH256106   0.731   3.678  10.479 -0.4448  0.1065 -0.2582
11564TIP3    H156107   0.652   3.724  10.508 -0.9864  0.5442 -2.2739
11564TIP3    H256108   0.701   3.590  10.458 -0.4122  0.2822 -1.0594
11565TIP3   OH256109   3.364   3.389  15.261 -0.0394 -0.1768  0.2343
11565TIP3    H156110   3.439   3.402  15.203 -0.0853  0.7213  0.3593
11565TIP3    H256111   3.300   3.341  15.208 -0.1026  0.6815 -0.4973
11566TIP3   OH256112   2.648   1.346  13.270  0.2958  0.3042 -0.4838
11566TIP3    H156113   2.647   1.309  13.358 -1.4718  1.1295 -0.1072
11566TIP3    H256114   2.653   1.441  13.284 -2.1091  0.5794 -1.1548
11567TIP3   OH256115   3.809   4.876   5.841 -0.2175 -0.0210 -0.2711
11567TIP3    H156116   3.836   4.967   5.840  1.7945 -0.5551  0.1981
11567TIP3    H256117   3.765   4.865   5.926  1.6406  0.0043  0.7501
11568TIP3   OH256118   4.044   0.428  15.758 -0.0006 -0.0551  0.0745
11568TIP3    H156119   4.030   0.374  15.836  1.0322  0.6797  0.8052
11568TIP3    H256120   4.132   0.463  15.769 -1.0845  2.9092  0.3975
11569TIP3   OH256121   0.472   5.386   2.509 -0.2974  0.1282 -0.5532
11569TIP3    H156122   0.408   5.454   2.530 -1.6982 -1.2155 -0.2765
11569TIP3    H256123   0.543   5.401   2.572 -2.7927 -1.6240  3.0775
11570TIP3   OH256124   3.462   5.161   2.269 -0.4768  0.2788  0.9758
11570TIP3    H156125   3.535   5.171   2.208  0.1486 -1.2092  1.4328
11570TIP3    H256126   3.437   5.069   2.262 -1.0495  0.3208  2.2132
11571TIP3   OH256127   2.442   2.255   1.595  0.1232 -0.3244  0.4101
11571TIP3    H156128   2.394   2.312   1.656 -1.7070 -1.2769 -0.0624
11571TIP3    H256129   2.504   2.314   1.551 -1.9793  1.4431 -0.3744
11572TIP3   OH256130   2.041   3.940  13.526 -0.7831  0.4138 -0.1067
11572TIP3    H156131   2.071   3.850  13.514 -1.0408  0.5204 -1.9765
11572TIP3    H256132   1.960   3.933  13.576 -0.9033 -0.4097 -0.4109
11573TIP3   OH256133   0.815   1.294  10.868  0.6119 -0.3293 -0.4460
11573TIP3    H156134   0.742   1.312  10.809  1.1804 -0.6510 -1.2549
11573TIP3    H256135   0.859   1.218  10.830  1.1252 -0.4018  0.2691
11574TIP3   OH256136   3.384   3.667  12.417  0.4547 -0.2016  0.5782
11574TIP3    H156137   3.299   3.697  12.383  1.1642  0.2881 -0.8477
11574TIP3    H256138   3.424   3.621  12.343  0.8703 -1.6506  1.6594
11575TIP3   OH256139   3.459   2.355  11.730  0.4770 -0.0273 -0.4437
11575TIP3    H156140   3.448   2.449  11.714 -0.8277 -0.2019 -0.6812
11575TIP3    H256141   3.446   2.315  11.644 -0.4228 -0.5274 -0.0809
11576TIP3   OH256142   1.373   1.635  13.198 -0.3751 -0.4636 -0.0897
11576TIP3    H156143   1.314   1.710  13.204 -0.1735 -0.1514 -1.6845
11576TIP3    H256144   1.452   1.670  13.157  0.0996 -1.3399  0.0453
11577TIP3   OH256145   4.936   5.723  11.776  0.0784  0.5539  0.3320
11577TIP3    H156146   4.925   5.693  11.686 -0.3834 -2.7666  1.3836
11577TIP3    H256147   4.848   5.725  11.812  0.4191  0.1197  1.2079
11578TIP3   OH256148   4.793   5.670   2.526 -0.3558  0.3414 -0.6698
11578TIP3    H156149   4.863   5.607   2.540 -0.0181  0.6448 -0.9951
11578TIP3    H256150   4.743   5.669   2.608 -1.0132 -1.1539 -1.0516
11579TIP3   OH256151   2.859   5.754   0.587  0.0866 -0.1001  0.4490
11579TIP3    H156152   2.764   5.763   0.593  0.0792 -0.0640  0.2795
11579TIP3    H256153   2.892   5.843   0.597  0.2590 -0.4084  3.3563
11580TIP3   OH256154   4.715   3.966  10.791  1.3070 -0.3231  0.2736
11580TIP3    H156155   4.803   3.985  10.823  1.8001 -3.0594  0.8605
11580TIP3    H256156   4.726   3.954  10.696  0.9766  1.9674 -0.1144
11581TIP3   OH256157   4.956   3.432  14.454 -0.2708 -0.5031  0.1025
11581TIP3    H156158   4.990   3.356  14.408 -1.5362  0.0680 -1.9507
11581TIP3    H256159   4.952   3.406  14.546  2.1145 -1.8155 -0.1038
11582TIP3   OH256160   2.031   1.889   3.500  0.2327  0.6483  1.5286
11582TIP3    H156161   2.032   1.983   3.517  4.6433  0.9722  0.5380
11582TIP3    H256162   2.055   1.849   3.584  0.3931  0.5427  1.4318
11583TIP3   OH256163   0.810   3.555  13.226 -0.4290 -0.2705  0.1125
11583TIP3    H156164   0.879   3.606  13.269  0.2868 -0.7558 -0.4356
11583TIP3    H256165   0.730   3.581  13.271 -0.3300  2.4398 -1.0775
11584TIP3   OH256166   1.746   3.543   2.066 -0.1541 -0.0334  0.0775
11584TIP3    H156167   1.696   3.620   2.096 -0.1255  0.7218 -1.6937
11584TIP3    H256168   1.836   3.561   2.092 -0.2895  0.0962  0.4673
11585TIP3   OH256169   3.952   6.301   5.959  0.3026  0.6218  0.2188
11585TIP3    H156170   3.906   6.379   5.990  2.1698  2.3582 -1.1830
11585TIP3    H256171   3.890   6.261   5.897 -0.5687  1.1116  0.7454
11586TIP3   OH256172   3.950   2.117  15.969 -0.4144 -0.0506 -0.0534
11586TIP3    H156173   4.018   2.142  16.033 -0.6173  0.2677  0.0429
11586TIP3    H256174   3.880   2.181  15.983  0.3364  1.2541 -1.9222
11587TIP3   OH256175   3.790   6.562   6.661 -0.0322 -0.0606  0.0400
11587TIP3    H156176   3.836   6.634   6.618 -0.0814 -0.8901 -1.5043
11587TIP3    H256177   3.709   6.600   6.693 -0.6732  0.3337 -1.9299
11588TIP3   OH256178   4.791   5.000   3.892  0.3350 -0.8697  0.1878
11588TIP3    H156179   4.857   5.069   3.893  0.7014 -1.1825 -0.8330
11588TIP3    H256180   4.806   4.950   3.972  2.0717 -1.5842 -0.5179
11589TIP3   OH256181   2.980   5.863   1.755  0.1512 -0.4958  0.2208
11589TIP3    H156182   3.056   5.885   1.809 -0.5473 -2.4510  2.1137
11589TIP3    H256183   2.908   5.912   1.793  0.1891  0.4774 -0.8843
11590TIP3   OH256184   0.766   3.166   5.322  0.2011 -0.5423 -0.0662
11590TIP3    H156185   0.817   3.136   5.246  0.1856 -0.4758 -0.1030
11590TIP3    H256186   0.821   3.147   5.397  0.3887 -0.2415 -0.1237
11591TIP3   OH256187   6.061   3.025  12.031 -0.1103 -0.3681 -0.2866
11591TIP3    H156188   5.997   2.965  12.069  1.7864 -0.7483  2.6223
11591TIP3    H256189   6.031   3.112  12.059  1.0731 -0.6198  2.0189
11592TIP3   OH256190   4.555   0.961   1.310 -0.0844 -0.1835  0.1211
11592TIP3    H156191   4.489   0.962   1.240 -1.0081 -1.3725  0.9440
11592TIP3    H256192   4.558   0.870   1.340  0.7166  0.1881  1.2541
11593TIP3   OH256193   0.117   0.088  17.275  0.0362  0.1328  0.2373
11593TIP3    H156194   0.124  -0.005  17.256  1.4468  0.4032 -0.6717
11593TIP3    H256195   0.025   0.100  17.299 -0.8634 -1.0370 -2.2102
11594TIP3   OH256196   5.732   2.450   4.799  0.0313 -0.2479 -0.4623
11594TIP3    H156197   5.812   2.473   4.845 -0.2610  1.3482 -0.6959
11594TIP3    H256198   5.665   2.507   4.837 -0.8341 -0.9966 -0.8178
11595TIP3   OH256199   3.130   0.138  11.867  0.3972  0.0657 -0.2567
11595TIP3    H156200   3.088   0.189  11.797  1.8109  0.4506 -0.8612
11595TIP3    H256201   3.130   0.048  11.835 -0.3984 -0.0251 -0.0268
11596TIP3   OH256202   4.095   4.038  15.474 -0.3773  0.5537  0.0862
11596TIP3    H156203   4.117   4.038  15.381 -0.7999 -0.2374 -0.0208
11596TIP3    H256204   4.000   4.046  15.476 -0.4307 -0.1296  0.4259
11597TIP3   OH256205   0.924   2.694  13.954  0.0728 -0.3338  0.2838
11597TIP3    H156206   0.848   2.704  14.012  0.8547 -1.0286  1.4657
11597TIP3    H256207   0.977   2.626  13.995  1.8815  0.8778  0.0496
11598TIP3   OH256208   2.280   5.070  16.042  0.1562  0.0771 -0.2744
11598TIP3    H156209   2.324   5.027  16.115 -0.9465  0.5210  0.6826
11598TIP3    H256210   2.338   5.056  15.967  1.8250  0.5340  0.8901
11599TIP3   OH256211   4.697   0.193   4.587 -0.4754 -0.0788 -0.2036
11599TIP3    H156212   4.775   0.139   4.573 -0.9875 -0.8255 -0.1896
11599TIP3    H256213   4.729   0.269   4.637  0.6498  0.6859 -1.9831
11600TIP3   OH256214   5.700   5.428   4.491 -0.2120  0.0893 -0.6917
11600TIP3    H156215   5.629   5.459   4.546 -1.1721 -0.6997 -1.4566
11600TIP3    H256216   5.758   5.381   4.551 -1.9786 -2.0064 -0.4953
11601TIP3   OH256217   1.493   1.740  11.259  0.6739  0.4020  0.2445
11601TIP3    H156218   1.484   1.697  11.173  0.3937 -0.7560  0.8222
11601TIP3    H256219   1.573   1.702  11.296  0.2567  0.1415  0.8938
11602TIP3   OH256220   2.461   6.630   2.195  0.1931  1.0156 -0.1531
11602TIP3    H156221   2.485   6.696   2.129  0.9198  0.7100 -0.2016
11602TIP3    H256222   2.430   6.681   2.269  0.5849  1.4132 -0.2554
11603TIP3   OH256223   1.514   5.668  16.892 -0.1106 -0.3263 -0.1910
11603TIP3    H156224   1.436   5.620  16.920 -0.6217  0.5326 -0.1139
11603TIP3    H256225   1.564   5.680  16.973  0.1131 -0.8948 -0.2440
11604TIP3   OH256226   4.108   3.308   5.482  0.4099  0.2659 -0.2498
11604TIP3    H156227   4.162   3.379   5.516 -2.0286  1.4223  1.4943
11604TIP3    H256228   4.044   3.351   5.425 -0.2499 -0.7093 -0.2779
11605TIP3   OH256229   0.745   0.135  12.080  0.0803 -0.2468 -0.0681
11605TIP3    H156230   0.762   0.102  12.168 -0.8183  0.2419  0.2979
11605TIP3    H256231   0.716   0.225  12.094 -1.1216 -0.5044 -0.7880
11606TIP3   OH256232   1.619   3.639   0.329  0.0308 -0.1030  0.2731
11606TIP3    H156233   1.604   3.556   0.374 -3.1282  0.3784  0.3925
11606TIP3    H256234   1.536   3.686   0.340  0.6364  1.7878 -2.4252
11607TIP3   OH256235   2.021   1.372   2.012 -0.1417 -0.1679  0.4522
11607TIP3    H156236   2.073   1.439   1.969 -0.7177  0.0133  0.0298
11607TIP3    H256237   2.024   1.297   1.952 -0.7624  0.0098  0.1911
11608TIP3   OH256238   2.453   5.183  16.423 -0.3382 -0.4048 -0.2564
11608TIP3    H156239   2.480   5.227  16.504 -0.0514 -1.2888  0.1444
11608TIP3    H256240   2.419   5.253  16.368  0.9552  0.4585 -0.0016
11609TIP3   OH256241   3.874   2.939   0.203  0.0951 -0.4861 -0.4576
11609TIP3    H156242   3.803   2.910   0.146  0.1394 -2.5041  0.4267
11609TIP3    H256243   3.849   2.908   0.290  0.6855  1.3337  0.4122
11610TIP3   OH256244   1.492   4.917  12.656  0.0282  0.4382  0.5760
11610TIP3    H156245   1.472   4.826  12.679  0.1564  0.1653 -0.3532
11610TIP3    H256246   1.430   4.939  12.586  0.9060  0.5974 -0.1780
11611TIP3   OH256247   5.860   3.892   2.082  0.6986  0.4141 -0.1176
11611TIP3    H156248   5.933   3.830   2.085  0.0564 -0.3843 -0.7752
11611TIP3    H256249   5.901   3.975   2.057  1.7797  0.6211  2.0281
11612TIP3   OH256250   6.751   4.321  10.546 -0.0172 -0.4572  0.2384
11612TIP3    H156251   6.657   4.323  10.525  0.6073  0.2778 -3.0464
11612TIP3    H256252   6.779   4.412  10.538  1.0804 -0.7548  0.6254
11613TIP3   OH256253   0.144   1.124   1.355 -0.0450 -0.3858 -0.0471
11613TIP3    H156254   0.135   1.066   1.431  1.1811  1.3619  1.5214
11613TIP3    H256255   0.235   1.111   1.326 -0.6688 -1.4959 -1.6912
11614TIP3   OH256256   6.186   6.552  13.100  0.3302 -0.5302  0.3540
11614TIP3    H156257   6.097   6.588  13.110  1.1851  1.9500 -0.2515
11614TIP3    H256258   6.237   6.593  13.169  1.4250 -0.3637 -0.5166
11615TIP3   OH256259   1.303   6.012   3.037 -0.1107 -0.0690 -0.4810
11615TIP3    H156260   1.229   5.974   2.990 -0.8947  1.0693 -0.2207
11615TIP3    H256261   1.303   6.105   3.011  0.7220  0.1268  0.1559
11616TIP3   OH256262   5.061   6.539  11.089  0.5399 -0.4723 -0.4761
11616TIP3    H156263   5.080   6.445  11.091 -0.8757 -0.7896 -1.1997
11616TIP3    H256264   4.992   6.549  11.023 -0.4445  0.8597  0.6914
11617TIP3   OH256265   1.574   2.649   4.387 -0.5557  0.0799 -0.5463
11617TIP3    H156266   1.619   2.590   4.446  0.9893 -1.8787 -3.4146
11617TIP3    H256267   1.490   2.606   4.369 -0.2394 -0.2893 -1.1663
11618TIP3   OH256268   0.362   1.688   4.472 -1.0168  0.1080  0.2762
11618TIP3    H156269   0.452   1.657   4.464 -1.0791 -0.7068  2.2667
11618TIP3    H256270   0.360   1.769   4.421  0.1973 -1.0499 -1.7568
11619TIP3   OH256271   6.708   6.731   1.964 -0.1524 -0.3579 -0.0329
11619TIP3    H156272   6.782   6.675   1.986 -0.8530 -1.2244  0.1996
11619TIP3    H256273   6.646   6.718   2.036 -0.6662  0.0885 -0.3872
11620TIP3   OH256274   4.319   1.559  14.191  0.1019 -0.3037 -0.4024
11620TIP3    H156275   4.415   1.561  14.187  0.4304 -2.5274  2.7509
11620TIP3    H256276   4.295   1.644  14.228  0.8631  0.0941 -0.7983
11621TIP3   OH256277   4.150   1.451  16.768 -0.2115  0.0210 -0.1447
11621TIP3    H156278   4.133   1.516  16.836 -1.4590  0.3143 -0.7102
11621TIP3    H256279   4.087   1.471  16.699 -2.0934 -2.9831  0.5130
11622TIP3   OH256280   0.646   2.068   5.801  0.4955  0.1524 -0.1951
11622TIP3    H156281   0.615   2.076   5.891 -1.1561  1.6711 -0.8462
11622TIP3    H256282   0.732   2.028   5.809  1.5013  2.5192  2.2340
11623TIP3   OH256283   5.962   3.302  13.735  0.2360 -0.9343 -0.1872
11623TIP3    H156284   5.966   3.209  13.758 -2.0507 -0.7937  1.0489
11623TIP3    H256285   5.927   3.345  13.812  2.4914  1.2328 -0.2436
11624TIP3   OH256286   0.536   6.061   0.874 -0.0768 -0.2920  0.2854
11624TIP3    H156287   0.461   6.116   0.896 -0.6769 -1.0467  0.2053
11624TIP3    H256288   0.502   5.998   0.811  1.0684  0.4302 -1.1154
11625TIP3   OH256289   1.252   4.410   3.845 -0.0709 -0.0621  0.0253
11625TIP3    H156290   1.210   4.487   3.806  0.3717 -0.4780 -1.3509
11625TIP3    H256291   1.211   4.336   3.801  1.1675 -0.5181 -0.3958
11626TIP3   OH256292   6.523   0.528   0.327 -0.1903  0.1277 -0.3269
11626TIP3    H156293   6.580   0.453   0.309 -0.3227  0.0553 -0.4491
11626TIP3    H256294   6.535   0.546   0.420  0.0748  0.1484 -0.3652
11627TIP3   OH256295   3.722   2.226   3.055  0.2475 -0.2646 -0.1311
11627TIP3    H156296   3.641   2.272   3.078  0.0182 -0.8365  0.2055
11627TIP3    H256297   3.734   2.162   3.125  1.8300  0.8668  0.6856
11628TIP3   OH256298   1.700   0.907  14.561 -0.7622 -0.2425  0.6728
11628TIP3    H156299   1.622   0.963  14.569 -0.1728  0.4285  1.9850
11628TIP3    H256300   1.734   0.925  14.474 -1.8315 -0.2202  0.2471
11629TIP3   OH256301   3.880   1.982   4.021  0.0309  0.1935 -0.0827
11629TIP3    H156302   3.868   1.905   3.965  0.7555  0.1235 -0.1503
11629TIP3    H256303   3.799   1.988   4.071 -0.7295  0.3905 -1.3069
11630TIP3   OH256304   3.619   2.811   1.791  0.4068  0.5012 -0.3721
11630TIP3    H156305   3.625   2.813   1.886  0.8895  1.1079 -0.4112
11630TIP3    H256306   3.562   2.885   1.768 -1.2241 -0.7116 -0.4664
11631TIP3   OH256307   1.784   2.730  11.324  0.0087 -0.1392  0.2427
11631TIP3    H156308   1.864   2.699  11.283  0.0374  0.1117  0.1087
11631TIP3    H256309   1.738   2.650  11.350  0.0989 -0.2913 -0.0659
11632TIP3   OH256310   2.224   2.040  14.520  0.2320 -0.1032 -0.4497
11632TIP3    H156311   2.247   2.024  14.429 -0.4380  3.0976 -1.3008
11632TIP3    H256312   2.133   2.012  14.528  0.3724 -0.6322 -0.6880
11633TIP3   OH256313   6.749   2.417  12.031  0.2743 -0.4635 -0.1233
11633TIP3    H156314   6.667   2.464  12.016 -0.3116 -2.0548 -2.5764
11633TIP3    H256315   6.724   2.338  12.079  0.5243 -0.5085 -0.0625
11634TIP3   OH256316   4.506   0.614  10.594 -0.0169  0.8008 -0.2922
11634TIP3    H156317   4.421   0.653  10.572  0.2071  2.2262  1.1654
11634TIP3    H256318   4.557   0.687  10.630  1.3975 -0.2935 -0.0097
11635TIP3   OH256319   2.518   3.358   1.495  0.3063  0.0663  0.2046
11635TIP3    H156320   2.470   3.276   1.503  0.3422  0.1193  1.0702
11635TIP3    H256321   2.605   3.338   1.531  1.1117 -0.1468 -1.7166
11636TIP3   OH256322   4.144   6.120  15.410 -0.3030 -0.5694  0.0139
11636TIP3    H156323   4.145   6.034  15.367  0.9788  0.1585 -1.4572
11636TIP3    H256324   4.233   6.130  15.445 -1.0723 -0.7822  2.2156
11637TIP3   OH256325   6.586   4.427   0.975  0.1196  0.2122  0.3837
11637TIP3    H156326   6.666   4.424   0.923  1.0335  0.7446  1.7136
11637TIP3    H256327   6.616   4.432   1.066 -1.4066  1.2552  0.8797
11638TIP3   OH256328   3.524   5.421   0.987  0.1459  0.0039  0.6864
11638TIP3    H156329   3.458   5.436   0.919 -1.6049  2.0923  2.6200
11638TIP3    H256330   3.600   5.472   0.958 -0.8725  1.5717  0.6117
11639TIP3   OH256331   1.270   4.217   0.702 -0.6965  0.3586 -0.1031
11639TIP3    H156332   1.293   4.309   0.689 -0.7762  0.5405  0.9577
11639TIP3    H256333   1.177   4.218   0.724 -0.5274  0.1118  0.6766
11640TIP3   OH256334   3.199   3.642   2.836  0.1159  0.1426 -0.3071
11640TIP3    H156335   3.162   3.629   2.924 -0.7682  1.5124 -0.4566
11640TIP3    H256336   3.271   3.579   2.831 -0.3246 -0.5089  1.1041
11641TIP3   OH256337   0.551   0.158   4.903 -0.9393 -0.4816  0.0116
11641TIP3    H156338   0.549   0.132   4.995  1.3717 -0.2051  0.2168
11641TIP3    H256339   0.624   0.219   4.897 -1.2892 -0.1720 -1.9413
11642TIP3   OH256340   0.483   0.611   3.031  0.3746  0.2839 -0.1330
11642TIP3    H156341   0.518   0.553   2.964 -0.4239  0.1273 -0.4176
11642TIP3    H256342   0.560   0.638   3.082  1.0769  0.8111 -1.4145
11643TIP3   OH256343   0.983   1.884  16.479 -0.0139  0.2725  0.2305
11643TIP3    H156344   1.034   1.928  16.411  1.2711 -2.1817 -0.5054
11643TIP3    H256345   1.049   1.843  16.535 -1.0768 -2.3731 -0.2997
11644TIP3   OH256346   5.152   4.002  14.011  0.6486 -0.6615  0.3946
11644TIP3    H156347   5.159   4.065  14.083 -0.7572 -0.0618  0.0478
11644TIP3    H256348   5.145   3.917  14.053 -1.6200 -0.2049  1.0837
11645TIP3   OH256349   1.756   0.831   0.103  0.5655 -0.0453 -0.4019
11645TIP3    H156350   1.668   0.820   0.069  0.7339  0.0168 -0.8648
11645TIP3    H256351   1.753   0.912   0.154 -0.7347 -2.0822  3.1657
11646TIP3   OH256352   1.885   0.920  13.358  0.0829  0.4368 -0.4143
11646TIP3    H156353   1.913   0.852  13.418  0.8264  1.6262  0.6184
11646TIP3    H256354   1.872   0.874  13.274 -0.3517 -1.1159  0.4686
11647TIP3   OH256355   0.289   1.997  12.296  0.0476  0.0729  0.5103
11647TIP3    H156356   0.354   2.037  12.353  0.0298  2.2390 -0.8948
11647TIP3    H256357   0.303   2.037  12.210 -0.5272 -2.3763 -0.8428
11648TIP3   OH256358   3.212   4.585   0.322 -0.1571  0.7030 -0.2093
11648TIP3    H156359   3.140   4.619   0.375  0.4007  0.0137  1.0159
11648TIP3    H256360   3.282   4.566   0.385  1.5242  2.3721 -1.4622
11649TIP3   OH256361   4.976   3.217  17.145 -0.1072 -0.1986 -0.6938
11649TIP3    H156362   4.893   3.198  17.102 -0.7329  1.1868 -0.1534
11649TIP3    H256363   4.959   3.295  17.197  1.5525  0.1373 -0.6030
11650TIP3   OH256364   6.368   2.865  13.131  0.2934  0.0812 -0.1491
11650TIP3    H156365   6.312   2.938  13.104 -1.3811 -1.2683 -0.5253
11650TIP3    H256366   6.422   2.846  13.054 -1.2647 -0.8365 -1.0776
11651TIP3   OH256367   1.811   0.395  14.015  0.3628  0.1719 -0.1245
11651TIP3    H156368   1.776   0.406  14.103 -0.8413 -1.4278 -0.3588
11651TIP3    H256369   1.906   0.391  14.027  0.1967 -0.4108  1.1400
11652TIP3   OH256370   0.192   2.017   0.139 -0.0946  0.2063  0.7870
11652TIP3    H156371   0.233   1.937   0.173 -0.3633 -0.1897  0.2025
11652TIP3    H256372   0.104   2.018   0.178  0.2057  0.6700  1.4641
11653TIP3   OH256373   5.266   5.847   5.162  0.1868 -0.1545 -0.3475
11653TIP3    H156374   5.302   5.860   5.074 -0.3409  1.0361 -0.4069
11653TIP3    H256375   5.171   5.843   5.149 -0.0693  2.1399  0.3405
11654TIP3   OH256376   1.988   0.817  11.327 -0.4478  0.1436 -0.1419
11654TIP3    H156377   1.929   0.848  11.259 -1.2249 -0.7768  0.0804
11654TIP3    H256378   1.932   0.803  11.403  0.1762 -0.0825  0.2862
11655TIP3   OH256379   4.938   4.395   3.658 -0.2557 -0.0313  0.6270
11655TIP3    H156380   4.985   4.317   3.630 -2.1991 -0.8405 -0.5246
11655TIP3    H256381   4.989   4.468   3.622  0.3129 -0.8610 -0.2911
11656TIP3   OH256382   4.661   2.798  15.809  0.1178  0.2255 -0.4051
11656TIP3    H156383   4.735   2.847  15.772 -0.0953 -0.2281 -1.4575
11656TIP3    H256384   4.642   2.731  15.744 -0.4273 -0.4467  0.4342
11657TIP3   OH256385   6.035   6.596   5.603  0.9151 -0.0739 -0.1557
11657TIP3    H156386   6.075   6.664   5.658  0.7545  0.7160 -0.9892
11657TIP3    H256387   6.009   6.642   5.524  0.1434 -0.9779 -0.4453
11658TIP3   OH256388   1.643   0.342  12.576 -0.2758 -0.2549  0.2290
11658TIP3    H156389   1.721   0.392  12.552  0.7047 -0.9057  1.8436
11658TIP3    H256390   1.576   0.369  12.513  1.2987  0.1708 -1.3425
11659TIP3   OH256391   5.215   5.780  14.478  0.4837  0.4971  0.5042
11659TIP3    H156392   5.267   5.745  14.406  1.0557  2.1558  0.0688
11659TIP3    H256393   5.128   5.791  14.441  0.4148  0.0285  0.5095
11660TIP3   OH256394   6.293   0.559   3.591 -0.0183 -0.1855 -0.2346
11660TIP3    H156395   6.257   0.549   3.503  0.8775  1.5630 -0.8427
11660TIP3    H256396   6.221   0.596   3.642 -0.1786 -0.0478 -0.5558
11661TIP3   OH256397   5.634   0.371  10.538  0.0670  0.1729 -0.0918
11661TIP3    H156398   5.619   0.445  10.479  2.2873  1.0506  0.3883
11661TIP3    H256399   5.565   0.379  10.604  0.8287  2.4202  0.5188
11662TIP3   OH256400   1.778   5.206  16.018  0.0670  0.6458 -0.1295
11662TIP3    H156401   1.689   5.227  16.045 -1.6435 -1.6378 -3.2962
11662TIP3    H256402   1.780   5.228  15.925  2.6968  0.2297 -0.2400
11663TIP3   OH256403   6.633   3.238  13.956  0.6180  0.5080  0.0359
11663TIP3    H156404   6.551   3.220  13.909  1.3244 -1.4120 -0.5551
11663TIP3    H256405   6.630   3.179  14.032  1.1039  0.9976  0.4370
11664TIP3   OH256406   2.939   3.387  12.469  0.3391 -0.0782  0.1689
11664TIP3    H156407   2.990   3.441  12.529  0.8064 -0.0768 -0.2297
11664TIP3    H256408   3.002   3.327  12.429  0.2969  0.8215 -1.3431
11665TIP3   OH256409   2.823   5.512  12.577 -0.1351  0.0020 -0.0013
11665TIP3    H156410   2.776   5.508  12.661 -2.3884 -0.8110 -1.2269
11665TIP3    H256411   2.897   5.452  12.589 -0.6278 -0.3896  1.2953
11666TIP3   OH256412   6.540   3.297   1.308 -0.2741 -0.8062  0.7109
11666TIP3    H156413   6.617   3.250   1.340  1.2483 -0.4023 -2.0088
11666TIP3    H256414   6.492   3.323   1.387  1.7140 -2.1404  2.4514
11667TIP3   OH256415   3.920   2.608  11.391  0.1805  0.0298  0.2482
11667TIP3    H156416   3.958   2.692  11.365 -0.7043  0.2466 -0.4008
11667TIP3    H256417   3.980   2.542  11.354 -1.0983  0.3164 -2.5987
11668TIP3   OH256418   3.970   2.452   1.518 -0.2793  0.6404  0.3863
11668TIP3    H156419   3.880   2.426   1.500  0.1486 -1.7352  1.2659
11668TIP3    H256420   4.006   2.474   1.433 -1.2579  0.0879 -0.1945
11669TIP3   OH256421   5.977   0.592   5.527 -0.3250 -0.2111 -0.1399
11669TIP3    H156422   5.913   0.637   5.471 -1.8067 -2.3406 -0.3009
11669TIP3    H256423   6.058   0.594   5.476 -0.7217  0.9624 -0.7757
11670TIP3   OH256424   4.137   1.855  14.657  0.4157 -0.2804  0.3423
11670TIP3    H156425   4.080   1.931  14.658  1.4214  0.5148 -0.2329
11670TIP3    H256426   4.208   1.879  14.596  1.0481 -1.4529  0.5777
11671TIP3   OH256427   2.187   5.204  14.403 -0.8430 -0.2733  0.1924
11671TIP3    H156428   2.264   5.222  14.349 -1.0420  1.0847  0.3237
11671TIP3    H256429   2.222   5.186  14.490 -0.5384 -2.2094 -0.2871
11672TIP3   OH256430   0.382   2.806  12.053 -0.1005  0.1146 -0.5435
11672TIP3    H156431   0.441   2.734  12.075 -1.7890 -0.7566  1.5867
11672TIP3    H256432   0.438   2.872  12.014  2.0289 -1.2016  0.0972
11673TIP3   OH256433   1.073   5.927  15.715 -0.2461  0.0430  0.3644
11673TIP3    H156434   1.075   5.847  15.768  0.8103 -0.1374  0.0645
11673TIP3    H256435   1.063   5.895  15.625  0.7670  0.2072  0.1829
11674TIP3   OH256436   5.124   3.488  13.316  0.2710  0.4520  0.0535
11674TIP3    H156437   5.053   3.506  13.377 -0.9825  0.7524 -1.4356
11674TIP3    H256438   5.195   3.454  13.371 -1.1304 -0.1793  1.5496
11675TIP3   OH256439   0.113   6.392   4.293 -0.1191 -0.0692 -0.4204
11675TIP3    H156440   0.057   6.447   4.347  0.5170  2.1386 -1.8770
11675TIP3    H256441   0.126   6.312   4.345 -4.7669 -0.8858 -0.1116
11676TIP3   OH256442   1.699   5.664  16.461 -0.1305 -0.4450  0.4635
11676TIP3    H156443   1.633   5.708  16.514 -0.7846 -0.2330 -0.4874
11676TIP3    H256444   1.776   5.721  16.465  0.4274 -1.2648  2.5171
11677TIP3   OH256445   4.663   6.506   0.519 -0.5861 -0.0297  0.2875
11677TIP3    H156446   4.734   6.541   0.466 -1.2732 -0.0230 -0.6618
11677TIP3    H256447   4.705   6.474   0.598  0.4401  0.1654 -0.1652
11678TIP3   OH256448   2.703   0.044  16.391  0.4669 -0.0347  0.9572
11678TIP3    H156449   2.693  -0.036  16.442  0.1463 -0.1585  0.7032
11678TIP3    H256450   2.782   0.085  16.426 -0.1900  0.2805  2.0899
11679TIP3   OH256451   1.110   2.962   4.116 -0.3145 -0.1698  0.3066
11679TIP3    H156452   1.032   2.979   4.168 -1.5190 -1.7016 -0.9174
11679TIP3    H256453   1.152   2.888   4.160  1.1178  1.3083  1.5863
11680TIP3   OH256454   3.012   1.315   5.750 -0.0794  0.5856  0.0537
11680TIP3    H156455   3.093   1.323   5.799 -0.3260  1.1404  0.3945
11680TIP3    H256456   2.969   1.238   5.786  1.1529 -0.8610 -1.4454
11681TIP3   OH256457   4.794   4.131   4.930  0.1883  0.2468  0.6143
11681TIP3    H156458   4.822   4.201   4.988 -0.1578 -0.3655  1.5343
11681TIP3    H256459   4.699   4.140   4.925  0.0242 -0.7689  1.5695
11682TIP3   OH256460   4.463   1.478  13.554 -0.3083  0.2759  0.3694
11682TIP3    H156461   4.521   1.515  13.487 -1.5105  0.2089 -0.7266
11682TIP3    H256462   4.522   1.457  13.626  0.7325  2.3835  0.2222
11683TIP3   OH256463   0.464   5.928  17.284 -0.1554  0.1602 -0.5008
11683TIP3    H156464   0.375   5.929  17.319 -0.6865 -0.5813 -1.7866
11683TIP3    H256465   0.515   5.880  17.350 -1.1295 -1.1928 -0.7062
11684TIP3   OH256466   2.846   1.691   4.126 -0.0613 -0.1424 -0.5417
11684TIP3    H156467   2.819   1.769   4.077 -1.4601 -1.5158 -2.1368
11684TIP3    H256468   2.921   1.658   4.077  0.1270 -0.1368 -0.2534
11685TIP3   OH256469   6.072   1.111  12.021  0.4007 -0.8749 -0.5793
11685TIP3    H156470   6.157   1.067  12.032  0.8227 -0.3904 -1.7181
11685TIP3    H256471   6.011   1.057  12.070  1.6877 -0.0927  2.0739
11686TIP3   OH256472   4.861   1.233   1.158  0.3254  0.1292  0.3692
11686TIP3    H156473   4.932   1.263   1.101  0.6967  1.1494  1.3202
11686TIP3    H256474   4.781   1.247   1.107  0.6304  1.2959  0.1826
11687TIP3   OH256475   4.262   3.808  12.428 -0.3397 -0.2403  0.0450
11687TIP3    H156476   4.229   3.727  12.391  0.1409 -0.3159 -0.2242
11687TIP3    H256477   4.314   3.848  12.358  1.5775 -0.9527  0.9756
11688TIP3   OH256478   1.548   6.384  16.148  0.4513 -0.6787  0.4578
11688TIP3    H156479   1.599   6.377  16.229  0.3410 -2.2678  0.4255
11688TIP3    H256480   1.604   6.347  16.080  0.2033 -0.1583 -0.0409
11689TIP3   OH256481   0.707   3.103  16.438  0.2456 -0.5775 -0.0791
11689TIP3    H156482   0.636   3.058  16.391  0.5750  0.1774 -1.3678
11689TIP3    H256483   0.713   3.058  16.522 -3.0388  0.5237  0.9038
11690TIP3   OH256484   2.259   5.968   1.739  0.4666 -0.1178  0.1112
11690TIP3    H156485   2.188   5.908   1.716  1.7182 -0.8659 -2.1563
11690TIP3    H256486   2.272   5.956   1.833 -2.9282  0.7301  0.8057
11691TIP3   OH256487   6.584   4.536  11.887  0.5091 -0.0648 -0.4303
11691TIP3    H156488   6.556   4.491  11.966  0.3400 -0.0509 -0.4830
11691TIP3    H256489   6.658   4.484  11.854  1.2928  0.5300  0.3352
11692TIP3   OH256490   6.156   3.748   5.222 -0.1665  0.1161 -0.2635
11692TIP3    H156491   6.157   3.669   5.277  1.6068 -0.9748 -1.7437
11692TIP3    H256492   6.119   3.718   5.139  2.9784  0.0432 -1.7783
11693TIP3   OH256493   3.960   2.115  14.189  0.1311 -0.3449 -0.0856
11693TIP3    H156494   3.922   2.183  14.134  1.5138  0.0734 -0.5813
11693TIP3    H256495   4.007   2.058  14.128 -0.4934 -1.3916  0.3930
11694TIP3   OH256496   0.119   1.428   2.890 -0.4073  0.7364 -0.0017
11694TIP3    H156497   0.187   1.363   2.905  0.3923  0.6759 -3.1501
11694TIP3    H256498   0.044   1.397   2.941  1.1982 -0.3560  1.8429
11695TIP3   OH256499   2.647   5.584   3.526 -0.1357 -0.3522  0.0831
11695TIP3    H156500   2.587   5.569   3.452 -1.1509  1.3964  0.5116
11695TIP3    H256501   2.733   5.593   3.485 -0.5967  0.0174 -0.8293
11696TIP3   OH256502   4.780   0.999  16.254  0.1224 -0.0897 -0.5431
11696TIP3    H156503   4.856   1.020  16.200 -0.7940  2.2199 -1.0601
11696TIP3    H256504   4.715   1.065  16.231 -0.9945 -0.1836  2.0091
11697TIP3   OH256505   5.749   0.082  15.435  0.3917  0.2157 -0.0405
11697TIP3    H156506   5.763   0.039  15.519  1.6509 -0.9555 -0.8082
11697TIP3    H256507   5.654   0.089  15.427  0.2243 -0.6859  0.9592
11698TIP3   OH256508   5.132   2.233   1.529  0.2636 -0.0334  0.8313
11698TIP3    H156509   5.131   2.187   1.613 -0.3554 -0.8141  0.4106
11698TIP3    H256510   5.102   2.168   1.466  0.4677  0.6234  0.0431
11699TIP3   OH256511   6.530   1.557  10.509  0.0787  0.1701  0.1310
11699TIP3    H156512   6.477   1.635  10.522 -0.1465  0.6899 -3.1136
11699TIP3    H256513   6.473   1.484  10.535 -0.7315  0.9255  0.5100
11700TIP3   OH256514   6.603   0.849   4.596 -0.1401  0.0028  0.3531
11700TIP3    H156515   6.621   0.777   4.657  0.9688  0.1791  0.2622
11700TIP3    H256516   6.635   0.816   4.512 -1.0160  0.0335 -0.0020
11701TIP3   OH256517   5.241   3.632   0.963 -0.1175  0.2936  0.0236
11701TIP3    H156518   5.253   3.563   1.029 -0.6541  0.2160  0.0450
11701TIP3    H256519   5.323   3.631   0.913  0.1484  0.1023  0.4523
11702TIP3   OH256520   1.814   3.302   1.268 -0.3919 -0.4232 -0.4462
11702TIP3    H156521   1.855   3.363   1.330 -0.8495 -0.5402 -0.0200
11702TIP3    H256522   1.887   3.266   1.218 -0.2309  1.7464 -1.9018
11703TIP3   OH256523   6.109   0.167  14.798 -0.0601  0.0891  0.3347
11703TIP3    H156524   6.098   0.203  14.887 -0.0378  0.6801  0.1045
11703TIP3    H256525   6.020   0.147  14.769  0.0513 -1.7610  1.1463
11704TIP3   OH256526   4.946   0.416   1.128 -0.2412 -0.6393  0.0850
11704TIP3    H156527   5.004   0.492   1.129  0.3740 -1.0980  0.3388
11704TIP3    H256528   4.900   0.421   1.044  0.1899 -0.2860 -0.1335
11705TIP3   OH256529   6.493   6.482   0.630  0.1309 -0.0024  0.1369
11705TIP3    H156530   6.510   6.415   0.696  1.2854 -0.4758 -0.6214
11705TIP3    H256531   6.481   6.563   0.681  1.1290 -0.3317  0.9275
11706TIP3   OH256532   5.848   2.340   3.676  0.1801 -0.5238  0.0586
11706TIP3    H156533   5.929   2.370   3.716  1.4200  0.1086 -2.6960
11706TIP3    H256534   5.781   2.398   3.713  1.4428  0.8786  0.2378
11707TIP3   OH256535   0.012   1.225   4.240 -0.2411 -0.6486 -0.0720
11707TIP3    H156536  -0.027   1.143   4.209  0.6856 -0.8395 -0.7907
11707TIP3    H256537  -0.010   1.229   4.333 -0.2766 -1.7322 -0.0216
11708TIP3   OH256538   0.898   2.286  15.042  0.1067 -0.0230 -0.1876
11708TIP3    H156539   0.913   2.192  15.049  0.4353  0.1389  2.2442
11708TIP3    H256540   0.948   2.313  14.965  0.2223 -1.7800 -0.7757
11709TIP3   OH256541   0.474   5.905   1.255 -0.1996  0.0276 -0.5905
11709TIP3    H156542   0.424   5.953   1.189  1.5456  1.0246 -1.2414
11709TIP3    H256543   0.490   5.970   1.324 -0.1910 -0.4163 -0.1713
11710TIP3   OH256544   2.552   2.978   2.982  0.2787  0.6036 -0.0522
11710TIP3    H156545   2.460   2.997   2.999  0.2561  0.5139 -0.0747
11710TIP3    H256546   2.586   3.058   2.942  0.4910  1.0455  0.9862
11711TIP3   OH256547   1.943   0.999   3.741  0.1879  0.2575  0.1393
11711TIP3    H156548   1.858   0.986   3.781  0.2938 -2.0731 -0.2728
11711TIP3    H256549   1.926   0.997   3.647  0.7051 -0.3939  0.0520
11712TIP3   OH256550   2.373   0.909  10.507 -0.4486  0.4646  0.4211
11712TIP3    H156551   2.282   0.879  10.505 -0.9275  1.9136 -0.7250
11712TIP3    H256552   2.367   1.003  10.521  0.8074  0.8001 -1.0388
11713TIP3   OH256553   4.158   5.431   4.894 -0.0166  0.1396  0.1203
11713TIP3    H156554   4.088   5.495   4.879  2.3640  3.1584  0.9271
11713TIP3    H256555   4.163   5.423   4.989  0.6914 -0.0596  0.0720
11714TIP3   OH256556   5.497   0.599   4.726  0.1540  0.1944 -0.1293
11714TIP3    H156557   5.577   0.618   4.677  0.1768  0.8713  0.1611
11714TIP3    H256558   5.436   0.568   4.660  1.3720 -2.6829 -0.0434
11715TIP3   OH256559   5.014   0.399   6.021  0.0400 -0.3389  0.4526
11715TIP3    H156560   5.076   0.406   6.093 -0.7517  0.7654  1.0417
11715TIP3    H256561   4.937   0.356   6.059  0.0230 -0.7378 -0.0131
11716TIP3   OH256562   4.299   3.358   4.575 -0.2569  0.3427 -0.1877
11716TIP3    H156563   4.305   3.441   4.528 -2.0051  0.3168 -0.5350
11716TIP3    H256564   4.282   3.293   4.507  2.5318 -0.5823 -0.0947
11717TIP3   OH256565   5.478   4.273   3.170  0.1727  0.5345 -0.2855
11717TIP3    H156566   5.545   4.324   3.124  0.2103 -1.6777 -2.9273
11717TIP3    H256567   5.527   4.224   3.236  0.5002  1.8773  0.5148
11718TIP3   OH256568   5.090   1.260  11.584  0.2054  0.5383 -0.1308
11718TIP3    H156569   5.047   1.314  11.517  0.6479 -0.3013 -1.1257
11718TIP3    H256570   5.119   1.182  11.537  1.3865  0.3499  0.8540
11719TIP3   OH256571   6.003   1.965   4.993 -0.1308 -0.5714  0.0911
11719TIP3    H156572   5.982   2.007   5.077 -0.6152  0.4594 -0.5310
11719TIP3    H256573   5.918   1.955   4.950  0.2416  0.0491 -0.8032
11720TIP3   OH256574   0.841   1.027  14.499 -0.1970  0.1148 -0.2295
11720TIP3    H156575   0.797   1.036  14.584  0.2379 -0.0917  0.0226
11720TIP3    H256576   0.839   1.115  14.461 -1.2654  0.0053 -0.4454
11721TIP3   OH256577   3.386   4.639  11.260  0.3912  0.0218  0.3868
11721TIP3    H156578   3.310   4.587  11.285  0.0833  0.7961  1.0971
11721TIP3    H256579   3.378   4.648  11.165 -0.3498  0.0055  0.4398
11722TIP3   OH256580   5.785   5.245   6.080  0.0231  0.1640 -0.5653
11722TIP3    H156581   5.868   5.258   6.125  0.1952  1.0098 -1.1034
11722TIP3    H256582   5.741   5.175   6.129  1.8794 -1.7118 -1.4290
11723TIP3   OH256583   0.883   3.335  10.376 -0.0145  0.1840 -0.4903
11723TIP3    H156584   0.811   3.280  10.406 -1.0182  1.7565  0.0829
11723TIP3    H256585   0.928   3.361  10.456  0.3289  0.3797 -0.7465
11724TIP3   OH256586   6.268   0.821  16.426  0.2554 -0.1683  0.2716
11724TIP3    H156587   6.357   0.802  16.398 -0.1026 -0.3962 -0.7363
11724TIP3    H256588   6.214   0.803  16.349 -0.5706  0.7530  0.6202
11725TIP3   OH256589   0.344   5.717  14.454 -0.1944 -0.2876  0.0243
11725TIP3    H156590   0.384   5.645  14.405  0.3114 -0.2171  0.3315
11725TIP3    H256591   0.269   5.677  14.499  0.2215 -0.6736  0.3779
11726TIP3   OH256592   0.098   2.116  11.105  0.0205 -0.3738  0.5231
11726TIP3    H156593   0.014   2.132  11.062  0.3716 -0.0514 -0.0527
11726TIP3    H256594   0.150   2.194  11.086  0.3633 -0.4572  1.1014
11727TIP3   OH256595   4.683   0.401   1.718 -0.0161 -0.1152  0.4047
11727TIP3    H156596   4.604   0.353   1.694  1.7652 -1.7957 -2.6799
11727TIP3    H256597   4.738   0.336   1.763  0.5799  0.3518  0.3698
11728TIP3   OH256598   0.258   0.928  14.865 -0.1275 -0.1442  0.2957
11728TIP3    H156599   0.271   0.843  14.824 -0.0859 -0.0428  0.1022
11728TIP3    H256600   0.327   0.984  14.829 -1.4634  0.5847 -1.2671
11729TIP3   OH256601   2.037   6.318  10.699 -0.1471 -0.0429  0.6613
11729TIP3    H156602   1.977   6.347  10.767 -0.3768  1.3033 -0.0814
11729TIP3    H256603   2.050   6.395  10.643  0.2049 -1.0367 -0.6965
11730TIP3   OH256604   1.812   3.010   3.476 -0.5178  0.6789 -0.0191
11730TIP3    H156605   1.890   3.054   3.441 -0.8297  0.6552 -0.7626
11730TIP3    H256606   1.839   2.980   3.563 -0.2708  2.2577  0.4864
11731TIP3   OH256607   0.333   5.174   5.153  0.2023 -0.2071 -0.8609
11731TIP3    H156608   0.415   5.218   5.133  0.7316  0.2662  1.9575
11731TIP3    H256609   0.267   5.244   5.151  1.0094  0.9836  3.4104
11732TIP3   OH256610   5.644   3.340  14.897  0.0742 -0.0049 -0.1214
11732TIP3    H156611   5.638   3.391  14.817  0.6341  2.0652  1.0811
11732TIP3    H256612   5.574   3.275  14.890  0.6543 -0.4680 -2.6285
11733TIP3   OH256613   5.794   3.120   6.333  0.2899  0.0666 -0.2459
11733TIP3    H156614   5.743   3.066   6.273  2.2796  0.9824 -2.9737
11733TIP3    H256615   5.758   3.208   6.323  0.3230  0.1413  0.2721
11734TIP3   OH256616   6.024   1.210  16.738 -0.5844 -0.1959  0.3438
11734TIP3    H156617   5.940   1.244  16.768 -0.8494 -1.2251  0.8026
11734TIP3    H256618   6.014   1.115  16.740  0.5760 -0.3352  0.3532
11735TIP3   OH256619   2.697   5.825   2.828 -0.2379 -0.4452  0.2786
11735TIP3    H156620   2.619   5.804   2.880 -0.5807 -0.0131 -0.0518
11735TIP3    H256621   2.692   5.766   2.753  0.3548 -1.1977  0.8071
11736TIP3   OH256622   6.422   4.299   3.103  0.3313 -0.1202 -0.6106
11736TIP3    H156623   6.375   4.345   3.172  1.1095 -0.2934  0.0424
11736TIP3    H256624   6.354   4.247   3.059  0.0047 -0.9567  0.8085
11737TIP3   OH256625   6.269   6.656  13.704  0.3814  0.3335  0.8853
11737TIP3    H156626   6.180   6.623  13.695  0.4981  0.1905  0.2383
11737TIP3    H256627   6.304   6.609  13.780 -0.0068  0.2063  0.9905
11738TIP3   OH256628   2.111   2.117   0.351  0.5059 -0.4571 -0.3817
11738TIP3    H156629   2.034   2.167   0.380  0.9419 -0.5636  0.9957
11738TIP3    H256630   2.082   2.075   0.269 -1.1707 -1.0810  0.4734
11739TIP3   OH256631   4.627   3.645  14.159 -0.2834  0.3771 -0.0431
11739TIP3    H156632   4.616   3.552  14.137  2.1770  0.1743 -0.7908
11739TIP3    H256633   4.543   3.672  14.196 -1.1662 -2.0608 -0.1132
11740TIP3   OH256634   1.003   6.497  17.256  0.1745  0.0358 -0.0422
11740TIP3    H156635   1.058   6.453  17.321 -1.3899  0.3992  1.6218
11740TIP3    H256636   0.969   6.574  17.301  0.8905  1.6281 -2.1043
11741TIP3   OH256637   3.983   3.638   2.741 -0.0366  0.3042 -0.6873
11741TIP3    H156638   3.937   3.593   2.670  0.1096 -1.4462  0.2838
11741TIP3    H256639   4.060   3.585   2.757  0.5913  1.3807 -0.0492
11742TIP3   OH256640   6.292   0.573  13.482  0.1448 -0.0424 -0.0706
11742TIP3    H156641   6.249   0.494  13.515  0.4450 -0.4190 -0.5535
11742TIP3    H256642   6.382   0.565  13.514 -0.4064  1.4024  2.0808
11743TIP3   OH256643   6.628   1.994   2.068  0.4353 -0.2821 -0.0321
11743TIP3    H156644   6.697   1.932   2.044 -0.6160 -1.2276 -0.6899
11743TIP3    H256645   6.619   1.984   2.163  1.1716 -0.1807  0.0511
11744TIP3   OH256646   0.082   5.974  17.099 -0.7732 -0.3258 -0.2258
11744TIP3    H156647   0.160   5.972  17.043 -0.4575  1.2712  0.1293
11744TIP3    H256648   0.095   5.901  17.160 -0.8309 -1.7239 -1.7950
11745TIP3   OH256649   4.625   0.838   5.002  0.1103 -0.0969  0.0729
11745TIP3    H156650   4.704   0.801   5.042 -0.5271 -1.1242  0.4236
11745TIP3    H256651   4.577   0.878   5.074 -1.2031 -2.2430  0.4819
11746TIP3   OH256652   5.383   4.610   3.177 -0.0870 -0.7704 -0.2611
11746TIP3    H156653   5.443   4.575   3.243  0.9791  0.0202 -0.7753
11746TIP3    H256654   5.426   4.591   3.093  0.0929  0.9187 -0.5890
11747TIP3   OH256655   4.960   3.304   0.595  0.3904  0.5561 -0.1681
11747TIP3    H156656   4.873   3.341   0.578  0.3576  0.1124 -1.0589
11747TIP3    H256657   5.020   3.366   0.555  0.5178  1.1043  0.8646
11748TIP3   OH256658   5.219   0.792  11.420  0.0180 -0.1194 -0.1384
11748TIP3    H156659   5.199   0.705  11.387 -0.1147 -0.8181  1.6510
11748TIP3    H256660   5.314   0.793  11.428 -0.0123 -0.3036  0.3044
11749TIP3   OH256661   6.024   0.819   1.494 -0.3163  0.9358  1.0097
11749TIP3    H156662   6.035   0.759   1.420 -0.3878 -0.6697  2.2264
11749TIP3    H256663   6.084   0.891   1.476  1.8806 -0.8203  0.7690
11750TIP3   OH256664   6.530   1.325  11.517 -0.1944 -0.1836 -0.2806
11750TIP3    H156665   6.486   1.354  11.438 -1.7253 -0.7014  0.3426
11750TIP3    H256666   6.592   1.395  11.538 -1.0989  0.8285 -0.8952
11751TIP3   OH256667   5.243   0.487   0.557 -0.2357  1.1377 -0.2865
11751TIP3    H156668   5.203   0.488   0.644 -0.7041 -0.8936 -0.4430
11751TIP3    H256669   5.285   0.573   0.550  0.6573  1.0196  2.3284
11752TIP3   OH256670   4.471   5.632  16.299  0.1363  0.1120  0.2666
11752TIP3    H156671   4.415   5.579  16.355  1.2115 -2.1176 -0.6423
11752TIP3    H256672   4.426   5.633  16.214  0.7292 -0.4737 -0.0670
11753TIP3   OH256673   4.468   4.667   0.390  0.3119 -0.4824 -0.2811
11753TIP3    H156674   4.392   4.648   0.335  0.2243 -1.4468  0.1355
11753TIP3    H256675   4.499   4.753   0.361  1.2004 -1.5617 -2.9005
11754TIP3   OH256676   6.070   1.679  12.651 -0.5259  0.1547 -0.0914
11754TIP3    H156677   5.995   1.637  12.692  0.6628 -0.5551  1.4317
11754TIP3    H256678   6.138   1.612  12.651  0.1926  0.8467 -1.2476
11755TIP3   OH256679   4.372   0.687   2.233  0.1033  0.2216 -0.1700
11755TIP3    H156680   4.436   0.704   2.302 -0.1255  0.4846 -0.0193
11755TIP3    H256681   4.382   0.594   2.213 -1.4360 -0.4719  1.9028
11756TIP3   OH256682   1.358   0.019   3.530 -0.7768 -0.4196  0.3847
11756TIP3    H156683   1.405   0.102   3.530 -1.1234 -0.1956  2.1905
11756TIP3    H256684   1.319   0.013   3.617 -2.5382 -1.4910 -0.4366
11757TIP3   OH256685   5.717   0.952   5.714 -0.5415 -0.2126  0.1847
11757TIP3    H156686   5.710   0.859   5.736  0.4114 -0.3898 -0.2359
11757TIP3    H256687   5.747   0.994   5.795 -1.1336 -0.2369  0.4237
11758TIP3   OH256688   0.837   3.487  11.003  0.9389 -0.7944 -0.0687
11758TIP3    H156689   0.773   3.499  10.932 -1.1350 -0.2845  1.7570
11758TIP3    H256690   0.920   3.517  10.967 -0.6068  2.3237 -1.3804
11759TIP3   OH256691   6.450   2.647   4.651 -0.6297  0.0606  0.3795
11759TIP3    H156692   6.413   2.650   4.739 -0.4364  0.3609  0.4518
11759TIP3    H256693   6.526   2.589   4.659  0.1198  1.0499  0.6959
11760TIP3   OH256694   1.228   4.858   1.263 -0.0422  0.6910  0.3382
11760TIP3    H156695   1.317   4.853   1.299  0.2576  1.9197 -0.1780
11760TIP3    H256696   1.205   4.951   1.271 -0.9672  0.5178 -0.2793
11761TIP3   OH256697   5.292   1.724  12.285  0.6955 -0.3118 -0.5577
11761TIP3    H156698   5.228   1.693  12.350  0.6368 -0.1406 -0.5332
11761TIP3    H256699   5.279   1.818  12.282  0.9947 -0.2659 -0.4998
11762TIP3   OH256700   3.098   2.486  15.923 -0.1232 -0.0206  0.6877
11762TIP3    H156701   3.071   2.515  15.836 -1.2299 -1.6088  0.4622
11762TIP3    H256702   3.017   2.480  15.974  0.3876 -0.1576  1.5102
11763TIP3   OH256703   4.075   4.970  10.170  0.0499 -0.9274  0.2567
11763TIP3    H156704   4.056   4.887  10.126  2.5858 -0.2340 -2.4790
11763TIP3    H256705   4.121   4.944  10.250 -0.4596 -2.1543  0.1851
11764TIP3   OH256706   3.225   0.257   4.563  0.2746 -0.4297  0.0099
11764TIP3    H156707   3.161   0.290   4.626  1.4711 -0.7956  1.4624
11764TIP3    H256708   3.239   0.165   4.588  2.4821  0.0421  0.7327
11765TIP3   OH256709   3.665   5.442  11.937  0.0869 -0.1671 -0.0278
11765TIP3    H156710   3.598   5.394  11.889 -1.2951  1.3657  0.2422
11765TIP3    H256711   3.617   5.513  11.980  1.4810 -0.6021  2.4291
11766TIP3   OH256712   3.255   3.411  15.865  0.4388  0.6598 -0.6066
11766TIP3    H156713   3.339   3.370  15.843 -0.6146 -1.3410 -1.1735
11766TIP3    H256714   3.206   3.412  15.783 -1.5205 -1.8855  0.3742
11767TIP3   OH256715   3.279   4.089  13.270 -0.7915 -0.4157 -0.4546
11767TIP3    H156716   3.256   4.164  13.215  0.3125 -0.6463 -1.2693
11767TIP3    H256717   3.336   4.126  13.338  0.9388 -0.6719 -1.6762
11768TIP3   OH256718   2.022   3.211  15.032 -0.0165  0.0928 -0.0111
11768TIP3    H156719   2.085   3.150  14.993 -1.2361 -0.8694 -0.5436
11768TIP3    H256720   1.978   3.159  15.099 -3.0862 -0.6033 -2.3766
11769TIP3   OH256721   2.610   4.126  17.171 -0.6923 -0.0362 -0.4483
11769TIP3    H156722   2.551   4.056  17.144 -0.9234 -0.8541  1.9748
11769TIP3    H256723   2.563   4.207  17.150 -1.3642 -0.6125 -1.2367
11770TIP3   OH256724   1.515   2.594   1.486 -0.5766  0.4131  0.3537
11770TIP3    H156725   1.512   2.535   1.410  0.5774  1.7515 -0.7897
11770TIP3    H256726   1.577   2.552   1.546  0.6958  0.7166 -0.7122
11771TIP3   OH256727   1.470   5.363   4.185 -0.2390 -0.0882 -0.5037
11771TIP3    H156728   1.380   5.363   4.216 -0.4398 -0.8969 -1.0477
11771TIP3    H256729   1.478   5.443   4.133 -1.0507 -0.6543 -1.5453
11772TIP3   OH256730   0.857   2.241   5.797 -0.1600 -0.5126  0.0117
11772TIP3    H156731   0.841   2.250   5.891 -2.5074 -0.0584 -0.3837
11772TIP3    H256732   0.786   2.186   5.765  1.8684 -2.6391 -1.1984
11773TIP3   OH256733   1.017   0.602   5.278 -0.8183 -0.1595 -0.3664
11773TIP3    H156734   1.102   0.640   5.257 -0.2761 -1.6514 -0.9377
11773TIP3    H256735   1.018   0.591   5.373 -0.3581 -0.2428 -0.3822
11774TIP3   OH256736   1.078   6.502  13.605  0.6098  0.5082  0.4984
11774TIP3    H156737   1.151   6.441  13.611  0.3755  0.0567 -1.0035
11774TIP3    H256738   1.020   6.477  13.678 -0.8244 -2.9282 -1.5670
11775TIP3   OH256739   1.756   0.263   0.454 -0.1889 -0.9442  0.6576
11775TIP3    H156740   1.661   0.275   0.448 -0.3325 -2.1917  0.2226
11775TIP3    H256741   1.791   0.323   0.388 -0.7594 -1.5148 -0.1855
11776TIP3   OH256742   5.245   5.332   5.870 -0.5339  0.1662  0.0164
11776TIP3    H156743   5.339   5.348   5.862 -0.6940  1.3898  0.4860
11776TIP3    H256744   5.236   5.286   5.953 -0.4950  1.4197  0.7340
11777TIP3   OH256745   1.046   4.190   0.092 -0.4252 -0.4608  0.1168
11777TIP3    H156746   1.013   4.103   0.116 -1.0372 -0.7390 -1.6314
11777TIP3    H256747   1.113   4.173   0.026 -1.8306  0.4318 -1.6254
11778TIP3   OH256748   5.854   1.865  14.134 -0.0570  0.1525  0.6605
11778TIP3    H156749   5.946   1.839  14.128  0.3860  1.7610 -0.3326
11778TIP3    H256750   5.841   1.885  14.227  1.6076  3.0596  0.3905
11779TIP3   OH256751   3.250   2.717   1.701 -0.3852  0.0054 -0.1868
11779TIP3    H156752   3.239   2.622   1.704 -1.3519  0.0891 -0.7964
11779TIP3    H256753   3.293   2.734   1.617 -1.8832  0.2498 -0.9204
11780TIP3   OH256754   4.960   0.999  10.880  0.0392  0.2133  0.5198
11780TIP3    H156755   4.992   0.912  10.906  1.5409  1.7479  4.8683
11780TIP3    H256756   4.868   0.986  10.858  0.5927 -2.6463 -0.4379
11781TIP3   OH256757   6.625   1.522   0.420  0.9770  0.1164  0.1223
11781TIP3    H156758   6.660   1.434   0.407  0.2572  0.0550 -1.7152
11781TIP3    H256759   6.574   1.516   0.501  1.4815 -0.9661  0.3738
11782TIP3   OH256760   6.092   1.697   2.129  0.7056 -0.0573 -0.6560
11782TIP3    H156761   6.078   1.639   2.203 -0.2782  1.5190  0.4682
11782TIP3    H256762   6.179   1.735   2.143  0.3974  0.4661 -0.1198
11783TIP3   OH256763   0.284   2.303  11.324  0.2196  0.2554 -0.0038
11783TIP3    H156764   0.206   2.326  11.375  0.8160  1.9551  0.2089
11783TIP3    H256765   0.342   2.260  11.387 -0.5185 -1.0285 -0.1671
11784TIP3   OH256766   4.710   5.927   2.464  0.1236 -0.2480 -0.3699
11784TIP3    H156767   4.781   5.978   2.425  0.6052 -0.5975  0.0521
11784TIP3    H256768   4.743   5.838   2.468 -0.0674 -0.2852  0.4822
11785TIP3   OH256769   2.949   1.211  11.105  0.3276  0.8106 -0.6637
11785TIP3    H156770   3.034   1.169  11.120  0.6131  1.0816 -1.4431
11785TIP3    H256771   2.920   1.175  11.021 -0.5396  0.3956 -0.2008
11786TIP3   OH256772   0.981   3.641   2.102  0.0583  0.2225 -0.3889
11786TIP3    H156773   1.062   3.598   2.131 -1.6260 -1.9351  1.4936
11786TIP3    H256774   0.964   3.708   2.168  0.4682  0.9239 -0.9837
11787TIP3   OH256775   3.037   5.896  13.790 -0.2541 -0.0198 -0.0573
11787TIP3    H156776   3.053   5.967  13.852 -0.0332  0.8780 -1.1025
11787TIP3    H256777   3.102   5.910  13.720 -1.5284 -0.0177 -1.2889
11788TIP3   OH256778   6.607   5.562  16.146 -0.2898 -0.4865  0.4900
11788TIP3    H156779   6.648   5.637  16.104 -2.2166  0.9158  0.9817
11788TIP3    H256780   6.675   5.527  16.204  0.2551  1.7503  1.3094
11789TIP3   OH256781   6.125   3.179   6.328 -0.5715 -0.0872  0.2658
11789TIP3    H156782   6.045   3.132   6.350 -1.1917  0.8695  0.1051
11789TIP3    H256783   6.186   3.156   6.399 -0.5092 -1.8814 -0.3132
11790TIP3   OH256784   4.525   2.976   6.102 -0.3558  0.2126 -0.0242
11790TIP3    H156785   4.434   2.948   6.100 -0.2072 -0.3355  0.4454
11790TIP3    H256786   4.545   2.986   6.195  0.3955 -0.8087 -0.0597
11791TIP3   OH256787   1.263   0.683   0.869 -0.2539  0.5367 -1.1212
11791TIP3    H156788   1.357   0.699   0.869  0.1194 -1.3863 -1.0355
11791TIP3    H256789   1.231   0.723   0.949  0.9970 -1.1858  0.3073
11792TIP3   OH256790   6.555   0.562   4.407 -0.0569 -0.0297  0.0294
11792TIP3    H156791   6.525   0.633   4.350 -2.0944  0.0635  1.0900
11792TIP3    H256792   6.649   0.556   4.392 -0.1998  1.4024 -1.7276
11793TIP3   OH256793   5.808   2.296   2.497  0.7959  0.2262  0.0214
11793TIP3    H156794   5.748   2.242   2.447  0.2268 -0.6017  1.5313
11793TIP3    H256795   5.885   2.241   2.511  0.6155  0.1422  0.7352
11794TIP3   OH256796   4.007   1.389   3.978 -0.7924 -0.0599 -0.1052
11794TIP3    H156797   4.025   1.309   3.929  1.5990  1.1963 -1.5168
11794TIP3    H256798   4.050   1.376   4.062 -0.2644 -0.2192 -0.3933
11795TIP3   OH256799   0.316   6.573   0.184  0.1386 -0.3092  0.2455
11795TIP3    H156800   0.398   6.622   0.190  0.0058  0.2018 -1.5862
11795TIP3    H256801   0.342   6.486   0.154  0.1162 -0.5420  0.8881
11796TIP3   OH256802   0.456   1.963   2.755  0.8114 -0.0083  0.2470
11796TIP3    H156803   0.429   2.034   2.813 -0.3563 -0.3596  0.1507
11796TIP3    H256804   0.445   1.998   2.667  2.1454  0.3645  0.2086
11797TIP3   OH256805   4.438   0.819   6.537 -0.2659  0.4340  0.3148
11797TIP3    H156806   4.493   0.882   6.584 -0.2718  0.0394  0.8580
11797TIP3    H256807   4.489   0.738   6.536 -0.1972  0.4762 -0.5068
11798TIP3   OH256808   6.739   3.819  15.344  0.1880 -1.1371  0.2157
11798TIP3    H156809   6.792   3.831  15.423  0.1567  1.6466 -0.0841
11798TIP3    H256810   6.793   3.855  15.273 -1.5894  0.8074 -0.2524
11799TIP3   OH256811   4.054   3.641   5.752 -0.4077  0.4256 -0.3679
11799TIP3    H156812   3.973   3.605   5.716  0.2647 -0.8139 -0.7200
11799TIP3    H256813   4.062   3.728   5.713 -0.5998 -0.1986 -1.8549
11800TIP3   OH256814   4.749   5.820  12.982 -0.6688  0.1632  0.5869
11800TIP3    H156815   4.741   5.795  12.890 -0.4527 -0.3161  0.6959
11800TIP3    H256816   4.659   5.826  13.014 -0.7389  0.1568  0.3900
11801TIP3   OH256817   4.613   1.620  14.227 -0.4879  0.5268  0.0647
11801TIP3    H156818   4.668   1.690  14.192 -1.0690  1.8369  1.6720
11801TIP3    H256819   4.601   1.642  14.319 -2.5640 -0.4526  0.0921
11802TIP3   OH256820   4.412   1.609  12.909 -0.0676 -0.4695 -0.1660
11802TIP3    H156821   4.371   1.589  12.993 -0.1635  0.1337 -0.0629
11802TIP3    H256822   4.421   1.524  12.865 -1.5493 -0.6053 -0.2516
11803TIP3   OH256823   3.869   2.565   4.347 -0.6521 -0.4387  0.2807
11803TIP3    H156824   3.830   2.651   4.333  1.2249  0.2497 -1.0063
11803TIP3    H256825   3.851   2.517   4.266 -0.5781 -0.8254  0.4881
11804TIP3   OH256826   0.014   0.115  16.958  0.4429  0.0169  0.2621
11804TIP3    H156827   0.098   0.159  16.951 -0.1701  1.2298  0.0947
11804TIP3    H256828  -0.011   0.124  17.050 -0.3258  1.3403 -0.0385
11805TIP3   OH256829   2.649   2.434  15.778  0.3323  0.5428 -0.5033
11805TIP3    H156830   2.718   2.380  15.738  0.0940  0.5581 -0.9320
11805TIP3    H256831   2.568   2.388  15.758  0.2164  0.5155  0.0233
11806TIP3   OH256832   2.886   1.550   4.723  0.4429  0.1764  0.1464
11806TIP3    H156833   2.791   1.541   4.727  0.5434 -0.9992  0.0709
11806TIP3    H256834   2.913   1.494   4.651  1.2338  0.2080  0.4091
11807TIP3   OH256835   3.401   5.350  13.667 -0.1329  0.1051 -0.5980
11807TIP3    H156836   3.329   5.360  13.728 -0.9912 -0.7002 -1.4467
11807TIP3    H256837   3.399   5.428  13.612 -1.5397 -0.7257 -1.7971
11808TIP3   OH256838   2.883   4.159   5.332 -0.3165  0.4060 -0.1319
11808TIP3    H156839   2.798   4.153   5.375  0.4723  0.4888  1.5202
11808TIP3    H256840   2.906   4.069   5.310 -1.2696  0.4803 -1.5487
11809TIP3   OH256841   5.510   4.149   5.070 -0.1276 -0.5537 -0.3956
11809TIP3    H156842   5.545   4.119   4.986 -1.0559 -0.9355 -0.6514
11809TIP3    H256843   5.567   4.107   5.135 -0.1888 -1.2999 -0.8049
11810TIP3   OH256844   0.609   2.312   0.721 -0.1171  0.1323  0.0569
11810TIP3    H156845   0.613   2.313   0.625  1.4385  0.2379  0.0844
11810TIP3    H256846   0.559   2.390   0.744  1.3626  1.3530 -0.6650
11811TIP3   OH256847   4.926   5.017  12.980 -0.1860 -0.0643 -0.0353
11811TIP3    H156848   4.850   5.068  13.007 -1.0266 -0.5435 -1.4144
11811TIP3    H256849   4.976   5.075  12.923  0.3213  0.1318  0.5951
11812TIP3   OH256850   6.285   2.262  17.160  0.8801  0.5206 -0.2202
11812TIP3    H156851   6.196   2.238  17.134  1.0344 -1.5386  0.9681
11812TIP3    H256852   6.278   2.279  17.254  1.6266  1.0173 -0.2504
11813TIP3   OH256853   5.465   1.782  17.180  0.0308  0.2356  0.5192
11813TIP3    H156854   5.425   1.716  17.236 -0.8438 -0.6000 -1.0154
11813TIP3    H256855   5.556   1.753  17.170  0.1334  0.2781  1.3206
11814TIP3   OH256856   0.916   6.490   5.243  0.0746  0.5378  0.3323
11814TIP3    H156857   0.902   6.478   5.149 -1.6624 -0.3613  0.6799
11814TIP3    H256858   0.988   6.554   5.248  0.6289  0.1290 -1.5858
11815TIP3   OH256859   2.900   2.092  10.868 -0.1834 -0.2565  0.1542
11815TIP3    H156860   2.966   2.066  10.803  0.5687  1.3200  0.2382
11815TIP3    H256861   2.828   2.129  10.816  0.9118  2.0994  0.1725
11816TIP3   OH256862   5.614   5.130  12.409  0.2287  0.3809  0.5324
11816TIP3    H156863   5.633   5.199  12.345 -1.1674  1.0070  0.7585
11816TIP3    H256864   5.669   5.152  12.484  1.0713  0.2576 -0.0378
11817TIP3   OH256865   1.869   2.288   1.397 -0.3212  0.5830 -0.1605
11817TIP3    H156866   1.899   2.228   1.330 -2.0437 -1.3555  0.6983
11817TIP3    H256867   1.948   2.310   1.448  0.1100 -2.6205  0.7497
11818TIP3   OH256868   1.496   0.269  15.300  0.7063  0.5923 -0.3297
11818TIP3    H156869   1.495   0.233  15.389  0.4953  0.1915 -0.4907
11818TIP3    H256870   1.443   0.207  15.249  1.0785  0.6555 -0.7951
11819TIP3   OH256871   1.903   1.564   1.175  0.1364 -0.0032  0.3434
11819TIP3    H156872   1.914   1.605   1.261 -0.2983 -0.5575  0.6684
11819TIP3    H256873   1.992   1.551   1.143  0.3359 -0.8168  1.2045
11820TIP3   OH256874   0.572   6.145   3.799  0.3714  0.5475 -0.3093
11820TIP3    H156875   0.604   6.209   3.862 -0.4910  0.9992 -0.3121
11820TIP3    H256876   0.580   6.188   3.714  0.4668  0.3750 -0.3890
11821TIP3   OH256877   0.845   4.143   5.242 -0.5553 -0.0754  0.1344
11821TIP3    H156878   0.889   4.081   5.301 -1.2312 -0.5043  0.2081
11821TIP3    H256879   0.826   4.091   5.164 -0.0852  0.3659 -0.2827
11822TIP3   OH256880   5.796   6.222   2.805  0.4184 -0.1643  0.1102
11822TIP3    H156881   5.852   6.151   2.773 -0.3410 -0.2019 -1.2077
11822TIP3    H256882   5.800   6.214   2.900 -0.3981 -2.5854  0.0043
11823TIP3   OH256883   4.539   6.655  13.089  0.1082 -0.1883  0.4398
11823TIP3    H156884   4.622   6.659  13.041  0.1079  0.5004  0.4859
11823TIP3    H256885   4.485   6.724  13.051 -0.7028 -1.0652 -0.0429
11824TIP3   OH256886   2.242   0.424   3.276 -0.5052  0.2273 -0.3024
11824TIP3    H156887   2.286   0.505   3.251 -0.7613  0.7653  0.9276
11824TIP3    H256888   2.312   0.369   3.311 -0.5284  0.4136  0.0412
11825TIP3   OH256889   0.995   1.457  16.926 -0.4633 -0.4039  0.4240
11825TIP3    H156890   1.071   1.513  16.940 -1.4149  1.0827 -0.1334
11825TIP3    H256891   0.975   1.421  17.012  0.7787 -0.7203  0.5998
11826TIP3   OH256892   6.334   1.589   5.071  0.1652 -0.3296 -0.1339
11826TIP3    H156893   6.293   1.539   5.142 -0.1716 -0.5045 -0.4439
11826TIP3    H256894   6.262   1.643   5.037  0.1032 -0.8863 -0.9063
11827TIP3   OH256895   1.581   1.596  14.647  0.3626  0.3100  0.6172
11827TIP3    H156896   1.591   1.540  14.724  1.1900  1.1839  1.1771
11827TIP3    H256897   1.514   1.553  14.595  2.8848 -2.7985 -0.3964
11828TIP3   OH256898   5.837   5.240  15.278 -0.6067 -0.6083 -0.0816
11828TIP3    H156899   5.867   5.151  15.258  0.8586 -0.0192 -0.6149
11828TIP3    H256900   5.879   5.261  15.361  0.0125  0.0048 -0.5379
11829TIP3   OH256901   0.891   4.101  16.459  0.4798  0.0029 -0.0815
11829TIP3    H156902   0.830   4.127  16.528  0.4511  0.3636 -0.2413
11829TIP3    H256903   0.935   4.024  16.494 -0.3881 -0.5351 -0.1417
11830TIP3   OH256904   2.883   5.033   1.856 -0.1730  0.0340  0.1405
11830TIP3    H156905   2.901   5.099   1.789 -0.6944  0.1645  0.1234
11830TIP3    H256906   2.894   4.949   1.812  2.0240  0.0649  0.5468
11831TIP3   OH256907   2.387   5.856   4.128  0.6831 -0.0302  0.0194
11831TIP3    H156908   2.401   5.950   4.117  0.7442  0.0469  0.7301
11831TIP3    H256909   2.316   5.835   4.066 -0.3894  0.7734  0.9255
11832TIP3   OH256910   2.165   2.706  17.103  0.0868 -0.0132  0.2252
11832TIP3    H156911   2.245   2.750  17.074 -1.0217  1.5745 -0.5878
11832TIP3    H256912   2.126   2.766  17.166  0.0039 -1.2392  1.3978
11833TIP3   OH256913   1.941   3.819  15.253  0.1495 -0.1551  0.6066
11833TIP3    H156914   1.866   3.787  15.302 -1.1658  1.4882 -0.2421
11833TIP3    H256915   1.906   3.842  15.167  2.0936 -1.4997 -0.6345
11834TIP3   OH256916   3.237   5.136   0.746  0.1576 -0.6856  0.3681
11834TIP3    H156917   3.187   5.070   0.795 -1.6454 -0.5015 -1.1129
11834TIP3    H256918   3.186   5.217   0.756 -0.4181 -0.6871 -1.8972
11835TIP3   OH256919   5.230   0.694   6.376  0.2895 -0.0552  0.1086
11835TIP3    H156920   5.290   0.740   6.318 -0.6812  1.0198 -0.0774
11835TIP3    H256921   5.249   0.730   6.463 -0.9890  1.3011 -0.1452
11836TIP3   OH256922   5.030   5.663   0.010  0.0095  0.2212 -0.2404
11836TIP3    H156923   5.012   5.725  -0.060 -0.2973  0.9269  0.4400
11836TIP3    H256924   5.123   5.674   0.028  0.0240  0.2627 -0.3409
11837TIP3   OH256925   2.300   0.001   3.489  0.5915 -0.0506  0.2059
11837TIP3    H156926   2.279   0.092   3.511  2.7559  0.8021 -0.9880
11837TIP3    H256927   2.217  -0.036   3.457 -0.2560  1.5503  0.4553
11838TIP3   OH256928   3.815   2.473   1.026  0.2414 -0.2405  0.6471
11838TIP3    H156929   3.837   2.566   1.016 -1.4089  0.1905  0.7564
11838TIP3    H256930   3.774   2.450   0.942 -2.5718  0.1273  1.8150
11839TIP3   OH256931   6.623   1.769  16.875 -0.1725  0.4995 -0.1991
11839TIP3    H156932   6.641   1.839  16.938  1.4294  1.1040 -1.2497
11839TIP3    H256933   6.709   1.732  16.856 -0.6396  0.1721 -1.8221
11840TIP3   OH256934   3.086   3.898  13.192  0.2219 -0.0656 -0.5848
11840TIP3    H156935   3.123   3.973  13.238  0.9349  0.2315 -1.5856
11840TIP3    H256936   3.072   3.930  13.103 -1.3929 -0.5311 -0.5184
11841TIP3   OH256937   3.823   1.070   0.710  0.1305  0.1336 -0.0903
11841TIP3    H156938   3.881   1.142   0.735 -1.5655  1.8656 -0.8501
11841TIP3    H256939   3.877   0.991   0.716  2.1404  1.4992  0.5200
11842TIP3   OH256940   6.425   6.082  13.430  0.2531 -0.3188 -0.0152
11842TIP3    H156941   6.474   6.016  13.479  1.2379 -0.0391 -0.5977
11842TIP3    H256942   6.452   6.165  13.469 -1.1434 -0.2364  0.8615
11843TIP3   OH256943   5.957   0.331  12.088  0.4714 -0.0283 -0.4574
11843TIP3    H156944   5.940   0.267  12.018  0.3048 -1.2375  0.6459
11843TIP3    H256945   6.045   0.364  12.069  0.7278 -0.8948 -0.8278
11844TIP3   OH256946   0.014   4.828  16.889 -0.0817  0.1422  0.0678
11844TIP3    H156947   0.094   4.858  16.931  0.3524  0.5058 -0.9731
11844TIP3    H256948   0.024   4.855  16.797 -1.0651 -0.4634 -0.2315
11845TIP3   OH256949   1.034   0.870   3.443  0.2712 -0.0915 -0.3413
11845TIP3    H156950   1.070   0.923   3.515  0.3157 -1.3097  0.5651
11845TIP3    H256951   0.994   0.934   3.384  0.9864  1.0148  0.3241
11846TIP3   OH256952   3.296   6.767   3.072  0.7255 -0.1899  0.6259
11846TIP3    H156953   3.352   6.740   2.999  2.5472  0.6760  1.6144
11846TIP3    H256954   3.269   6.685   3.113 -1.9322 -0.8194 -2.0244
11847TIP3   OH256955   3.122   3.468   1.521 -0.6002 -0.1148  0.5042
11847TIP3    H156956   3.162   3.474   1.607  1.2655 -1.5293 -0.1768
11847TIP3    H256957   3.057   3.398   1.529  1.2548 -1.9595  0.2547
11848TIP3   OH256958   6.660   2.728   0.713 -0.0427  0.0115  0.1037
11848TIP3    H156959   6.745   2.721   0.670 -0.3226  1.8054 -0.8818
11848TIP3    H256960   6.641   2.822   0.713 -3.1517 -0.4514 -2.0830
11849TIP3   OH256961   3.620   5.545   5.539 -0.2730 -0.3717  0.1558
11849TIP3    H156962   3.682   5.550   5.612  1.1331 -2.6129 -0.7685
11849TIP3    H256963   3.534   5.554   5.580  0.3692 -2.9610  2.3882
11850TIP3   OH256964   6.068   1.371  17.094 -0.5335  0.0796 -0.4870
11850TIP3    H156965   6.070   1.449  17.038 -1.4533 -0.7131 -1.7001
11850TIP3    H256966   6.121   1.307  17.047  0.0428 -0.0957  0.3938
11851TIP3   OH256967   0.406   5.184   5.448 -0.2815 -0.0077 -0.0627
11851TIP3    H156968   0.411   5.124   5.373 -0.9014 -0.1684  0.0136
11851TIP3    H256969   0.468   5.253   5.427 -1.3010  0.5872 -1.3258
11852TIP3   OH256970   4.983   0.853  16.484  0.2597  0.1183 -0.7224
11852TIP3    H156971   4.968   0.909  16.560  0.2531  0.2815 -0.8418
11852TIP3    H256972   4.995   0.915  16.412  0.1636 -0.0355 -0.8712
11853TIP3   OH256973   1.952   0.955  13.050  0.3195 -0.2973 -0.0723
11853TIP3    H156974   2.020   1.012  13.015  1.5262 -1.5046  0.2574
11853TIP3    H256975   1.995   0.904  13.117 -1.1464 -0.4530  0.7970
11854TIP3   OH256976   5.535   4.654  13.392 -0.2854 -0.5377 -0.2409
11854TIP3    H156977   5.449   4.684  13.420 -0.8313 -1.9777 -0.3080
11854TIP3    H256978   5.539   4.674  13.299 -0.8828 -1.1861 -0.4132
11855TIP3   OH256979   3.717   1.328  15.063  0.1398 -0.0175  0.1407
11855TIP3    H156980   3.742   1.315  14.971 -0.0529 -0.4654  0.1503
11855TIP3    H256981   3.801   1.328  15.110  0.1811 -0.8238  0.0883
11856TIP3   OH256982   2.091   0.560  11.815 -0.3126 -0.1203 -0.3629
11856TIP3    H156983   2.107   0.529  11.726 -0.8593 -0.6528 -0.2804
11856TIP3    H256984   2.066   0.482  11.863  0.0777  0.1456  0.2905
11857TIP3   OH256985   3.132   1.556  14.727  1.0923  0.2777 -0.3894
11857TIP3    H156986   3.040   1.579  14.711  1.2238  0.6609 -0.5839
11857TIP3    H256987   3.179   1.639  14.722  1.5054  0.0283 -0.6766
11858TIP3   OH256988   4.144   3.286  13.938  0.5012  0.3326 -0.0031
11858TIP3    H156989   4.216   3.236  13.978  0.5491  0.4768  0.0936
11858TIP3    H256990   4.146   3.262  13.845  0.1640 -0.2801  0.1414
11859TIP3   OH256991   2.932   2.803  12.178  0.0958  0.4174 -0.0147
11859TIP3    H156992   2.858   2.863  12.166 -1.2287 -0.6941  2.0422
11859TIP3    H256993   2.983   2.841  12.249  0.3882  0.1405 -0.0766
11860TIP3   OH256994   2.940   2.000  12.880  0.6877  0.4478  0.2466
11860TIP3    H156995   2.858   2.033  12.845  0.0850  1.2683  2.2904
11860TIP3    H256996   2.935   1.905  12.870  0.9294  0.6576 -2.5375
11861TIP3   OH256997   2.717   4.997   6.578 -0.2941 -0.0912  0.4050
11861TIP3    H156998   2.651   4.929   6.574 -1.3025  0.9094 -2.1335
11861TIP3    H256999   2.670   5.076   6.605  0.2466  0.2304  0.4345
11862TIP3   OH257000   2.874   2.624   5.542  0.2932 -0.4482  0.3839
11862TIP3    H157001   2.854   2.712   5.574  0.3489  0.0763 -0.9909
11862TIP3    H257002   2.959   2.604   5.581  0.0822 -0.0781  1.0554
11863TIP3   OH257003   0.455   1.991   2.470 -0.5765  0.0407  0.3307
11863TIP3    H157004   0.380   2.029   2.424  0.4419  1.3710 -0.2985
11863TIP3    H257005   0.513   1.961   2.400  0.7197  1.5357  0.7302
11864TIP3   OH257006   1.272   0.059  16.285 -0.4048 -0.4475  0.8702
11864TIP3    H157007   1.322  -0.007  16.237 -0.1448  0.3100  0.0955
11864TIP3    H257008   1.207   0.090  16.223 -1.2918 -0.8027  1.6033
11865TIP3   OH257009   4.294   5.889   1.720 -0.0878 -0.5227 -0.0381
11865TIP3    H157010   4.210   5.924   1.749 -0.1993 -0.5036 -0.3794
11865TIP3    H257011   4.291   5.796   1.744  0.2859 -0.2798  1.0426
11866TIP3   OH257012   4.147   1.995  15.818  0.0209  0.1578 -0.5885
11866TIP3    H157013   4.106   2.031  15.896 -0.4835 -0.1093 -0.7244
11866TIP3    H257014   4.140   1.900  15.829  1.5676  0.0731 -0.1104
11867TIP3   OH257015   2.776   4.828  14.382 -0.0177  0.4776  0.8402
11867TIP3    H157016   2.742   4.917  14.375  1.1878  1.0017  1.4784
11867TIP3    H257017   2.814   4.809  14.297 -0.5630  0.4315  0.5980
11868TIP3   OH257018   0.974   5.451  12.082 -0.3056 -0.3822  0.1119
11868TIP3    H157019   1.038   5.405  12.136  0.3689  1.1465  0.6768
11868TIP3    H257020   0.889   5.424  12.116 -0.0558 -2.8261 -0.9565
11869TIP3   OH257021   2.969   4.181  13.953 -0.6728  0.2071 -0.4700
11869TIP3    H157022   2.881   4.175  13.989 -0.8970 -1.3024 -1.1770
11869TIP3    H257023   3.014   4.103  13.985 -0.3312 -0.2494 -1.9558
11870TIP3   OH257024   0.589   1.483  14.993 -0.0819 -0.1439  0.1603
11870TIP3    H157025   0.552   1.428  15.062  0.8139 -0.1398  0.6684
11870TIP3    H257026   0.663   1.431  14.959 -0.4674 -0.1115 -0.7427
11871TIP3   OH257027   5.578   3.188  11.685 -0.0342  0.0740  0.3276
11871TIP3    H157028   5.517   3.259  11.707 -0.1288  0.5501 -1.3309
11871TIP3    H257029   5.621   3.218  11.605  1.9711 -0.5237  1.1330
11872TIP3   OH257030   3.284   5.260   1.658  0.5630 -0.4606 -0.4615
11872TIP3    H157031   3.365   5.276   1.707  0.0352  0.2894  0.1858
11872TIP3    H257032   3.314   5.236   1.570  1.5314 -2.0512  0.2617
11873TIP3   OH257033   6.005   0.743   5.097  0.4528  0.1911  0.3254
11873TIP3    H157034   5.943   0.711   5.033 -1.2577  2.7026  0.5850
11873TIP3    H257035   6.086   0.697   5.077 -0.6078 -0.7760 -2.1522
11874TIP3   OH257036   5.829   0.739   1.212  0.6058  0.6309 -0.0954
11874TIP3    H157037   5.796   0.697   1.133 -0.4778  0.3207  0.5006
11874TIP3    H257038   5.838   0.667   1.275  3.2176  0.5454 -0.4346
11875TIP3   OH257039   1.391   4.787   4.940  0.3827 -0.3439 -0.3359
11875TIP3    H157040   1.304   4.756   4.914 -1.7296  0.5941  4.4891
11875TIP3    H257041   1.389   4.881   4.920 -0.6508  0.0824  1.5122
11876TIP3   OH257042   0.787   3.948   1.468 -0.0084 -0.0570  0.0118
11876TIP3    H157043   0.805   3.879   1.531 -1.1074 -0.6711 -0.3216
11876TIP3    H257044   0.734   4.011   1.516 -1.7724 -1.0487 -0.5444
11877TIP3   OH257045   1.368   1.844  16.207  0.3095 -0.5760  0.5912
11877TIP3    H157046   1.275   1.858  16.191  0.1896 -1.8872  0.0417
11877TIP3    H257047   1.370   1.784  16.281  0.7399 -0.3575  0.7610
11878TIP3   OH257048   5.413   4.484   4.682  0.2433 -0.0428 -0.4218
11878TIP3    H157049   5.448   4.456   4.766 -1.7448  0.7933  0.7485
11878TIP3    H257050   5.457   4.568   4.665  3.3276 -1.8071 -2.0777
11879TIP3   OH257051   5.806   0.826   0.741  0.7195 -0.4272 -0.3368
11879TIP3    H157052   5.723   0.870   0.722  0.0909 -1.0148  0.9195
11879TIP3    H257053   5.858   0.892   0.787 -0.4453 -1.0818  2.0731
11880TIP3   OH257054   2.821   2.043   1.559 -0.2057 -0.3830 -0.1170
11880TIP3    H157055   2.732   2.008   1.568  0.1775 -1.2664  0.4093
11880TIP3    H257056   2.809   2.137   1.546 -1.1677 -0.0104  2.7229
11881TIP3   OH257057   2.670   1.531   5.368  0.1375  0.2796  0.0685
11881TIP3    H157058   2.704   1.537   5.279 -2.2335 -2.2011 -1.1746
11881TIP3    H257059   2.706   1.449   5.401  3.0728  2.3571  2.5382
11882TIP3   OH257060   4.910   0.597  16.596  0.4693 -0.4399 -0.5437
11882TIP3    H157061   4.870   0.650  16.527 -2.0417  0.5488  1.4765
11882TIP3    H257062   4.967   0.658  16.643  0.1833 -0.4020 -0.2383
11883TIP3   OH257063   0.625   6.219  12.244 -0.3100  0.1048  0.5799
11883TIP3    H157064   0.598   6.132  12.214  1.8241 -0.5148  0.2713
11883TIP3    H257065   0.617   6.274  12.166 -3.9858  0.9043  1.3085
11884TIP3   OH257066   3.993   3.491   3.413 -0.1764 -0.2318 -0.8791
11884TIP3    H157067   3.939   3.434   3.467  0.2787 -2.4445 -2.6090
11884TIP3    H257068   3.932   3.554   3.375 -0.7786  0.1618  0.6767
11885TIP3   OH257069   4.085   2.251   4.519  0.0853  0.0368 -0.1853
11885TIP3    H157070   4.040   2.168   4.535 -0.1464 -0.0224 -1.0836
11885TIP3    H257071   4.036   2.315   4.570 -0.0651 -0.2892  0.0836
11886TIP3   OH257072   4.054   4.962  10.612  0.3928  0.1065 -0.3086
11886TIP3    H157073   4.037   4.877  10.573  4.4851 -0.8286 -0.5292
11886TIP3    H257074   4.131   4.995  10.566  1.5787  1.9079  2.6316
11887TIP3   OH257075   0.099   6.569  12.546  0.1282 -0.1867 -0.1773
11887TIP3    H157076   0.169   6.632  12.565 -1.1955  1.2118  0.2996
11887TIP3    H257077   0.100   6.509  12.620  0.7324 -0.0923 -0.1042
11888TIP3   OH257078   0.251   1.196   3.873 -0.5387 -0.6961 -0.0689
11888TIP3    H157079   0.175   1.213   3.818  0.2797  0.0030 -1.0349
11888TIP3    H257080   0.266   1.278   3.920  1.2300  0.1712 -1.9785
11889TIP3   OH257081   0.251   6.266   3.237 -0.8819  0.0823  0.6770
11889TIP3    H157082   0.174   6.234   3.284 -0.9702 -1.0000 -0.1692
11889TIP3    H257083   0.276   6.194   3.179  0.6869  0.4699  0.8291
11890TIP3   OH257084   6.389   4.426  13.232  0.1874 -0.2362 -0.5119
11890TIP3    H157085   6.344   4.511  13.234 -0.8261 -0.7592  0.4525
11890TIP3    H257086   6.367   4.390  13.146 -1.8132 -0.7343  0.1514
11891TIP3   OH257087   3.205   0.130  13.468 -0.0018  0.4373 -0.2674
11891TIP3    H157088   3.214   0.168  13.381 -0.4606 -0.7938 -0.8812
11891TIP3    H257089   3.112   0.114  13.478  0.1624 -0.3813  0.0143
11892TIP3   OH257090   1.890   1.223  16.251  0.3599 -0.2288  0.5912
11892TIP3    H157091   1.931   1.140  16.228  0.3290  0.1659 -1.0341
11892TIP3    H257092   1.884   1.271  16.168  0.7238  1.5513  1.5231
11893TIP3   OH257093   1.505   5.907  14.786 -0.1819  0.0996  0.2875
11893TIP3    H157094   1.516   5.817  14.817  1.9125  0.4926  0.8611
11893TIP3    H257095   1.590   5.948  14.803 -0.7200  1.8609 -1.0355
11894TIP3   OH257096   0.398   0.105   0.394  0.3581 -0.0441  0.0199
11894TIP3    H157097   0.392   0.124   0.300  0.3140  1.2956  0.2707
11894TIP3    H257098   0.321   0.052   0.413  0.7938 -1.0299 -0.8424
11895TIP3   OH257099   0.656   4.767  15.518  0.4670  0.0586 -0.1225
11895TIP3    H157100   0.704   4.850  15.529  1.4874 -0.3452 -1.2487
11895TIP3    H257101   0.564   4.793  15.514  0.8400  1.3083 -1.6271
11896TIP3   OH257102   5.652   2.849  13.413  0.2340  0.4871 -0.0834
11896TIP3    H157103   5.654   2.867  13.319  1.8040  0.7878 -0.0160
11896TIP3    H257104   5.734   2.804  13.431 -0.3920 -0.2467  1.0249
11897TIP3   OH257105   3.249   4.232   5.645  0.1534 -0.1896  0.0635
11897TIP3    H157106   3.158   4.260   5.644  0.2073  0.1791  1.9759
11897TIP3    H257107   3.295   4.299   5.595 -0.3899  0.6159  0.6103
11898TIP3   OH257108   0.970   3.691   3.644  0.8994  0.1514  0.1764
11898TIP3    H157109   1.014   3.635   3.708  1.0425  1.3591  1.1552
11898TIP3    H257110   0.927   3.629   3.584  2.6591 -1.0362  0.0602
11899TIP3   OH257111   6.268   1.451  12.563 -0.2537 -0.3962  0.1445
11899TIP3    H157112   6.278   1.514  12.492  1.0043  0.5075  1.0775
11899TIP3    H257113   6.354   1.409  12.570 -0.7297 -1.3460  0.3241
11900TIP3   OH257114   0.795   0.601  10.508  0.1326 -0.0446  0.0273
11900TIP3    H157115   0.837   0.660  10.569 -0.3077 -0.0994  0.3865
11900TIP3    H257116   0.823   0.631  10.421  0.2312  0.4362  0.2275
11901TIP3   OH257117   4.439   1.695  16.418 -0.1627  0.0689 -0.1730
11901TIP3    H157118   4.459   1.625  16.357  0.3467  0.6135 -0.6441
11901TIP3    H257119   4.525   1.722  16.452 -0.3940  0.1462  0.3589
11902TIP3   OH257120   0.890   1.962   5.698 -0.5716  0.0297  0.2165
11902TIP3    H157121   0.903   2.031   5.633  0.3696 -1.0148 -0.7436
11902TIP3    H257122   0.852   1.889   5.649  0.1950 -0.7982  0.8228
11903TIP3   OH257123   6.394   3.492  17.204 -0.1689  0.4111  0.0417
11903TIP3    H157124   6.325   3.430  17.225 -0.3830  1.0925  1.5168
11903TIP3    H257125   6.348   3.574  17.186  0.2425  1.2897  2.5790
11904TIP3   OH257126   4.397   0.877  13.139  0.6384  0.1232  0.6151
11904TIP3    H157127   4.408   0.785  13.116  2.2078 -0.1090  2.1345
11904TIP3    H257128   4.448   0.889  13.219 -1.4484  1.7809  1.8176
11905TIP3   OH257129   6.291   2.233   6.655 -0.2783  0.0087  0.4671
11905TIP3    H157130   6.196   2.230   6.641 -0.0784  1.7651 -1.8218
11905TIP3    H257131   6.306   2.317   6.697  0.2451 -0.5019  1.3260
11906TIP3   OH257132   2.378   5.866   5.515 -0.5581 -0.0925  0.1755
11906TIP3    H157133   2.407   5.900   5.431 -1.1642  1.7458  0.6606
11906TIP3    H257134   2.438   5.794   5.534 -1.3477 -1.5595 -2.5040
11907TIP3   OH257135   1.548   4.190   5.949  0.1439  0.0554  0.9522
11907TIP3    H157136   1.633   4.147   5.957 -0.5235 -1.4589  0.2110
11907TIP3    H257137   1.492   4.147   6.013 -0.8703 -1.1182 -0.6496
11908TIP3   OH257138   6.465   3.887  15.263 -0.0109 -0.5105 -0.3462
11908TIP3    H157139   6.399   3.868  15.330  0.3270  0.4572  0.2881
11908TIP3    H257140   6.548   3.889  15.311  0.2270  0.2778 -0.7727
11909TIP3   OH257141   0.225   5.013  11.315 -0.3843  0.5274 -0.1829
11909TIP3    H157142   0.250   4.959  11.240 -0.7050  1.0041 -0.6427
11909TIP3    H257143   0.243   5.103  11.287 -2.9092  0.9559 -0.7038
11910TIP3   OH257144   5.199   0.656   0.135 -0.2081 -0.7849 -0.5384
11910TIP3    H157145   5.225   0.680   0.224  1.9056 -1.6608 -0.8501
11910TIP3    H257146   5.137   0.584   0.148  1.1452 -1.8825  0.2811
11911TIP3   OH257147   4.313   2.058   5.432  0.3150 -0.1787 -0.1347
11911TIP3    H157148   4.364   2.139   5.429 -1.1739  0.8259  0.6361
11911TIP3    H257149   4.285   2.043   5.342 -1.3704  1.5090  0.0493
11912TIP3   OH257150   6.320   5.784   1.257  0.4794  0.9817 -0.1352
11912TIP3    H157151   6.406   5.825   1.253  0.8499  0.3213  0.7431
11912TIP3    H257152   6.286   5.808   1.343 -0.0573  0.9245 -0.3269
11913TIP3   OH257153   0.905   5.009  12.095 -0.4116  0.1964  0.0924
11913TIP3    H157154   0.909   5.069  12.169 -0.9197  0.0563  0.2323
11913TIP3    H257155   0.863   4.931  12.130 -0.5072  0.0696 -0.3065
11914TIP3   OH257156   4.408   2.281  15.879  0.3047  0.2749  0.4362
11914TIP3    H157157   4.362   2.325  15.808 -0.2632 -0.7878  0.1158
11914TIP3    H257158   4.351   2.292  15.955  0.1947  0.1551  0.3715
11915TIP3   OH257159   6.215   1.459   4.820 -0.2725 -0.5664  0.5172
11915TIP3    H157160   6.220   1.494   4.909  2.1112 -1.4154  0.7980
11915TIP3    H257161   6.174   1.373   4.831 -3.2965  0.7189  0.2302
11916TIP3   OH257162   6.516   3.585   2.917  0.3152  0.6504 -0.5045
11916TIP3    H157163   6.554   3.653   2.974 -0.8937  1.7486 -0.9593
11916TIP3    H257164   6.462   3.532   2.976  1.4616 -0.1146 -0.1007
11917TIP3   OH257165   4.568   5.055  13.957 -0.1536  0.2319 -0.4804
11917TIP3    H157166   4.623   4.992  13.910  1.1724  0.5079  0.6199
11917TIP3    H257167   4.498   5.002  13.995 -0.8005 -0.1036 -2.0678
11918TIP3   OH257168   2.186   1.511   0.735  0.3920  0.1111 -0.5492
11918TIP3    H157169   2.252   1.558   0.787  0.5729 -1.7529  1.0172
11918TIP3    H257170   2.129   1.580   0.701  2.0810  1.6320 -0.4251
11919TIP3   OH257171   3.017   5.175   6.567 -0.0211 -0.3656 -0.5209
11919TIP3    H157172   3.045   5.092   6.528  0.0362 -0.7112  0.2345
11919TIP3    H257173   2.929   5.157   6.599  0.6200 -0.6693  1.1654
11920TIP3   OH257174   3.428   2.934   3.726 -0.3325  0.1275  0.7576
11920TIP3    H157175   3.421   2.957   3.634  3.2042  0.6208  0.4911
11920TIP3    H257176   3.417   3.017   3.773 -0.2632  0.1928  0.6573
11921TIP3   OH257177   4.965   0.057   6.104  0.0909 -0.5879 -0.1682
11921TIP3    H157178   5.046   0.096   6.137  0.3624  0.0904 -1.5567
11921TIP3    H257179   4.919   0.026   6.182  1.7944 -1.2029  0.6212
11922TIP3   OH257180   1.437   2.102  14.164 -0.7473 -0.3191  0.0363
11922TIP3    H157181   1.525   2.100  14.201 -0.4822  1.3776 -0.4276
11922TIP3    H257182   1.393   2.026  14.203  0.0563  0.3696  2.4397
11923TIP3   OH257183   4.522   5.572   6.751 -0.0849 -0.0739  0.0767
11923TIP3    H157184   4.437   5.543   6.783  0.0809  0.1849  0.7544
11923TIP3    H257185   4.504   5.600   6.661 -0.1270 -2.7710 -0.8285
11924TIP3   OH257186   5.239   0.087  13.887  0.0087 -0.0410  0.8070
11924TIP3    H157187   5.331   0.085  13.861 -0.1166 -0.8456  0.3945
11924TIP3    H257188   5.190   0.081  13.805 -0.4071 -0.6740  1.0931
11925TIP3   OH257189   0.566   2.657   1.339 -0.5357 -0.1620  0.4068
11925TIP3    H157190   0.487   2.670   1.391 -0.8943 -2.8111  0.7068
11925TIP3    H257191   0.611   2.585   1.383 -0.3008 -1.7810 -2.2529
11926TIP3   OH257192   5.789   2.143   0.448  0.4429  0.0388  0.1348
11926TIP3    H157193   5.819   2.054   0.466 -0.7600 -0.4314 -0.0858
11926TIP3    H257194   5.701   2.132   0.411  0.4156  1.2986 -0.2351
11927TIP3   OH257195   6.666   3.036   3.670 -0.6513 -0.6768 -0.5362
11927TIP3    H157196   6.593   3.069   3.618  0.4288  0.7734 -1.1759
11927TIP3    H257197   6.743   3.051   3.616  0.1466 -2.2228  0.1107
11928TIP3   OH257198   6.283   1.382  14.213  0.7908  0.0548 -0.4093
11928TIP3    H157199   6.256   1.440  14.284  2.3987  0.0400  0.2338
11928TIP3    H257200   6.347   1.432  14.163  0.9396 -0.5595 -0.8474
11929TIP3   OH257201   0.341   1.978   4.212 -0.8655  0.0465  0.2690
11929TIP3    H157202   0.268   2.027   4.250 -0.6423  1.9009 -1.5241
11929TIP3    H257203   0.409   1.980   4.279 -1.1050  1.6779  0.5126
11930TIP3   OH257204   2.385   6.624   4.649  0.0087 -1.1274  0.1017
11930TIP3    H157205   2.459   6.642   4.590  0.2534 -0.7884  0.5078
11930TIP3    H257206   2.330   6.702   4.643 -0.5682 -1.5776 -0.5668
11931TIP3   OH257207   1.527   1.962  11.445 -0.0041  0.0874 -0.0220
11931TIP3    H157208   1.460   1.959  11.513  0.3295 -0.1584  0.2950
11931TIP3    H257209   1.497   1.897  11.380  0.6875 -1.1083  0.8293
11932TIP3   OH257210   4.070   5.132  14.153  0.4369  0.1902 -0.0654
11932TIP3    H157211   4.034   5.070  14.216 -0.0928  1.0858  0.5242
11932TIP3    H257212   3.998   5.190  14.131  1.0721  0.9658 -0.1599
11933TIP3   OH257213   2.581   0.442   0.926 -0.1866 -0.0085 -0.4056
11933TIP3    H157214   2.649   0.504   0.954 -0.6687  0.2232  0.2514
11933TIP3    H257215   2.533   0.488   0.857 -1.2928  0.8186  0.8881
11934TIP3   OH257216   2.140   0.578  13.001 -0.3983 -0.5081  0.3836
11934TIP3    H157217   2.090   0.649  12.961 -0.8423 -0.7784  0.4620
11934TIP3    H257218   2.184   0.535  12.927  0.6784  0.4570  0.4278
11935TIP3   OH257219   3.424   3.687   1.238  0.0021  0.0082 -0.3005
11935TIP3    H157220   3.495   3.635   1.202  1.1917  0.1130  1.7707
11935TIP3    H257221   3.466   3.766   1.271 -0.4854 -1.0886  3.4748
11936TIP3   OH257222   2.061   5.545  17.016 -0.1871  0.1029  0.1011
11936TIP3    H157223   2.103   5.600  17.082 -1.8875  0.4591  0.9288
11936TIP3    H257224   2.054   5.601  16.939  0.0561  0.3113  0.2280
11937TIP3   OH257225   0.590   3.775  14.760  0.3203  0.0841  0.3821
11937TIP3    H157226   0.556   3.747  14.675 -1.3752 -0.1063  1.0866
11937TIP3    H257227   0.674   3.731  14.768 -0.3868 -1.4763 -0.3545
11938TIP3   OH257228   6.596   4.660  12.551 -0.3397 -0.2380 -0.3365
11938TIP3    H157229   6.549   4.601  12.610  0.1195 -0.7651 -0.4836
11938TIP3    H257230   6.682   4.673  12.593 -0.3209  0.0649 -0.4662
11939TIP3   OH257231   3.504   1.664  11.131  0.4558  0.4967  0.2124
11939TIP3    H157232   3.415   1.694  11.113  0.2253  0.1490  0.7543
11939TIP3    H257233   3.556   1.744  11.136 -0.0343  0.7711  1.0022
11940TIP3   OH257234   1.622   1.381   5.048 -0.6790  0.2355  0.0776
11940TIP3    H157235   1.707   1.391   5.090  0.4993 -3.5923 -0.9611
11940TIP3    H257236   1.576   1.317   5.102 -2.0748  0.6893 -0.5272
11941TIP3   OH257237   5.295   4.847   1.741 -0.1317 -0.0671 -0.5321
11941TIP3    H157238   5.342   4.880   1.664 -0.3915  0.2899 -0.5404
11941TIP3    H257239   5.356   4.860   1.813  0.4471 -1.1875 -0.7977
11942TIP3   OH257240   5.248   5.025   2.164 -0.1892  0.1019  0.3376
11942TIP3    H157241   5.169   5.035   2.217 -0.3952  1.2936 -0.1628
11942TIP3    H257242   5.285   5.113   2.159  0.2005 -0.1154 -0.8965
11943TIP3   OH257243   1.071   3.325   0.066 -0.1745  0.5800 -0.4746
11943TIP3    H157244   1.164   3.330   0.044 -0.3048  0.5511 -1.0458
11943TIP3    H257245   1.048   3.412   0.098 -0.4070  1.1625 -2.1792
11944TIP3   OH257246   1.869   1.661   3.002 -0.4887  0.2728  0.0499
11944TIP3    H157247   1.943   1.682   2.945 -1.1119 -0.3179 -1.0030
11944TIP3    H257248   1.896   1.693   3.088  0.3030  1.5712 -0.6472
11945TIP3   OH257249   1.068   3.888  13.023 -0.7233 -0.6164 -0.3325
11945TIP3    H157250   1.037   3.979  13.027 -0.0772 -0.4470  2.1165
11945TIP3    H257251   1.163   3.895  13.023 -0.6377 -1.2778  1.4549
11946TIP3   OH257252   4.018   0.642   1.890  0.2206  0.0910 -0.0869
11946TIP3    H157253   4.030   0.561   1.839  0.1743  0.3127 -0.4522
11946TIP3    H257254   4.106   0.670   1.913  0.3882  1.1327 -1.8478
11947TIP3   OH257255   1.844   6.439   6.446 -0.4423  0.2240  0.2302
11947TIP3    H157256   1.925   6.450   6.496 -0.4180  0.1919  0.1987
11947TIP3    H257257   1.862   6.480   6.361 -0.6270  0.6518  0.3962
11948TIP3   OH257258   6.216   1.488  13.471 -0.1400 -0.4212  0.2758
11948TIP3    H157259   6.121   1.483  13.483 -0.2119 -0.5291 -0.3117
11948TIP3    H257260   6.248   1.526  13.552 -0.5525 -1.6161  1.0285
11949TIP3   OH257261   0.796   4.347  16.111 -0.6025  0.1485  0.0190
11949TIP3    H157262   0.860   4.303  16.054 -1.6696  0.6700 -1.6435
11949TIP3    H257263   0.835   4.432  16.130 -0.4431  0.1534 -0.3227
11950TIP3   OH257264   5.917   3.348  14.909  0.0845  0.4497  0.3874
11950TIP3    H157265   5.937   3.292  14.833 -1.3846  1.2234 -0.6107
11950TIP3    H257266   5.822   3.350  14.913  0.1394  0.7534  2.0402
11951TIP3   OH257267   4.634   6.238   3.398  0.1594  0.3759 -0.7695
11951TIP3    H157268   4.651   6.311   3.339 -0.6344  1.6579  0.5222
11951TIP3    H257269   4.694   6.252   3.472  0.0818 -0.3422 -0.5594
11952TIP3   OH257270   0.418   0.208  16.794  0.1421  0.2607 -0.3535
11952TIP3    H157271   0.382   0.162  16.870  0.9529 -1.5297 -1.0065
11952TIP3    H257272   0.403   0.300  16.814 -2.8408 -0.2584  0.3835
11953TIP3   OH257273   6.579   3.692   4.480  0.1957  0.2616  0.3059
11953TIP3    H157274   6.518   3.749   4.433  1.3245  1.6309  0.4346
11953TIP3    H257275   6.547   3.603   4.464 -0.2400  0.7621 -1.9309
11954TIP3   OH257276   6.672   3.339  17.204  0.0015  0.1647 -0.0186
11954TIP3    H157277   6.606   3.406  17.220  0.4524  0.5613  0.2054
11954TIP3    H257278   6.653   3.307  17.116  0.1487  1.0177 -0.3708
11955TIP3   OH257279   1.807   1.698   3.467 -0.3219 -0.1258 -0.3027
11955TIP3    H157280   1.882   1.758   3.470 -0.9454  0.7226 -0.9191
11955TIP3    H257281   1.779   1.690   3.558  1.4430 -1.7106  0.1693
11956TIP3   OH257282   0.925   3.833  17.073  0.1743  0.5163 -0.5575
11956TIP3    H157283   0.869   3.906  17.096  2.1487  1.7250  0.6340
11956TIP3    H257284   0.972   3.863  16.995  0.8226  0.4193 -0.2035
11957TIP3   OH257285   6.679   3.133  11.488 -0.3042  0.0696  0.0662
11957TIP3    H157286   6.739   3.073  11.533  0.0891  0.0399 -0.4950
11957TIP3    H257287   6.596   3.123  11.536 -0.1870 -0.7659  0.1179
11958TIP3   OH257288   0.220   3.768  12.307  0.0207 -0.3441  0.3253
11958TIP3    H157289   0.173   3.763  12.390  0.1041  4.1845  0.9085
11958TIP3    H257290   0.312   3.777  12.333  0.3530 -1.2839 -0.4512
11959TIP3   OH257291   2.561   6.589   1.213 -0.0404 -0.2182  0.2429
11959TIP3    H157292   2.648   6.608   1.179 -0.2787  0.6707  0.1010
11959TIP3    H257293   2.553   6.494   1.207  1.2158 -0.3956  0.9800
11960TIP3   OH257294   0.355   2.713   1.482 -0.2108 -0.3825  0.1432
11960TIP3    H157295   0.359   2.807   1.499  0.8405 -0.0646 -1.5668
11960TIP3    H257296   0.277   2.684   1.528  0.0765  1.0952  1.6785
11961TIP3   OH257297   5.294   3.964   0.476 -0.0713  0.3098  0.1961
11961TIP3    H157298   5.346   4.001   0.547 -1.5684 -1.2964  2.2325
11961TIP3    H257299   5.347   3.891   0.444  0.2323  0.5148  0.2225
11962TIP3   OH257300   6.255   3.812   1.251  0.5171  0.1096 -0.3174
11962TIP3    H157301   6.343   3.806   1.290  0.0549 -0.5995  0.6705
11962TIP3    H257302   6.246   3.732   1.200  0.9033  0.7740 -1.4763
11963TIP3   OH257303   6.036   2.102  16.001 -0.1696  0.3243  0.4598
11963TIP3    H157304   6.081   2.184  16.022  0.3715  0.1522 -0.0092
11963TIP3    H257305   5.946   2.116  16.030  0.4409  0.2284  2.5733
11964TIP3   OH257306   0.326   4.061  13.476  0.3254 -0.3078 -0.4543
11964TIP3    H157307   0.246   4.016  13.502 -1.3960  2.1875 -1.1655
11964TIP3    H257308   0.352   4.017  13.394 -2.0018  0.6260 -1.8010
11965TIP3   OH257309   1.976   0.578   6.609 -0.2961 -0.0957 -0.0872
11965TIP3    H157310   2.012   0.666   6.599  0.0407  0.0274  1.8581
11965TIP3    H257311   2.052   0.521   6.611 -0.5605 -0.6579 -2.7694
11966TIP3   OH257312   1.166   3.686  10.294  0.0591 -0.0866 -0.2241
11966TIP3    H157313   1.086   3.639  10.270 -0.1306  0.6004 -0.9793
11966TIP3    H257314   1.138   3.777  10.306  0.8383  0.3169 -1.2577
11967TIP3   OH257315   2.928   1.439  15.350  0.5477 -0.1900  1.0909
11967TIP3    H157316   3.000   1.449  15.288  0.7390 -2.2506  0.9146
11967TIP3    H257317   2.958   1.482  15.430  2.0658 -1.1898  1.0835
11968TIP3   OH257318   3.241   3.988  13.660  0.6358  0.1994 -0.1030
11968TIP3    H157319   3.226   3.941  13.741  1.9346  1.1802  0.7436
11968TIP3    H257320   3.319   3.949  13.622  1.1250  0.9647  0.0867
11969TIP3   OH257321   4.185   0.573   1.519  0.0022  0.3733  0.0784
11969TIP3    H157322   4.121   0.635   1.483 -0.3267  0.8956  1.4525
11969TIP3    H257323   4.131   0.502   1.554 -0.0259  1.4355  2.4329
11970TIP3   OH257324   4.508   0.957   4.263 -0.0904 -0.1562 -0.2256
11970TIP3    H157325   4.548   0.908   4.192  1.6495 -0.0793  0.6613
11970TIP3    H257326   4.528   0.906   4.342 -0.0655  0.8818  0.4603
11971TIP3   OH257327   4.994   4.361   4.825  0.3757  0.0338  0.2082
11971TIP3    H157328   4.933   4.287   4.820  1.6153 -0.9477 -1.2422
11971TIP3    H257329   5.044   4.357   4.744  0.4124  2.5740  0.0217
11972TIP3   OH257330   6.023   4.101  14.821  0.0904 -0.6212  0.1637
11972TIP3    H157331   6.072   4.050  14.886  1.3273 -2.1265 -1.8192
11972TIP3    H257332   5.937   4.113  14.861  0.6567 -1.8509  1.9092
11973TIP3   OH257333   5.695   0.481   2.376 -0.5395 -0.1524 -0.4132
11973TIP3    H157334   5.627   0.469   2.310  0.3893 -1.1735 -1.2245
11973TIP3    H257335   5.722   0.392   2.399 -0.8814  0.1699  1.4204
11974TIP3   OH257336   4.163   1.779   6.219  0.6726  0.2719  0.1845
11974TIP3    H157337   4.140   1.690   6.245 -1.2290  0.7213  0.1579
11974TIP3    H257338   4.121   1.835   6.284  2.1792  1.1696  0.4291
11975TIP3   OH257339   2.333   3.572   5.773  0.1687 -0.3919  0.0627
11975TIP3    H157340   2.378   3.494   5.807  0.1205 -0.3226  0.2904
11975TIP3    H257341   2.361   3.578   5.682 -1.5692 -1.9498 -0.6295
11976TIP3   OH257342   3.866   1.994  11.282 -0.6921 -0.3619  0.0684
11976TIP3    H157343   3.805   2.008  11.355 -1.1697  0.6234 -0.4907
11976TIP3    H257344   3.850   1.904  11.255 -3.2505  0.3672 -1.2031
11977TIP3   OH257345   4.412   3.108  12.966 -0.2053 -0.3011 -0.7355
11977TIP3    H157346   4.500   3.145  12.955  0.5219 -1.3496  1.1367
11977TIP3    H257347   4.400   3.053  12.889  0.2293  0.8618 -1.6675
11978TIP3   OH257348   6.438   3.231  15.869  0.0764 -0.4336 -0.5304
11978TIP3    H157349   6.529   3.261  15.877  0.0951 -0.6723  0.2046
11978TIP3    H257350   6.386   3.301  15.909  0.1036 -1.2389  0.9730
11979TIP3   OH257351   3.673   5.294  11.640 -0.3127 -0.1018 -0.2001
11979TIP3    H157352   3.632   5.286  11.553  0.1093  0.1106 -0.4196
11979TIP3    H257353   3.741   5.360  11.629 -1.3947  1.2298  0.7205
11980TIP3   OH257354   0.211   5.384  14.412  0.0796 -0.0210  0.0184
11980TIP3    H157355   0.229   5.348  14.499 -0.7489  1.5148  0.8704
11980TIP3    H257356   0.118   5.366  14.398  0.1554 -0.0467 -0.4522
11981TIP3   OH257357   1.486   5.883  16.172 -0.1724 -0.1405  0.0106
11981TIP3    H157358   1.566   5.871  16.120 -0.5381 -2.5542 -0.1170
11981TIP3    H257359   1.517   5.917  16.256  0.4947  3.1766 -1.4194
11982TIP3   OH257360   3.960   2.779   4.086  0.2269 -0.2714 -0.0740
11982TIP3    H157361   4.001   2.766   4.172 -0.1786 -0.7163  0.0577
11982TIP3    H257362   4.024   2.830   4.036  0.7369 -0.5524  0.2836
11983TIP3   OH257363   1.129   5.719  13.626  0.0938 -0.0146  0.0496
11983TIP3    H157364   1.036   5.710  13.608 -0.0082 -0.1629  0.6293
11983TIP3    H257365   1.167   5.635  13.599  0.1674  0.2910 -0.8172
11984TIP3   OH257366   6.579   3.298   3.977 -0.1676 -0.6939  0.0795
11984TIP3    H157367   6.649   3.327   3.918 -1.2106  0.8048 -0.5000
11984TIP3    H257368   6.625   3.263   4.053  1.2158  0.1540 -0.3243
11985TIP3   OH257369   6.634   2.886  12.390 -0.1972 -0.0957 -0.2285
11985TIP3    H157370   6.663   2.974  12.368 -0.1629  0.2213  1.0241
11985TIP3    H257371   6.548   2.878  12.349  0.5761 -0.1978 -1.9640
11986TIP3   OH257372   1.835   2.218  14.005  0.1814 -0.1515 -0.7013
11986TIP3    H157373   1.864   2.309  14.019  2.0211 -0.9174  1.0858
11986TIP3    H257374   1.860   2.199  13.914  1.7170  0.5095 -0.4511
11987TIP3   OH257375   3.199   6.088   2.532 -0.2034  0.3097 -0.5009
11987TIP3    H157376   3.218   6.175   2.497 -2.8092  0.9364 -0.5439
11987TIP3    H257377   3.184   6.034   2.454  0.1834  0.1267 -0.4496
11988TIP3   OH257378   2.015   0.077   5.506  0.3672 -0.8474 -0.9866
11988TIP3    H157379   2.107   0.088   5.483  1.0374  0.9139  2.0121
11988TIP3    H257380   1.975   0.038   5.428  3.3498 -0.4232 -2.8752
11989TIP3   OH257381   1.716   4.378   0.585  0.1972  0.4779 -0.5659
11989TIP3    H157382   1.634   4.425   0.573 -0.5329 -0.6730 -0.2669
11989TIP3    H257383   1.783   4.446   0.590 -1.0066  1.5967  1.6870
11990TIP3   OH257384   5.307   6.767  14.856 -0.3983 -0.6653 -0.2378
11990TIP3    H157385   5.332   6.677  14.838  0.2541 -0.1039 -2.4386
11990TIP3    H257386   5.212   6.768  14.845 -0.2595 -0.8278 -1.6280
11991TIP3   OH257387   3.516   5.224   0.051 -0.3193 -0.0556 -0.7173
11991TIP3    H157388   3.507   5.198  -0.041 -0.5579  0.6633 -0.9110
11991TIP3    H257389   3.603   5.263   0.056  0.0266 -0.8471 -0.4364
11992TIP3   OH257390   4.624   5.355  12.581 -0.1853  0.0788  0.4178
11992TIP3    H157391   4.704   5.400  12.555  0.0344  0.2368  1.3415
11992TIP3    H257392   4.615   5.373  12.674 -0.1362 -1.7021  0.8156
11993TIP3   OH257393   6.760   2.276   1.669  0.4523 -0.3171 -0.4544
11993TIP3    H157394   6.827   2.212   1.690 -0.5329 -1.9605 -2.0216
11993TIP3    H257395   6.688   2.257   1.729  0.5853  0.0526 -0.1785
11994TIP3   OH257396   0.666   2.601  11.679 -0.9448 -0.2438  0.1657
11994TIP3    H157397   0.745   2.645  11.712  1.2457 -1.8962 -2.4360
11994TIP3    H257398   0.688   2.508  11.681 -3.4356 -0.8973  0.6129
11995TIP3   OH257399   2.563   4.784   3.523  0.7646 -0.0866 -0.4237
11995TIP3    H157400   2.484   4.821   3.482  1.0302 -0.1408 -0.9977
11995TIP3    H257401   2.634   4.812   3.466  1.2366  0.4805  0.4362
11996TIP3   OH257402   0.861   0.404  11.370 -0.1670  0.8096 -0.0643
11996TIP3    H157403   0.854   0.456  11.290 -1.4867  0.0379 -0.4865
11996TIP3    H257404   0.802   0.447  11.432  0.3230  1.0026  0.2752
11997TIP3   OH257405   4.349   3.784  13.266  0.3530  0.1905  0.4923
11997TIP3    H157406   4.382   3.736  13.341  1.4493  1.4775  0.8862
11997TIP3    H257407   4.374   3.875  13.283  0.4747  0.5449 -1.3305
11998TIP3   OH257408   1.196   4.479  11.175 -0.0887 -0.1089 -0.2689
11998TIP3    H157409   1.219   4.475  11.267 -0.9168 -0.2998 -0.0601
11998TIP3    H257410   1.109   4.439  11.170  0.5998 -1.5330 -1.3674
11999TIP3   OH257411   1.720   2.019   3.594  0.3157 -0.5547 -0.3371
11999TIP3    H157412   1.690   2.061   3.675  0.7219  0.8844 -0.9012
11999TIP3    H257413   1.725   1.926   3.616  2.0465 -0.0286  1.8346
12000TIP3   OH257414   4.987   6.615   5.665 -0.0149  0.7285 -0.0871
12000TIP3    H157415   4.997   6.522   5.645 -2.1134 -0.0447  2.0198
12000TIP3    H257416   4.904   6.640   5.624  0.8403  1.9115 -1.2027
12001TIP3   OH257417   2.375   1.611  12.287 -0.3170 -0.2774  0.6263
12001TIP3    H157418   2.440   1.546  12.312  0.5028  1.3247  2.9703
12001TIP3    H257419   2.420   1.667  12.223 -0.2403 -0.6280  0.3720
12002TIP3   OH257420   1.842   6.375   1.328 -0.4649  0.0889  0.2445
12002TIP3    H157421   1.926   6.374   1.373 -0.5627 -0.4784  0.4205
12002TIP3    H257422   1.858   6.333   1.244 -0.7619 -0.8649  0.6453
12003TIP3   OH257423   6.105   5.868  14.620  0.0633 -0.0155  0.1395
12003TIP3    H157424   6.086   5.788  14.571 -2.3249  1.2214 -1.1232
12003TIP3    H257425   6.026   5.885  14.670  0.0152  2.2023 -0.5854
12004TIP3   OH257426   2.067   2.236   2.071  0.2815  0.5759  0.0745
12004TIP3    H157427   2.078   2.149   2.108  0.2759  0.5168 -0.0652
12004TIP3    H257428   2.142   2.247   2.012 -0.2098  0.3139 -0.6020
12005TIP3   OH257429   5.819   3.332   4.372 -0.0304  0.0101 -0.2249
12005TIP3    H157430   5.802   3.341   4.278  0.4174  1.7013 -0.1839
12005TIP3    H257431   5.761   3.396   4.413  0.3478 -0.1548  0.5953
12006TIP3   OH257432   6.228   5.606  12.375 -0.4905 -0.5373  0.3307
12006TIP3    H157433   6.273   5.581  12.294 -0.5860 -0.5302  0.2753
12006TIP3    H257434   6.246   5.700  12.384 -2.7866  0.1364 -1.1905
12007TIP3   OH257435   6.269   2.773  11.581 -0.2145  0.0510  0.6699
12007TIP3    H157436   6.228   2.859  11.575  1.4930  0.8172 -1.7210
12007TIP3    H257437   6.349   2.788  11.631 -0.4724 -0.4147  1.2341
12008TIP3   OH257438   6.723   5.800  15.083  0.1835  0.4035  0.0554
12008TIP3    H157439   6.779   5.758  15.149 -0.7300  0.9942  1.2594
12008TIP3    H257440   6.777   5.869  15.045  0.2629  1.0318  1.2687
12009TIP3   OH257441   0.713   3.602  12.972 -0.3776  0.2222 -0.1451
12009TIP3    H157442   0.631   3.566  13.005  0.0545 -0.3572  0.3197
12009TIP3    H257443   0.746   3.657  13.043 -1.2777  1.9842 -1.0305
12010TIP3   OH257444   4.870   4.195   1.355 -0.3414  0.2279 -0.5194
12010TIP3    H157445   4.786   4.167   1.392  0.0312  2.3244  2.2667
12010TIP3    H257446   4.935   4.149   1.408  0.3077 -0.3515 -1.7860
12011TIP3   OH257447   6.553   5.248   4.598 -0.5282  0.4238 -0.0259
12011TIP3    H157448   6.524   5.159   4.580 -0.0533  0.2325  0.1304
12011TIP3    H257449   6.483   5.304   4.564 -0.0427  0.0573 -1.6880
12012TIP3   OH257450   0.406   6.148   1.747 -0.0267  0.4199  0.2119
12012TIP3    H157451   0.445   6.092   1.815 -1.0623  0.2902  0.7135
12012TIP3    H257452   0.362   6.087   1.688  2.0056  0.3949 -1.4068
12013TIP3   OH257453   3.568   1.450   2.693  0.1043  0.6232 -0.2586
12013TIP3    H157454   3.536   1.538   2.712  0.6732  0.7121  0.3595
12013TIP3    H257455   3.509   1.416   2.626 -0.3779  1.3151 -0.1940
12014TIP3   OH257456   6.192   5.538  15.764 -0.0688 -0.1102  0.6438
12014TIP3    H157457   6.233   5.543  15.850  2.3266  2.4440 -0.5020
12014TIP3    H257458   6.104   5.574  15.778  0.2443  0.1861  2.0300
12015TIP3   OH257459   1.270   0.161  15.454  0.0806 -0.0746  0.3155
12015TIP3    H157460   1.283   0.070  15.430  1.5472  0.4172 -0.9135
12015TIP3    H257461   1.183   0.183  15.420 -0.3980 -1.0634  0.8725
12016TIP3   OH257462   5.851   5.437  15.574  0.2235 -0.3622 -0.7851
12016TIP3    H157463   5.863   5.488  15.654 -1.8310  2.1631 -1.9463
12016TIP3    H257464   5.920   5.371  15.577  1.4619  0.9112  2.0621
12017TIP3   OH257465   1.513   6.772   0.849  0.0843 -0.4358 -0.4536
12017TIP3    H157466   1.536   6.756   0.941  0.5034  2.1693 -0.0446
12017TIP3    H257467   1.593   6.807   0.810 -0.3508 -0.6817 -1.6156
12018TIP3   OH257468   3.384   3.832   4.892  0.4857  0.3280  0.0480
12018TIP3    H157469   3.312   3.893   4.906  0.7159  0.9649 -1.3429
12018TIP3    H257470   3.461   3.888   4.878  0.6967 -0.2391 -1.2627
12019TIP3   OH257471   2.403   4.466   0.040 -0.7041 -0.1264  0.1424
12019TIP3    H157472   2.469   4.396   0.040 -0.0065  0.5171  0.3271
12019TIP3    H257473   2.452   4.545   0.064 -1.8059  0.1366  1.6032
12020TIP3   OH257474   1.144   2.364   2.700  0.0015  0.5337 -0.3875
12020TIP3    H157475   1.147   2.460   2.693  0.8303  0.4697 -1.2341
12020TIP3    H257476   1.098   2.336   2.621  0.8041  0.2015 -0.7592
12021TIP3   OH257477   2.677   5.923  17.097  0.0909 -0.1494 -0.0917
12021TIP3    H157478   2.747   5.874  17.054 -1.5660 -1.5865 -1.2607
12021TIP3    H257479   2.634   5.971  17.026 -0.5626  0.1545  0.4974
12022TIP3   OH257480   0.531   4.242  16.058  0.0015  0.3849  0.2792
12022TIP3    H157481   0.550   4.152  16.084 -1.1277 -0.0702 -0.3750
12022TIP3    H257482   0.615   4.288  16.064  0.5938 -0.7117  0.5952
12023TIP3   OH257483   3.719   4.270   2.456 -0.3676 -0.3109  0.7034
12023TIP3    H157484   3.651   4.231   2.512 -0.1743  0.0924  1.2251
12023TIP3    H257485   3.683   4.355   2.431 -0.8540 -0.8545 -0.5576
12024TIP3   OH257486   6.260   5.221  11.562 -0.0274 -0.4320  0.2394
12024TIP3    H157487   6.201   5.279  11.512 -0.5241  0.8286  2.1771
12024TIP3    H257488   6.201   5.161  11.607  0.2611 -0.2122  0.9163
12025TIP3   OH257489   6.069   4.655   3.825 -0.8236  0.1315  0.4598
12025TIP3    H157490   6.140   4.718   3.813 -0.1792 -0.9412 -2.0240
12025TIP3    H257491   6.104   4.591   3.888  0.8146 -0.8123 -1.3009
12026TIP3   OH257492   3.817   2.486  11.740 -0.0337 -0.5143 -0.2786
12026TIP3    H157493   3.789   2.518  11.826  1.1480 -0.9670  0.3044
12026TIP3    H257494   3.740   2.497  11.684 -1.6814 -2.5100  1.4149
12027TIP3   OH257495   0.548   4.813   0.802 -0.5060  0.0617 -0.7072
12027TIP3    H157496   0.478   4.848   0.747 -0.9735 -1.9507 -1.4998
12027TIP3    H257497   0.623   4.870   0.784 -1.4050  1.1010 -1.3140
12028TIP3   OH257498   3.633   6.477   2.033 -0.2809 -0.1308  0.1638
12028TIP3    H157499   3.612   6.503   2.122 -0.2676 -0.1256  0.1656
12028TIP3    H257500   3.724   6.447   2.038  0.2358  1.3032 -0.1347
12029TIP3   OH257501   3.615   2.816   6.113 -0.8272 -0.4694  0.9174
12029TIP3    H157502   3.697   2.786   6.153 -1.5857 -0.6149  2.4443
12029TIP3    H257503   3.605   2.906   6.143 -0.5500  0.0101 -0.3956
12030TIP3   OH257504   3.415   6.416   1.525  0.1401 -0.0094  0.1562
12030TIP3    H157505   3.395   6.473   1.599  2.5428  0.7909  0.2658
12030TIP3    H257506   3.337   6.361   1.515 -0.9724  1.1308  2.0733
12031TIP3   OH257507   2.133   2.868   3.069 -0.1008  0.0307 -0.1412
12031TIP3    H157508   2.161   2.782   3.101 -0.0951 -1.4243 -3.5492
12031TIP3    H257509   2.050   2.884   3.115 -0.4153 -2.1220  0.1739
12032TIP3   OH257510   5.960   2.876   4.687 -0.0071  0.2536 -0.2719
12032TIP3    H157511   5.881   2.823   4.679  0.3650 -0.1723 -1.2719
12032TIP3    H257512   6.032   2.814   4.675  0.5214  0.4991  1.3514
12033TIP3   OH257513   3.147   4.645   1.441 -0.2343 -0.3040 -0.0527
12033TIP3    H157514   3.225   4.648   1.497  0.0985 -1.3518 -0.4523
12033TIP3    H257515   3.080   4.605   1.496 -0.5327  0.6571  0.3136
12034TIP3   OH257516   3.797   0.639   5.149 -0.1516  0.0736 -0.4397
12034TIP3    H157517   3.805   0.545   5.132  1.2285  0.4132 -1.8891
12034TIP3    H257518   3.783   0.677   5.062 -0.6671  1.2223  0.1379
12035TIP3   OH257519   1.449   4.916   0.830  0.0437  0.1596 -0.0550
12035TIP3    H157520   1.455   4.875   0.743  0.5751  0.5928 -0.2314
12035TIP3    H257521   1.371   4.971   0.825  0.4197  0.6619 -0.4719
12036TIP3   OH257522   4.743   1.428  10.984 -0.1751  0.0730 -0.4816
12036TIP3    H157523   4.656   1.446  11.020 -0.6137 -0.4299 -1.2664
12036TIP3    H257524   4.737   1.454  10.892  0.4966 -0.0013 -0.5510
12037TIP3   OH257525   2.175   4.301  13.703 -0.2197  0.2962 -0.1404
12037TIP3    H157526   2.096   4.246  13.705 -0.6603  0.9348  1.2126
12037TIP3    H257527   2.193   4.320  13.795 -0.0403  2.3654 -0.5646
12038TIP3   OH257528   2.603   5.481  13.590  0.3983 -0.1532  0.4799
12038TIP3    H157529   2.596   5.387  13.608 -1.0032 -0.3215 -0.7628
12038TIP3    H257530   2.515   5.507  13.563  1.1563  1.1608 -0.8312
12039TIP3   OH257531   0.466   5.157   4.548  0.4913  0.0254 -0.2061
12039TIP3    H157532   0.382   5.111   4.555 -0.0899  0.9164 -0.9697
12039TIP3    H257533   0.487   5.154   4.454  0.1554  1.7526 -0.3703
12040TIP3   OH257534   4.658   3.748   1.688  0.1767  0.0676  0.2164
12040TIP3    H157535   4.585   3.773   1.744 -0.4681  3.5392 -1.8781
12040TIP3    H257536   4.718   3.823   1.692  0.9383 -0.3051 -2.2832
12041TIP3   OH257537   2.670   1.854  12.991  0.0560  0.3140  0.1026
12041TIP3    H157538   2.616   1.779  13.016  0.2286 -0.4692 -1.7587
12041TIP3    H257539   2.746   1.849  13.048 -0.3756 -0.3563  0.6349
12042TIP3   OH257540   3.812   2.036  14.406 -0.4502 -0.0286  0.3544
12042TIP3    H157541   3.860   2.091  14.344 -0.6419  0.2738  0.4689
12042TIP3    H257542   3.810   2.088  14.487  0.9302 -0.9613  1.0176
12043TIP3   OH257543   3.806   2.750  12.748 -0.3915  0.6705  0.0121
12043TIP3    H157544   3.859   2.823  12.717 -0.6295  0.6338 -0.4821
12043TIP3    H257545   3.724   2.789  12.776 -0.2252  0.6878  0.4877
12044TIP3   OH257546   5.974   2.582   1.177 -0.4694 -0.0817 -0.1592
12044TIP3    H157547   6.026   2.661   1.191 -2.3813  1.3171 -0.5854
12044TIP3    H257548   6.007   2.520   1.243  1.3337  0.9004 -0.0696
12045TIP3   OH257549   5.761   3.802  10.925  0.6318  0.2371  0.2067
12045TIP3    H157550   5.792   3.768  10.841 -2.3648 -1.2033 -0.4318
12045TIP3    H257551   5.734   3.891  10.906 -1.2426 -0.4946 -0.7436
12046TIP3   OH257552   4.137   4.432  14.086 -0.3732 -0.3351  0.5965
12046TIP3    H157553   4.155   4.358  14.144 -1.0336 -0.4478  0.6650
12046TIP3    H257554   4.220   4.479  14.080  0.3176 -1.6071 -0.2097
12047TIP3   OH257555   0.876   1.187  13.379 -0.8589  0.1802 -0.4981
12047TIP3    H157556   0.817   1.112  13.372 -0.7577  0.0755 -0.2344
12047TIP3    H257557   0.874   1.211  13.471 -1.2686  0.8112 -0.6610
12048TIP3   OH257558   4.208   6.468  14.784 -0.1250  0.1906  0.9466
12048TIP3    H157559   4.177   6.552  14.749  0.8540  0.3102  0.3480
12048TIP3    H257560   4.129   6.414  14.790 -0.6573  0.9339  0.7128
12049TIP3   OH257561   3.770   1.372   4.535 -0.1524 -0.9510 -0.6542
12049TIP3    H157562   3.725   1.334   4.460 -1.5477 -0.7747  0.0615
12049TIP3    H257563   3.700   1.392   4.598  0.7978  0.4698  0.0081
12050TIP3   OH257564   6.673   3.515   5.365 -0.1615  0.2252  0.0895
12050TIP3    H157565   6.733   3.485   5.433  0.9662  1.0853 -0.4979
12050TIP3    H257566   6.648   3.604   5.392 -0.4359  0.2238 -0.1531
12051TIP3   OH257567   3.066   1.364   1.964 -0.5815  0.1432 -0.2244
12051TIP3    H157568   2.993   1.324   2.012 -1.0419  0.2155 -0.8481
12051TIP3    H257569   3.141   1.308   1.983 -0.5281  0.7097  1.3433
12052TIP3   OH257570   5.298   2.419  13.480  0.2016 -0.0910 -0.1430
12052TIP3    H157571   5.384   2.402  13.443  0.5550 -0.6235  0.8838
12052TIP3    H257572   5.271   2.503  13.441  2.3089  1.4275  1.4314
12053TIP3   OH257573   3.197   2.132   0.768  0.1709 -0.0179 -0.2061
12053TIP3    H157574   3.197   2.190   0.692  0.9568  0.2362 -0.0193
12053TIP3    H257575   3.255   2.174   0.830  0.6196 -0.9233 -0.0021
12054TIP3   OH257576   1.256   6.276  12.889  0.1524 -0.2072  1.0706
12054TIP3    H157577   1.304   6.237  12.962 -0.8101 -0.5780  1.5145
12054TIP3    H257578   1.258   6.370  12.908  1.5681 -0.1102  0.5467
12055TIP3   OH257579   2.321   3.141  14.258 -0.2024 -0.1421 -0.0671
12055TIP3    H157580   2.306   3.188  14.176 -0.8746  0.4561  0.3921
12055TIP3    H257581   2.348   3.054  14.231 -0.0612  0.1574 -0.9268
12056TIP3   OH257582   5.204   4.360  14.676 -0.4480  0.2646 -0.4428
12056TIP3    H157583   5.112   4.340  14.659 -0.1192 -1.6803 -0.1062
12056TIP3    H257584   5.252   4.305  14.614  0.5082  1.0747 -0.4401
12057TIP3   OH257585   5.067   3.464  11.641 -0.1464  0.2074 -0.3294
12057TIP3    H157586   5.078   3.442  11.549 -0.0111  1.5459 -0.6593
12057TIP3    H257587   5.155   3.460  11.678 -0.3153 -1.2204 -0.0160
12058TIP3   OH257588   1.939   3.887   4.469  0.3185  0.1731  0.1374
12058TIP3    H157589   1.888   3.926   4.540 -0.1644 -3.3903  1.9347
12058TIP3    H257590   1.992   3.819   4.511  0.3441 -1.8206 -2.8206
12059TIP3   OH257591   2.790   6.711   1.794 -0.2069 -0.0747  0.5411
12059TIP3    H157592   2.868   6.735   1.844  1.0913  0.4866 -1.6010
12059TIP3    H257593   2.794   6.616   1.786  1.4524  0.0712 -1.2148
12060TIP3   OH257594   4.813   5.979   1.496  0.6192  0.3668 -0.6916
12060TIP3    H157595   4.751   5.913   1.464  0.3599  0.3099 -0.0813
12060TIP3    H257596   4.765   6.062   1.488 -0.5065  0.0795  2.0735
12061TIP3   OH257597   3.922   2.287   0.817 -0.3229  0.1702  0.2339
12061TIP3    H157598   3.970   2.336   0.884 -1.4060  1.3880  0.1681
12061TIP3    H257599   3.940   2.333   0.735 -1.9993  1.0309  0.2903
12062TIP3   OH257600   1.249   1.523  12.956  0.1066 -0.3947  0.2627
12062TIP3    H157601   1.308   1.475  13.014 -0.0216 -0.2183  0.5400
12062TIP3    H257602   1.275   1.615  12.966 -0.4811 -0.2689  0.7032
12063TIP3   OH257603   4.263   3.711   4.309 -0.3559 -0.5883  0.0899
12063TIP3    H157604   4.266   3.668   4.224  1.0153  0.6298 -0.5256
12063TIP3    H257605   4.354   3.714   4.339 -0.6358  0.2383  0.9470
12064TIP3   OH257606   4.887   0.219   0.561  0.3699 -0.2160 -0.2446
12064TIP3    H157607   4.828   0.161   0.512  0.7417  0.0515 -1.0293
12064TIP3    H257608   4.898   0.176   0.646 -0.5309 -0.5368 -0.2809
12065TIP3   OH257609   0.301   0.736   1.595 -0.2886 -0.1735 -0.4172
12065TIP3    H157610   0.244   0.690   1.657 -1.4725  0.1484 -1.2372
12065TIP3    H257611   0.369   0.776   1.650 -0.7808 -0.6599  0.5700
12066TIP3   OH257612   1.439   2.467  12.418  0.2425  0.4157 -0.2432
12066TIP3    H157613   1.352   2.505  12.430  0.4632  0.4757  1.3987
12066TIP3    H257614   1.480   2.521  12.351 -0.6603  0.9677 -0.3578
12067TIP3   OH257615   4.118   2.718   4.300  0.2963  1.0377 -0.1659
12067TIP3    H157616   4.106   2.626   4.325  0.4688  0.6359 -1.4931
12067TIP3    H257617   4.075   2.767   4.370 -0.3506 -0.0705  0.2473
12068TIP3   OH257618   4.569   3.727  16.393 -0.3185  0.2101 -0.1387
12068TIP3    H157619   4.554   3.645  16.347  1.1817 -0.6664  0.8693
12068TIP3    H257620   4.535   3.794  16.334 -1.1707 -1.0877 -1.1665
12069TIP3   OH257621   1.550   2.793   3.238  0.0116 -0.3429  0.4428
12069TIP3    H157622   1.539   2.708   3.195  0.6344 -0.1499 -0.1288
12069TIP3    H257623   1.535   2.857   3.169 -0.4786  0.0166  0.8771
12070TIP3   OH257624   5.495   2.354   2.470 -0.2848 -0.8008 -0.3975
12070TIP3    H157625   5.524   2.303   2.545 -0.1457 -1.4284 -0.8738
12070TIP3    H257626   5.531   2.442   2.486 -0.7441 -0.7701  0.5471
12071TIP3   OH257627   1.152   0.411   4.144 -0.3776  0.1162 -0.2353
12071TIP3    H157628   1.102   0.410   4.062 -1.6887  1.6688  0.4888
12071TIP3    H257629   1.094   0.371   4.208 -0.1312  0.6428  0.3260
12072TIP3   OH257630   3.833   3.013   5.840 -0.2500  0.0493 -0.3524
12072TIP3    H157631   3.745   3.036   5.871  0.1029 -0.1027  0.8137
12072TIP3    H257632   3.847   3.070   5.764 -1.8771 -0.8954 -1.4033
12073TIP3   OH257633   3.304   1.885   3.574 -0.1174  0.6636  0.0776
12073TIP3    H157634   3.349   1.959   3.614 -3.0856  2.0146  1.1472
12073TIP3    H257635   3.246   1.924   3.509 -1.1937 -0.7617  0.1364
12074TIP3   OH257636   2.738   6.208  15.372 -0.0299 -0.2761 -0.0851
12074TIP3    H157637   2.795   6.170  15.304  0.4044 -1.0134  0.6793
12074TIP3    H257638   2.663   6.243  15.323  0.6741 -0.0354 -1.0302
12075TIP3   OH257639   3.765   2.259   6.256 -0.3810 -0.0344  0.3459
12075TIP3    H157640   3.696   2.204   6.292  1.5042 -1.1874  2.4643
12075TIP3    H257641   3.746   2.346   6.290  0.5315 -0.8260  3.0886
12076TIP3   OH257642   1.871   5.071  12.802  0.9322 -0.0316  0.1779
12076TIP3    H157643   1.876   5.123  12.722 -0.1277 -1.5024 -0.9036
12076TIP3    H257644   1.779   5.075  12.828  0.3714 -2.8298 -1.0291
12077TIP3   OH257645   1.860   5.231  13.195  0.2777 -0.4996 -0.0344
12077TIP3    H157646   1.894   5.316  13.169 -0.7985  0.4783  1.5651
12077TIP3    H257647   1.932   5.170  13.179  1.1215  0.7305 -1.0569
12078TIP3   OH257648   0.978   0.348   3.296  0.5490 -0.2368  0.0775
12078TIP3    H157649   0.997   0.421   3.355 -1.5565 -1.4343  2.4422
12078TIP3    H257650   0.902   0.377   3.246 -0.5127 -0.8780  1.2735
12079TIP3   OH257651   2.433   4.108   3.504  0.2775  0.2097  0.0812
12079TIP3    H157652   2.510   4.052   3.491 -0.7236 -1.1317 -0.2471
12079TIP3    H257653   2.386   4.104   3.421 -1.5968 -1.2956  1.1144
12080TIP3   OH257654   5.761   0.146   6.113 -0.6277 -0.2037 -0.3218
12080TIP3    H157655   5.828   0.081   6.091  0.1393  0.3205  0.4317
12080TIP3    H257656   5.737   0.184   6.028  0.8682  0.4083 -0.5117
12081TIP3   OH257657   1.507   4.262  17.291 -1.0356  0.0027 -0.0455
12081TIP3    H157658   1.475   4.344  17.328 -2.4358  0.2455 -1.6700
12081TIP3    H257659   1.574   4.288  17.228 -0.2135 -0.2557  0.6977
12082TIP3   OH257660   2.539   3.298   0.310  0.4845 -0.4901 -0.2536
12082TIP3    H157661   2.590   3.273   0.387  0.7205 -0.8506 -0.5194
12082TIP3    H257662   2.548   3.393   0.304  0.6533 -0.4872  0.0328
12083TIP3   OH257663   4.613   3.528  12.362 -0.3765  0.0415  0.3120
12083TIP3    H157664   4.517   3.523  12.365 -0.5481  1.2296 -1.5819
12083TIP3    H257665   4.641   3.445  12.324 -0.6167 -0.4085  1.0905
12084TIP3   OH257666   5.412   5.833  14.025 -0.1145  0.3155  0.4920
12084TIP3    H157667   5.327   5.863  13.990 -0.1047  0.3969  0.5372
12084TIP3    H257668   5.466   5.912  14.026  0.4941 -0.0396 -1.0790
12085TIP3   OH257669   2.680   1.199   2.933  0.2903  0.1681 -0.3616
12085TIP3    H157670   2.640   1.165   2.853  0.9115 -0.2169 -0.5105
12085TIP3    H257671   2.740   1.131   2.962  0.7189  0.6690 -0.0479
12086TIP3   OH257672   2.447   4.878  10.888 -0.6499  0.4408  0.0087
12086TIP3    H157673   2.484   4.916  10.967 -1.8738  1.0522  0.3204
12086TIP3    H257674   2.366   4.835  10.918 -0.2476 -0.8232 -0.6357
12087TIP3   OH257675   5.696   4.508   3.088  0.0406  0.4813  0.3839
12087TIP3    H157676   5.673   4.595   3.057 -0.8532  0.2492  0.3769
12087TIP3    H257677   5.760   4.476   3.023  0.6536  1.2577  0.5856
12088TIP3   OH257678   4.971   0.423   1.590 -0.1263  0.0894 -0.0774
12088TIP3    H157679   4.924   0.405   1.509 -1.3858 -0.5518  0.7577
12088TIP3    H257680   4.928   0.369   1.655 -0.2037  1.7992  1.3679
12089TIP3   OH257681   4.174   1.396   5.585 -0.1358 -0.8340  0.2988
12089TIP3    H157682   4.181   1.392   5.489  0.2953  1.1073  0.2154
12089TIP3    H257683   4.261   1.369   5.616  0.2146 -0.0184  0.0667
12090TIP3   OH257684   0.579   1.701   6.288  0.0862 -0.5831  0.1004
12090TIP3    H157685   0.585   1.753   6.208  0.4227  0.0536  0.5343
12090TIP3    H257686   0.586   1.611   6.258 -1.2165 -0.4353 -0.7405
12091TIP3   OH257687   2.139   0.361   0.998 -0.0853 -0.6185  0.5413
12091TIP3    H157688   2.171   0.287   0.947  0.7390 -0.4534  0.7971
12091TIP3    H257689   2.044   0.353   0.995 -0.1109 -0.1030 -1.7408
12092TIP3   OH257690   3.689   3.829   3.955 -0.5911  0.1169  0.2887
12092TIP3    H157691   3.677   3.781   4.037 -1.1663 -3.5519 -1.7400
12092TIP3    H257692   3.702   3.762   3.889 -0.3512  2.8777 -2.7485
12093TIP3   OH257693   6.629   4.480  13.878  0.6523  0.9345  0.3120
12093TIP3    H157694   6.637   4.401  13.933  1.7298  0.9325  0.1801
12093TIP3    H257695   6.650   4.449  13.790 -4.4743  0.1252 -0.9558
12094TIP3   OH257696   1.769   4.050  11.689  0.1706 -0.1914  0.2101
12094TIP3    H157697   1.770   4.144  11.671  0.4602  0.0945  1.6212
12094TIP3    H257698   1.750   4.010  11.604 -0.3883  1.1553 -0.3300
12095TIP3   OH257699   1.893   6.005  17.105  0.8308 -0.5763  0.1207
12095TIP3    H157700   1.957   6.077  17.102 -0.7689  0.9583  0.8578
12095TIP3    H257701   1.887   5.975  17.014  0.5531  1.1859 -0.4914
12096TIP3   OH257702   4.361   3.288   1.260  0.5905 -0.1119  0.1911
12096TIP3    H157703   4.440   3.333   1.229  1.5593 -0.6285  1.8163
12096TIP3    H257704   4.337   3.333   1.340 -0.7356 -0.0291 -0.2304
12097TIP3   OH257705   4.022   2.794   2.604 -0.2520  0.3012 -0.8016
12097TIP3    H157706   3.967   2.723   2.570  2.8818 -4.2586  2.4000
12097TIP3    H257707   3.991   2.808   2.693  0.6344  1.3028 -0.6366
12098TIP3   OH257708   6.103   5.358  13.139  0.6017  0.0455 -0.0300
12098TIP3    H157709   6.159   5.434  13.157  0.2227  0.4012 -0.3131
12098TIP3    H257710   6.076   5.370  13.048  1.5734 -1.1160 -0.4893
12099TIP3   OH257711   0.227   5.890   3.976  0.5412 -0.0096 -0.2343
12099TIP3    H157712   0.264   5.856   4.057  1.0945 -3.0970 -1.6599
12099TIP3    H257713   0.301   5.894   3.915 -0.3333 -0.2728 -1.3473
12100TIP3   OH257714   5.042   5.930   0.956  0.2100 -0.3021  0.5991
12100TIP3    H157715   5.038   5.846   1.002 -0.6805 -1.3046 -1.2300
12100TIP3    H257716   5.125   5.968   0.984  1.0273 -2.1607  0.8705
12101TIP3   OH257717   0.543   0.978   2.059 -0.2564 -0.2248  0.5568
12101TIP3    H157718   0.545   0.954   2.152 -1.9458  0.4837  0.8262
12101TIP3    H257719   0.481   1.051   2.055 -1.0770 -0.9564 -1.2685
12102TIP3   OH257720   6.756   5.472   5.407 -0.4768 -0.2163  0.5124
12102TIP3    H157721   6.821   5.402   5.401 -1.1950 -1.0203  1.7496
12102TIP3    H257722   6.754   5.495   5.500 -2.9718 -1.2338  0.7748
12103TIP3   OH257723   4.915   0.100  14.626 -0.0343  0.1000 -0.3023
12103TIP3    H157724   4.849   0.033  14.611  1.1595 -1.8966  2.4914
12103TIP3    H257725   4.982   0.083  14.561 -0.1104 -0.9382 -0.1213
12104TIP3   OH257726   0.978   3.676  10.584  0.3060 -0.3033  0.4614
12104TIP3    H157727   1.007   3.593  10.548  1.5547  0.1373  0.4035
12104TIP3    H257728   0.893   3.692  10.542  1.2031 -0.3258 -1.4763
12105TIP3   OH257729   2.230   6.328  16.542  0.0815 -0.4713 -0.5826
12105TIP3    H157730   2.197   6.418  16.539  0.2301 -0.4509 -1.8126
12105TIP3    H257731   2.320   6.334  16.511 -0.0654 -1.1156 -1.1507
12106TIP3   OH257732   2.919   6.056  13.591 -0.0416  0.4364 -0.3235
12106TIP3    H157733   2.970   6.021  13.664  1.2509  0.0220 -1.3983
12106TIP3    H257734   2.906   6.148  13.613  1.2835  0.5798 -0.0920
12107TIP3   OH257735   6.058   2.897  11.357  0.0240  0.0384 -0.7017
12107TIP3    H157736   6.019   2.973  11.313  0.7410  1.9677  1.7471
12107TIP3    H257737   6.110   2.935  11.428 -0.2351 -2.8073  1.1622
12108TIP3   OH257738   0.318   3.143  13.739 -0.3906 -0.4810  0.4207
12108TIP3    H157739   0.238   3.093  13.757 -0.1403 -0.7914  0.6847
12108TIP3    H257740   0.369   3.086  13.682 -0.5387 -0.1054 -0.0979
12109TIP3   OH257741   2.670   3.008   0.582 -0.4834 -0.1998 -0.5403
12109TIP3    H157742   2.706   3.023   0.495  1.4404 -1.8436 -0.1097
12109TIP3    H257743   2.747   2.993   0.637 -1.7396 -1.4496  0.9757
12110TIP3   OH257744   0.825   3.817   4.626 -0.1089 -0.2620 -0.1837
12110TIP3    H157745   0.850   3.784   4.713 -0.1357  2.1976  0.8506
12110TIP3    H257746   0.781   3.744   4.584 -1.7572 -1.0403  2.6252
12111TIP3   OH257747   5.891   2.293   0.848 -0.0915  0.3223  0.1163
12111TIP3    H157748   5.898   2.386   0.870 -1.5200  0.3816  0.4219
12111TIP3    H257749   5.819   2.261   0.903 -0.3544 -0.7053 -0.7949
12112TIP3   OH257750   4.906   2.028   3.688 -0.3724 -0.4976 -0.9603
12112TIP3    H157751   4.943   2.110   3.655  0.0549 -0.4075 -0.2758
12112TIP3    H257752   4.812   2.045   3.694 -0.0109  1.1703  2.3575
12113TIP3   OH257753   3.191   1.882   4.873 -0.0110  0.0319  0.2350
12113TIP3    H157754   3.262   1.826   4.904 -1.2055 -0.6194  2.0046
12113TIP3    H257755   3.231   1.968   4.864  1.3783 -0.6489 -0.4968
12114TIP3   OH257756   4.315   1.352   1.245  0.0234  0.4395 -0.0882
12114TIP3    H157757   4.271   1.286   1.298 -0.3441  0.7502 -0.0033
12114TIP3    H257758   4.247   1.385   1.186  0.1166  0.9762  0.0963
12115TIP3   OH257759   6.151   3.644   0.569  0.2224 -0.3752  0.0488
12115TIP3    H157760   6.066   3.603   0.583  0.2381 -0.6847 -0.7066
12115TIP3    H257761   6.131   3.727   0.525  0.2341  0.1177  0.9657
12116TIP3   OH257762   4.031   0.169  16.816  0.7814  0.2744 -0.1267
12116TIP3    H157763   4.033   0.262  16.839 -0.6318  0.8507 -2.0912
12116TIP3    H257764   4.011   0.124  16.898  1.9713  1.6358  0.9566
12117TIP3   OH257765   3.385   1.099   2.578  0.8893 -0.1352  0.4165
12117TIP3    H157766   3.333   1.042   2.520 -0.1968  0.4608  0.7772
12117TIP3    H257767   3.436   1.153   2.519 -0.8904  1.1063 -0.0696
12118TIP3   OH257768   5.503   6.221   1.454  0.0069 -0.5164 -0.8168
12118TIP3    H157769   5.440   6.151   1.435  1.8704 -2.0512 -1.7136
12118TIP3    H257770   5.518   6.263   1.370 -2.2012  2.0698 -0.0469
12119TIP3   OH257771   1.308   4.948   6.676 -0.0403 -0.2254  0.2595
12119TIP3    H157772   1.389   4.915   6.717 -0.5324 -1.0186  0.6213
12119TIP3    H257773   1.243   4.945   6.746  0.3758  3.7787  1.0120
12120TIP3   OH257774   6.511   0.400  15.258 -0.1797 -0.2658  0.3137
12120TIP3    H157775   6.431   0.364  15.295  0.3181 -0.1919  1.5256
12120TIP3    H257776   6.566   0.323  15.240 -0.1499 -0.2658  0.4025
12121TIP3   OH257777   6.178   2.832   4.929  0.4122 -0.0469 -0.3197
12121TIP3    H157778   6.225   2.915   4.923  1.5927 -0.6101  0.6936
12121TIP3    H257779   6.147   2.816   4.840  1.3316  0.8163 -0.8208
12122TIP3   OH257780   2.773   5.111  12.099 -0.6562  0.1964 -0.5109
12122TIP3    H157781   2.758   5.142  12.010 -1.4256 -0.1011 -0.4943
12122TIP3    H257782   2.691   5.067  12.124 -0.6044  0.6266  0.4882
12123TIP3   OH257783   2.212   3.932  12.107 -0.0002  0.0103 -0.0540
12123TIP3    H157784   2.222   3.838  12.122  0.3557  0.0102 -0.2713
12123TIP3    H257785   2.130   3.955  12.150 -1.4884 -0.9032 -2.2329
12124TIP3   OH257786   0.603   3.547   6.317  0.0556 -0.3842  0.4912
12124TIP3    H157787   0.649   3.579   6.395  0.8159 -1.0521  0.3297
12124TIP3    H257788   0.650   3.467   6.293  0.7137  0.5316 -1.4637
12125TIP3   OH257789   5.079   0.830   4.104 -0.2678  0.6048 -0.2397
12125TIP3    H157790   5.046   0.894   4.042 -0.8202  0.3575 -0.2106
12125TIP3    H257791   5.160   0.867   4.137  0.0919  0.6762 -1.2004
12126TIP3   OH257792   2.394   5.274   1.048 -0.3251 -0.4211 -0.2732
12126TIP3    H157793   2.355   5.228   1.123  3.2904 -0.3436  1.9082
12126TIP3    H257794   2.465   5.216   1.019  1.8557  1.9482  0.0274
12127TIP3   OH257795   5.466   3.763   0.403  0.2462  0.2400  0.3021
12127TIP3    H157796   5.463   3.720   0.489  1.1794  0.7216  0.5933
12127TIP3    H257797   5.551   3.807   0.401  0.0265  0.6572 -0.6722
12128TIP3   OH257798   2.425   6.363   2.987 -0.5331  0.0327 -0.2546
12128TIP3    H157799   2.390   6.448   2.964 -1.1180 -0.1777 -0.1580
12128TIP3    H257800   2.515   6.364   2.954  0.5342  1.8031  2.3123
12129TIP3   OH257801   5.064   5.075   1.052 -0.0944 -0.6415 -0.0317
12129TIP3    H157802   5.117   5.082   1.131  0.1154 -2.1451 -0.0086
12129TIP3    H257803   4.975   5.057   1.084 -0.1382 -0.5835 -0.1198
12130TIP3   OH257804   2.952   1.433   0.107  0.3982  0.0330  0.0439
12130TIP3    H157805   2.994   1.459   0.189 -1.4093  2.5490  0.3219
12130TIP3    H257806   2.880   1.376   0.134  2.4639 -2.9301 -0.2947
12131TIP3   OH257807   5.315   4.588  16.846 -0.1833  0.1532 -0.5309
12131TIP3    H157808   5.226   4.570  16.817 -0.4153  0.6538 -0.1470
12131TIP3    H257809   5.364   4.509  16.823 -0.9471 -0.5425  0.1563
12132TIP3   OH257810   6.089   5.051  16.207 -0.1952  0.0799  0.3030
12132TIP3    H157811   6.092   4.958  16.184 -2.3615 -0.1416  0.6406
12132TIP3    H257812   5.995   5.072  16.206  0.3048  2.7248 -1.5391
12133TIP3   OH257813   2.387   2.962   1.356 -0.2946  0.2494  0.2335
12133TIP3    H157814   2.425   2.878   1.382 -0.4558  0.0939 -0.0209
12133TIP3    H257815   2.462   3.017   1.333 -0.1975  0.1090  0.2139
12134TIP3   OH257816   1.159   0.820   4.967 -0.0636  0.0272 -0.5333
12134TIP3    H157817   1.141   0.852   4.879  1.1426 -0.1960 -0.8755
12134TIP3    H257818   1.073   0.798   5.002 -0.4181 -1.8840 -2.4167
12135TIP3   OH257819   0.495   2.654   5.139  0.4849 -0.5349  0.2796
12135TIP3    H157820   0.508   2.716   5.211 -1.1491  0.7100 -0.4395
12135TIP3    H257821   0.415   2.607   5.163  0.5535 -0.8937 -0.1944
12136TIP3   OH257822   1.142   5.249  13.291  0.5536 -0.1814 -0.3996
12136TIP3    H157823   1.223   5.214  13.327 -0.3184  0.9874  3.0897
12136TIP3    H257824   1.094   5.172  13.261  0.7181 -1.5964  2.5777
12137TIP3   OH257825   4.972   3.512   6.011 -0.1999  0.4843  0.2292
12137TIP3    H157826   4.982   3.513   6.107 -1.9756 -0.1587  0.4615
12137TIP3    H257827   4.953   3.421   5.990 -2.2260  0.9919 -0.4052
12138TIP3   OH257828   6.226   1.648   0.473  0.0938 -0.1244  0.3844
12138TIP3    H157829   6.303   1.597   0.447 -0.8212 -0.4560 -1.8433
12138TIP3    H257830   6.263   1.728   0.511  1.5299 -1.3185  1.6526
12139TIP3   OH257831   0.177   6.761   4.592 -0.1223 -0.0113  0.0212
12139TIP3    H157832   0.232   6.826   4.637 -2.2652  1.7262  0.3287
12139TIP3    H257833   0.234   6.723   4.525  1.2137  2.3194 -0.2781
12140TIP3   OH257834   4.127   2.991  10.735 -0.1420 -0.1602  0.3828
12140TIP3    H157835   4.068   3.056  10.698 -0.6942 -1.4924 -1.1894
12140TIP3    H257836   4.190   3.042  10.786 -0.6733  1.5671 -0.6083
12141TIP3   OH257837   5.696   4.561   6.005 -0.2098 -0.3769  0.6355
12141TIP3    H157838   5.791   4.571   5.997 -0.5785  1.6303 -2.4899
12141TIP3    H257839   5.675   4.607   6.086  1.1317  2.7939 -0.6504
12142TIP3   OH257840   4.672   2.053  14.244 -0.9236 -0.0054  0.1657
12142TIP3    H157841   4.577   2.059  14.232 -1.0372 -0.9993  0.4853
12142TIP3    H257842   4.695   1.967  14.209 -0.0231  0.5126 -0.5687
12143TIP3   OH257843   3.254   5.795   1.153 -0.0499  0.3699 -0.4125
12143TIP3    H157844   3.229   5.864   1.215 -1.0521 -0.5400  0.2158
12143TIP3    H257845   3.268   5.842   1.070 -0.7646  1.3263 -0.0101
12144TIP3   OH257846   4.837   3.940   1.076 -0.4048  0.0735  1.0769
12144TIP3    H157847   4.930   3.923   1.065 -0.0903  1.5738  1.1402
12144TIP3    H257848   4.827   3.960   1.169 -0.2516  2.6355  0.6083
12145TIP3   OH257849   6.678   0.643   1.424 -0.2007  0.4228 -0.4807
12145TIP3    H157850   6.658   0.713   1.486 -1.5858 -0.7655  0.4694
12145TIP3    H257851   6.772   0.654   1.405  0.5129  0.2780  2.5254
12146TIP3   OH257852   4.950   0.712   4.909  0.1501  0.0655 -0.2466
12146TIP3    H157853   4.914   0.780   4.851  2.8458  0.3400 -1.7616
12146TIP3    H257854   4.966   0.637   4.850 -1.5815 -1.5113  1.1529
12147TIP3   OH257855   3.265   5.406   1.188  0.2653 -0.1240  0.7723
12147TIP3    H157856   3.323   5.344   1.145  0.6330  0.4095  0.4808
12147TIP3    H257857   3.314   5.489   1.188  0.2565 -0.0920  2.1830
12148TIP3   OH257858   5.231   3.358  11.978 -0.0187  0.9081  0.1933
12148TIP3    H157859   5.183   3.431  12.017 -2.7808  0.6667 -2.3867
12148TIP3    H257860   5.167   3.287  11.971  1.6140 -0.5678 -0.5738
12149TIP3   OH257861   1.669   6.027  10.588  0.0095 -0.3540  0.3333
12149TIP3    H157862   1.749   6.061  10.628 -0.2927  2.2782 -1.0525
12149TIP3    H257863   1.598   6.075  10.631 -0.4736  0.7117 -1.5480
12150TIP3   OH257864   2.337   3.327   3.091 -0.4988 -0.3035 -0.0443
12150TIP3    H157865   2.334   3.237   3.057 -1.6087  0.1904 -1.3252
12150TIP3    H257866   2.397   3.322   3.165  0.1065 -1.9364 -0.5963
12151TIP3   OH257867   4.116   5.023   0.118 -0.3874 -0.4781  0.4957
12151TIP3    H157868   4.073   5.099   0.079  1.0182  0.7743  1.3177
12151TIP3    H257869   4.155   4.977   0.044  1.8208  1.5924  0.2546
12152TIP3   OH257870   4.319   3.504  12.261 -0.0840 -0.2884 -0.4363
12152TIP3    H157871   4.355   3.523  12.174 -0.0346  0.0925 -0.3357
12152TIP3    H257872   4.357   3.420  12.285  0.0753 -0.2913 -0.6925
12153TIP3   OH257873   2.123   2.717  13.804 -0.2435 -0.0481 -0.3442
12153TIP3    H157874   2.216   2.735  13.816  0.3688 -1.4968 -2.3711
12153TIP3    H257875   2.116   2.684  13.714 -2.1930 -3.1666  0.7930
12154TIP3   OH257876   1.948   1.785   3.221 -0.1439  0.2321  0.4972
12154TIP3    H157877   1.903   1.807   3.303 -0.0512 -0.3663  0.7150
12154TIP3    H257878   2.034   1.752   3.249 -0.1972 -0.1900  0.1770
12155TIP3   OH257879   1.492   4.861  12.958 -0.0510  0.1982  0.3365
12155TIP3    H157880   1.474   4.781  12.909  1.2627  0.0287  0.1152
12155TIP3    H257881   1.509   4.927  12.891 -0.5646  0.5373  0.5320
12156TIP3   OH257882   4.189   0.159  11.906 -0.1212 -0.0777  0.0044
12156TIP3    H157883   4.131   0.137  11.833  0.7300  1.9621 -1.3888
12156TIP3    H257884   4.236   0.078  11.924 -0.4310 -0.6768 -1.6740
12157TIP3   OH257885   1.915   1.646   5.536  0.5137  0.0282 -0.3351
12157TIP3    H157886   1.952   1.636   5.448 -1.1051 -0.3192 -1.0073
12157TIP3    H257887   1.985   1.688   5.586  1.5345  0.0865 -1.7397
12158TIP3   OH257888   3.579   6.698  15.523 -0.4590 -0.2028 -0.1094
12158TIP3    H157889   3.612   6.655  15.602  0.4465  0.0265 -0.3450
12158TIP3    H257890   3.491   6.662  15.510  0.1662 -1.8170 -0.1614
12159TIP3   OH257891   6.246   4.180  12.686  0.0975  0.0311  0.0399
12159TIP3    H157892   6.208   4.092  12.685  0.5902 -0.1987  0.9043
12159TIP3    H257893   6.254   4.204  12.593 -0.2533 -0.7426 -0.1933
12160TIP3   OH257894   6.341   4.063  12.935 -0.1883 -0.2573  0.0586
12160TIP3    H157895   6.305   4.139  12.890  0.8971  0.1926 -0.0590
12160TIP3    H257896   6.435   4.069  12.922  0.0561 -0.7338  1.4339
12161TIP3   OH257897   4.961   3.873   3.419 -0.4014 -0.4750  0.1568
12161TIP3    H157898   4.943   3.780   3.433  0.0341 -0.3807  1.4983
12161TIP3    H257899   5.049   3.875   3.381 -0.9023 -0.6537 -1.0565
12162TIP3   OH257900   5.181   3.084   1.717 -0.2883  0.0398 -0.1326
12162TIP3    H157901   5.214   3.006   1.762  2.0423 -0.0873 -1.8803
12162TIP3    H257902   5.182   3.153   1.783  0.1578 -0.8003  0.7605
12163TIP3   OH257903   4.604   1.026   6.590 -0.2354 -0.6622 -0.1705
12163TIP3    H157904   4.528   1.072   6.626 -0.7093 -0.3965 -1.4505
12163TIP3    H257905   4.644   1.089   6.530 -0.4515 -1.6179 -1.3676
12164TIP3   OH257906   4.867   6.692   0.093  0.0074  0.2092 -0.3474
12164TIP3    H157907   4.931   6.621   0.091  0.6767  0.7917 -0.0085
12164TIP3    H257908   4.792   6.658   0.044  0.3084 -0.7342 -0.1639
12165TIP3   OH257909   4.955   5.414   1.864 -0.0396  0.6322  0.3911
12165TIP3    H157910   4.894   5.486   1.879  0.6115  1.1535  0.6194
12165TIP3    H257911   4.936   5.351   1.934 -0.6243  0.5673  0.1774
12166TIP3   OH257912   6.628   2.535   3.321  0.0872  0.7258 -0.3449
12166TIP3    H157913   6.632   2.552   3.227 -1.4406  0.7358 -0.4282
12166TIP3    H257914   6.598   2.618   3.359 -0.7205  0.3032 -0.0259
12167TIP3   OH257915   2.127   1.546   4.289  0.2646 -0.0201  0.0079
12167TIP3    H157916   2.189   1.508   4.352  1.1788 -0.3023 -1.0402
12167TIP3    H257917   2.065   1.475   4.271  1.2297 -0.6309 -0.9822
12168TIP3   OH257918   0.649   5.642  11.296 -0.0922 -0.5011  0.2258
12168TIP3    H157919   0.724   5.688  11.334  1.1020 -2.0689 -0.1354
12168TIP3    H257920   0.653   5.664  11.203  0.9971 -1.9681 -0.0973
12169TIP3   OH257921   3.793   4.420  13.698  0.3301  0.0595  0.4912
12169TIP3    H157922   3.728   4.414  13.768 -0.9205  1.8134 -0.4290
12169TIP3    H257923   3.877   4.428  13.743 -0.0158 -2.1697  1.7137
12170TIP3   OH257924   3.028   0.473   1.417 -0.1244  0.5102 -0.8179
12170TIP3    H157925   3.080   0.458   1.338  0.2945 -1.1025 -0.2735
12170TIP3    H257926   2.938   0.476   1.386  0.1493  1.6051 -1.5583
12171TIP3   OH257927   0.038   5.809  15.528 -0.1484  0.3199 -0.2222
12171TIP3    H157928   0.055   5.873  15.597  0.0425 -0.3403  0.3600
12171TIP3    H257929  -0.056   5.794  15.531 -0.2654  0.9246 -0.6858
12172TIP3   OH257930   4.457   6.542   4.065  0.2545  0.4513  0.4761
12172TIP3    H157931   4.470   6.557   3.971  2.3755  0.7012  0.7642
12172TIP3    H257932   4.479   6.450   4.077  0.4571  0.5434  0.8044
12173TIP3   OH257933   4.514   4.299  13.627 -0.0531 -0.1633 -0.1857
12173TIP3    H157934   4.508   4.258  13.714 -0.6313 -1.7674 -0.9401
12173TIP3    H257935   4.604   4.329  13.621 -0.2657  0.9372  1.3636
12174TIP3   OH257936   4.477   2.944   3.014 -0.0412 -0.5811 -0.8315
12174TIP3    H157937   4.408   2.972   3.074  0.2390  1.2345 -1.3084
12174TIP3    H257938   4.481   2.849   3.025 -1.6367 -0.5605  0.2415
12175TIP3   OH257939   3.758   4.674   1.707 -0.3840 -0.1527  0.3188
12175TIP3    H157940   3.829   4.739   1.704 -0.6940  0.1615 -0.7861
12175TIP3    H257941   3.797   4.595   1.670 -0.9242  0.3675 -1.4463
12176TIP3   OH257942   1.989   3.056  11.296 -1.0652 -0.4004 -0.2934
12176TIP3    H157943   2.004   3.149  11.312 -2.7391 -0.0940 -0.3887
12176TIP3    H257944   1.957   3.052  11.206  2.6397 -1.5141 -1.7535
12177TIP3   OH257945   2.276   3.542  16.016  0.4925  0.9920 -0.1850
12177TIP3    H157946   2.299   3.630  16.049  0.7743  1.2633 -1.0819
12177TIP3    H257947   2.360   3.500  16.000  0.3538  0.7332 -0.2324
12178TIP3   OH257948   0.802   0.241  13.069  0.5381 -0.1220 -0.2729
12178TIP3    H157949   0.840   0.329  13.071 -1.6546  0.9044  2.0478
12178TIP3    H257950   0.828   0.202  13.152  0.2787 -1.0965 -0.6437
12179TIP3   OH257951   1.753   6.080   4.495 -0.5402 -0.0698 -0.0185
12179TIP3    H157952   1.741   6.152   4.433  0.7874 -0.9269 -1.3537
12179TIP3    H257953   1.704   6.106   4.573 -0.2236  2.1799 -0.5224
12180TIP3   OH257954   4.560   1.046  15.959  0.5151  0.3767 -0.2781
12180TIP3    H157955   4.633   1.075  15.904  0.4964  0.0615 -0.4705
12180TIP3    H257956   4.567   0.951  15.961 -1.4420  0.0754 -2.5372
12181TIP3   OH257957   2.138   5.750   1.905 -0.4197  0.3783 -0.1745
12181TIP3    H157958   2.164   5.715   1.820  1.4359  2.4455 -0.5661
12181TIP3    H257959   2.044   5.766   1.898 -0.2163  0.9711 -2.0475
12182TIP3   OH257960   0.506   4.706  16.422  0.1123 -0.6888 -0.0869
12182TIP3    H157961   0.499   4.636  16.358  1.3843  0.7747 -1.9514
12182TIP3    H257962   0.555   4.775  16.376 -0.4300  1.1112  1.8958
12183TIP3   OH257963   0.751   1.377  15.438  0.0377 -0.0044 -0.3943
12183TIP3    H157964   0.795   1.461  15.453  0.2690 -0.2847  0.5203
12183TIP3    H257965   0.690   1.368  15.511  0.7267 -1.0890  0.0821
12184TIP3   OH257966   5.586   5.984   1.292  0.6865  0.7437  0.8608
12184TIP3    H157967   5.671   6.017   1.263  1.4696 -2.2819 -0.6852
12184TIP3    H257968   5.528   6.001   1.218  1.2189 -1.5247 -0.1706
12185TIP3   OH257969   3.523   5.848   5.120 -0.4068 -0.4456  0.1162
12185TIP3    H157970   3.516   5.774   5.181  1.2311  0.6864  1.7959
12185TIP3    H257971   3.484   5.921   5.167 -0.7463  0.0802 -0.9566
12186TIP3   OH257972   2.300   0.020   4.974 -0.1397  0.1340  0.5628
12186TIP3    H157973   2.287   0.115   4.982  0.5015  0.4458 -1.4115
12186TIP3    H257974   2.381   0.002   5.021  1.7879  1.2728 -2.0636
12187TIP3   OH257975   1.043   3.459  15.531 -0.0139  0.2946  0.1478
12187TIP3    H157976   1.121   3.406  15.542  1.1740  1.8409 -0.4793
12187TIP3    H257977   1.031   3.465  15.436  0.7262  2.2732  0.1334
12188TIP3   OH257978   6.653   5.159  15.692 -0.5283 -0.0326  0.3771
12188TIP3    H157979   6.619   5.074  15.721  1.0832 -0.1083  2.3331
12188TIP3    H257980   6.609   5.223  15.748  0.7146  0.0570  1.3167
12189TIP3   OH257981   2.038   3.342  15.789  0.2612 -0.1022 -0.2511
12189TIP3    H157982   2.029   3.397  15.711  1.4860 -0.2694 -0.5232
12189TIP3    H257983   1.967   3.278  15.782 -0.2491  0.4987 -0.7023
12190TIP3   OH257984   3.930   1.108   3.215 -0.1565  0.1059 -0.4956
12190TIP3    H157985   3.914   1.102   3.309  2.0007 -1.2484 -0.1441
12190TIP3    H257986   3.931   1.202   3.196 -1.0555  0.3816  0.7291
12191TIP3   OH257987   4.609   6.368   6.109  0.0326  0.0672  0.8620
12191TIP3    H157988   4.585   6.321   6.189 -0.1784 -0.5719  0.4295
12191TIP3    H257989   4.636   6.455   6.139 -1.2198  0.2504  1.5289
12192TIP3   OH257990   5.792   2.808  14.397  0.8262  0.5959  0.3034
12192TIP3    H157991   5.824   2.721  14.373  1.0255  0.2711  1.6699
12192TIP3    H257992   5.697   2.802  14.383  0.4701 -0.6842  2.6248
12193TIP3   OH257993   0.318   5.230   3.904  0.3482  0.3682 -0.4001
12193TIP3    H157994   0.296   5.194   3.991 -2.1919  2.2641 -0.1450
12193TIP3    H257995   0.400   5.277   3.918  0.9307 -0.8583  0.5117
12194TIP3   OH257996   2.712   0.231  14.026  0.2010 -0.2011 -0.0581
12194TIP3    H157997   2.678   0.319  14.017 -1.6116 -0.9425 -0.8512
12194TIP3    H257998   2.801   0.235  13.989 -0.1910  1.0793 -0.9054
12195TIP3   OH257999   6.527   2.788  15.501  0.5140 -0.0894  0.2517
12195TIP3    H158000   6.569   2.792  15.415 -0.4885  0.2151 -0.2316
12195TIP3    H258001   6.493   2.876  15.516 -0.1423 -0.3805  0.5292
12196TIP3   OH258002   2.289   0.067  12.852 -0.3320  0.1673  0.2047
12196TIP3    H158003   2.211   0.122  12.857 -1.9083 -1.7322 -1.5023
12196TIP3    H258004   2.282   0.009  12.928  0.0180  0.7155  0.6572
12197TIP3   OH258005   0.728   1.590  16.337 -0.1525 -0.3551  0.6348
12197TIP3    H158006   0.729   1.562  16.429  1.1925 -0.4109  0.6209
12197TIP3    H258007   0.731   1.685  16.341  0.3331 -0.3678  0.6568
12198TIP3   OH258008   5.168   5.867  16.768  0.0482  0.4460  0.2948
12198TIP3    H158009   5.259   5.894  16.766 -0.0674  1.1576  2.1897
12198TIP3    H258010   5.123   5.938  16.814 -1.4650  0.1205 -0.6250
12199TIP3   OH258011   0.577   6.398  13.970  0.2344  0.0127  0.5664
12199TIP3    H158012   0.599   6.434  14.056 -1.3755  0.6566  0.7465
12199TIP3    H258013   0.569   6.475  13.914  1.9670 -0.4404 -0.3758
12200TIP3   OH258014   3.532   2.813  16.827  0.2530  0.4075 -0.3575
12200TIP3    H158015   3.501   2.797  16.916  0.0764  0.9898 -0.3091
12200TIP3    H258016   3.540   2.909  16.821  0.5217  0.3584 -0.8795
12201TIP3   OH258017   1.381   2.262  12.141  0.1347 -0.1104  0.1543
12201TIP3    H158018   1.287   2.270  12.153  0.2429  1.5179  0.0458
12201TIP3    H258019   1.419   2.285  12.226  0.4483 -0.4820  0.1195
12202TIP3   OH258020   0.873   0.480  10.870  0.3010  0.2354 -0.1980
12202TIP3    H158021   0.934   0.411  10.845  1.9148  1.9619 -1.3173
12202TIP3    H258022   0.824   0.499  10.791  1.5615  1.9468 -0.6304
12203TIP3   OH258023   0.476   3.752   2.656  0.6460 -0.7595  0.0689
12203TIP3    H158024   0.515   3.750   2.743  0.0290 -2.4247  0.3413
12203TIP3    H258025   0.388   3.715   2.668  0.1477 -0.0436 -1.0856
12204TIP3   OH258026   3.862   5.071  16.756  0.0581 -0.4379 -0.0097
12204TIP3    H158027   3.934   5.123  16.793 -0.7328  0.4845  0.2563
12204TIP3    H258028   3.897   5.040  16.672 -0.0194  1.9360 -0.9853
12205TIP3   OH258029   6.303   4.314   4.674  0.3408 -0.4826  0.1987
12205TIP3    H158030   6.250   4.361   4.740 -0.4079  0.0775 -0.7691
12205TIP3    H258031   6.360   4.382   4.637 -0.8011 -0.2780 -1.2645
12206TIP3   OH258032   2.416   3.459   0.970  0.0233  0.0890 -0.3010
12206TIP3    H158033   2.339   3.401   0.965  0.6007 -0.5966 -1.6920
12206TIP3    H258034   2.404   3.521   0.898  0.6799  0.0882 -0.4168
12207TIP3   OH258035   3.781   3.112  14.334  0.0844  0.6788  0.2144
12207TIP3    H158036   3.703   3.087  14.383  0.7926  0.2635  1.1514
12207TIP3    H258037   3.750   3.177  14.270 -1.0620  0.3192  0.3960
12208TIP3   OH258038   5.484   0.024   3.723 -0.1940  0.2589 -0.0268
12208TIP3    H158039   5.578   0.041   3.727  0.1253 -1.5431  1.2967
12208TIP3    H258040   5.476  -0.059   3.676 -0.9660 -0.4449  1.2886
12209TIP3   OH258041   6.530   4.299   5.658 -0.2826  0.1264  0.4060
12209TIP3    H158042   6.621   4.321   5.678 -0.2158  0.9241 -0.6998
12209TIP3    H258043   6.536   4.233   5.589 -0.5294 -1.6674  2.0142
12210TIP3   OH258044   2.779   6.115   4.001 -0.2963  0.3695  0.3078
12210TIP3    H158045   2.820   6.187   3.952  1.3502 -1.5223 -1.2518
12210TIP3    H258046   2.815   6.122   4.089 -0.4825  1.6791  0.3006
12211TIP3   OH258047   3.994   1.325  15.113 -0.0929 -0.2774  0.1034
12211TIP3    H158048   4.055   1.263  15.075 -0.3451 -0.4527 -0.0182
12211TIP3    H258049   3.982   1.392  15.046  0.2773 -0.0300  0.2834
12212TIP3   OH258050   2.451   6.682   1.572  0.0038 -0.3868  0.0877
12212TIP3    H158051   2.363   6.677   1.536 -0.6486 -3.2973  1.7324
12212TIP3    H258052   2.480   6.771   1.553 -3.0637  0.5118 -0.9661
12213TIP3   OH258053   4.724   1.597   3.379  0.0024 -0.0362 -0.6183
12213TIP3    H158054   4.759   1.577   3.292 -0.6516  0.3471 -0.9738
12213TIP3    H258055   4.745   1.689   3.393  0.5860 -0.2390 -0.1360
12214TIP3   OH258056   2.525   2.114   4.728 -0.6958 -0.0786 -0.5358
12214TIP3    H158057   2.578   2.078   4.657 -0.0822  0.1328 -0.1953
12214TIP3    H258058   2.585   2.119   4.803 -0.8946  1.1567 -0.4379
12215TIP3   OH258059   1.383   2.590   5.114 -0.6335 -0.1001  0.1262
12215TIP3    H158060   1.372   2.567   5.206  1.6277 -0.7901  0.2850
12215TIP3    H258061   1.350   2.680   5.108  1.1333  0.7559  2.1145
12216TIP3   OH258062   4.336   5.427  17.090  0.3237  0.0027  0.5335
12216TIP3    H158063   4.346   5.364  17.161  0.6492 -0.2888  0.2339
12216TIP3    H258064   4.267   5.486  17.120 -1.0739 -1.3927  0.1915
12217TIP3   OH258065   1.644   0.534   2.917  0.3107  0.4467  0.2262
12217TIP3    H158066   1.655   0.448   2.957  2.5895  1.0999  1.1858
12217TIP3    H258067   1.700   0.532   2.839 -0.3611  0.7569 -0.2751
12218TIP3   OH258068   1.564   1.984  16.074 -0.2418 -0.4012  0.0372
12218TIP3    H158069   1.511   1.935  16.137 -2.6202  0.6225 -1.0372
12218TIP3    H258070   1.565   1.929  15.996  0.6621 -0.5926  0.1730
12219TIP3   OH258071   4.241   3.312   4.835  0.7280 -0.8249 -0.6072
12219TIP3    H158072   4.253   3.312   4.740 -0.3983 -0.4681 -0.7635
12219TIP3    H258073   4.148   3.332   4.847  1.1176  0.4099  0.6071
12220TIP3   OH258074   5.033   1.218   2.295 -0.7864 -0.5710 -0.1735
12220TIP3    H158075   5.044   1.210   2.390 -1.9155  0.2496  0.0489
12220TIP3    H258076   4.972   1.291   2.285 -0.3518 -0.3784 -1.5534
12221TIP3   OH258077   2.301   2.484  11.396  0.3406  0.2677 -0.5871
12221TIP3    H158078   2.291   2.461  11.304  0.3613 -0.0729 -0.5051
12221TIP3    H258079   2.285   2.402  11.443 -0.2221  0.5607 -0.2567
12222TIP3   OH258080   3.009   2.213  11.080  0.2778 -0.2334  0.1771
12222TIP3    H158081   2.965   2.153  11.019  1.0109 -0.1461 -0.4587
12222TIP3    H258082   3.065   2.267  11.024  0.6405  0.1433  0.8907
12223TIP3   OH258083   5.786   3.253  16.182 -0.3242 -0.0565  0.5289
12223TIP3    H158084   5.696   3.221  16.179 -0.4798  0.2691  1.4814
12223TIP3    H258085   5.784   3.327  16.243  0.7640 -0.6757  1.3680
12224TIP3   OH258086   2.494   3.355   3.338 -0.3985 -0.3961  0.0918
12224TIP3    H158087   2.570   3.325   3.389 -0.4292  0.0038  0.3814
12224TIP3    H258088   2.525   3.432   3.291  0.3339 -2.0689 -2.3899
12225TIP3   OH258089   0.871   6.017   2.679  0.1263  0.3339 -0.3729
12225TIP3    H158090   0.822   6.097   2.697  1.2350  1.1793 -0.9744
12225TIP3    H258091   0.963   6.045   2.681  0.5186 -0.8732 -0.8371
12226TIP3   OH258092   1.188   4.222  15.308 -0.3617 -0.3572 -0.0740
12226TIP3    H158093   1.111   4.240  15.254  0.1318 -0.3681 -0.7831
12226TIP3    H258094   1.220   4.137  15.277  1.1658  0.5948 -1.2346
12227TIP3   OH258095   2.600   6.564  13.405  0.3406  0.7581 -0.5247
12227TIP3    H158096   2.691   6.586  13.385  0.4095  1.1803  0.1949
12227TIP3    H258097   2.601   6.469  13.419  0.2295  0.3969 -2.7218
12228TIP3   OH258098   5.852   1.060   5.465 -0.0787 -0.0327 -0.0290
12228TIP3    H158099   5.792   1.023   5.401 -1.3452  0.3889  0.8886
12228TIP3    H258100   5.806   1.053   5.549 -0.0464  2.8180  0.3137
12229TIP3   OH258101   0.746   4.110   3.601  0.3132  0.4378  0.0172
12229TIP3    H158102   0.695   4.060   3.664 -0.1185  0.9640  0.0910
12229TIP3    H258103   0.699   4.193   3.593  0.9777  0.7992 -0.1639
12230TIP3   OH258104   2.071   0.617  15.016  0.5007  0.3445  0.4693
12230TIP3    H158105   2.012   0.612  15.091 -0.1142 -3.1136 -0.0709
12230TIP3    H258106   2.021   0.664  14.949  0.9391  3.1760  1.9861
12231TIP3   OH258107   6.146   1.009  17.177 -0.3959  0.1692 -0.3322
12231TIP3    H158108   6.170   1.007  17.269  0.5710  0.4966 -0.5585
12231TIP3    H258109   6.129   1.102  17.159 -2.7252 -0.1473  0.0153
12232TIP3   OH258110   2.040   3.813   0.331 -0.1069 -0.2664  0.4511
12232TIP3    H158111   2.061   3.720   0.344 -1.6989 -0.5644  1.0864
12232TIP3    H258112   1.953   3.812   0.293 -0.3576  0.9919  0.9727
12233TIP3   OH258113   3.366   4.958  14.277 -0.5542  0.6003 -0.2494
12233TIP3    H158114   3.321   4.873  14.271  0.5151  0.0269 -0.5502
12233TIP3    H258115   3.385   4.969  14.370 -0.2280  0.2408 -0.2686
12234TIP3   OH258116   5.119   2.845  12.036  0.1919 -0.2677 -0.2461
12234TIP3    H158117   5.165   2.899  11.971  2.2349 -0.9477  0.5478
12234TIP3    H258118   5.184   2.781  12.064 -1.2647 -1.2720  1.0112
12235TIP3   OH258119   0.431   2.324  16.814  0.3187 -0.1750  1.0025
12235TIP3    H158120   0.526   2.314  16.802  0.3336 -0.7335  1.5141
12235TIP3    H258121   0.408   2.398  16.760  0.8593 -0.7595 -0.0661
12236TIP3   OH258122   4.102   5.139   4.517  0.4005  0.0888  0.7225
12236TIP3    H158123   4.103   5.230   4.489  0.9270  0.3675  1.6333
12236TIP3    H258124   4.018   5.105   4.485 -0.3315  1.2153  1.4138
12237TIP3   OH258125   6.751   1.732   5.671  0.1153 -0.0569 -0.8070
12237TIP3    H158126   6.841   1.718   5.699  0.7345  0.2990 -2.4671
12237TIP3    H258127   6.699   1.726   5.751  1.7325  0.9717  0.3795
12238TIP3   OH258128   4.358   5.510   2.357  0.1431  0.7542 -0.3791
12238TIP3    H158129   4.406   5.498   2.439  0.7116  0.8741 -0.6941
12238TIP3    H258130   4.409   5.574   2.308  1.5712 -1.5857 -2.1688
12239TIP3   OH258131   4.154   6.419  12.786 -0.8787 -0.0867 -0.3006
12239TIP3    H158132   4.104   6.466  12.852  1.1237  1.0829  0.4880
12239TIP3    H258133   4.149   6.327  12.812 -0.0576  0.3592  1.5940
12240TIP3   OH258134   6.612   4.070   1.540  0.0459 -0.2863  0.0146
12240TIP3    H158135   6.689   4.043   1.589  0.3324 -0.0816 -0.3257
12240TIP3    H258136   6.644   4.091   1.453 -0.4915 -0.8939 -0.3481
12241TIP3   OH258137   5.429   4.938  13.294  0.0081 -0.2360  0.0314
12241TIP3    H158138   5.490   4.983  13.353  0.9515  1.1185 -1.8819
12241TIP3    H258139   5.469   4.945  13.207 -2.0807 -0.7744 -1.0495
12242TIP3   OH258140   5.666   4.008   2.357  0.4178 -0.4515 -0.1252
12242TIP3    H158141   5.701   4.006   2.268 -0.1342 -2.1080 -0.3365
12242TIP3    H258142   5.579   3.969   2.350 -0.6420  1.6076  0.7654
12243TIP3   OH258143   5.851   1.145  17.134 -0.0581  0.0101 -0.1739
12243TIP3    H158144   5.872   1.193  17.054  1.8963 -1.1014 -0.3871
12243TIP3    H258145   5.779   1.087  17.108  1.2892 -1.1508 -1.4802
12244TIP3   OH258146   5.132   2.617  13.386 -0.0351 -0.3451  0.9073
12244TIP3    H158147   5.062   2.552  13.388  0.9068 -1.4112 -0.0845
12244TIP3    H258148   5.097   2.688  13.332 -0.7508 -0.3783  1.3110
12245TIP3   OH258149   1.320   6.244   5.831  0.0614 -0.1532 -0.5310
12245TIP3    H158150   1.398   6.244   5.887 -0.1815  0.8671 -0.1579
12245TIP3    H258151   1.262   6.179   5.871 -0.3592  0.9947  0.8113
12246TIP3   OH258152   5.155   4.189  14.233 -0.2409  0.0841  0.3203
12246TIP3    H158153   5.089   4.257  14.241 -1.3711 -0.8259 -0.8183
12246TIP3    H258154   5.239   4.236  14.236 -0.9800  1.4758 -0.0985
12247TIP3   OH258155   5.705   6.583  14.321 -0.0431 -0.7480  0.2833
12247TIP3    H158156   5.757   6.652  14.361 -0.3443 -0.6278  0.4671
12247TIP3    H258157   5.763   6.546  14.254  0.5894 -1.1913  1.0594
12248TIP3   OH258158   5.444   5.869   2.404 -0.2059  0.0652 -0.7059
12248TIP3    H158159   5.382   5.937   2.432 -0.9561 -0.7611 -0.2899
12248TIP3    H258160   5.433   5.865   2.309 -1.1953 -0.4226 -0.5896
12249TIP3   OH258161   3.717   6.327   3.416 -0.0300 -0.2289 -0.1536
12249TIP3    H158162   3.648   6.364   3.471  0.3480  2.3139 -1.2660
12249TIP3    H258163   3.795   6.330   3.471  0.2314  1.7944 -0.5493
12250TIP3   OH258164   2.550   5.621   1.803 -0.0303  0.0793 -0.0540
12250TIP3    H158165   2.476   5.561   1.802 -0.9405  1.1610 -0.4078
12250TIP3    H258166   2.547   5.661   1.890  0.3401 -0.1194  0.0491
12251TIP3   OH258167   0.563   3.640   3.635  0.5887 -0.1370 -0.1160
12251TIP3    H158168   0.642   3.616   3.585  1.0964 -1.5130  1.2553
12251TIP3    H258169   0.498   3.575   3.609 -0.7226  1.9424 -2.4802
12252TIP3   OH258170   0.023   3.109  14.989 -0.1104 -0.4827 -0.2111
12252TIP3    H158171  -0.033   3.183  14.963 -1.7467 -1.6866 -0.2790
12252TIP3    H258172  -0.027   3.032  14.963  1.9258 -1.6436 -0.9304
12253TIP3   OH258173   0.278   2.867   2.787 -0.0900 -0.1505 -0.1384
12253TIP3    H158174   0.323   2.915   2.717 -2.3336 -1.0069 -2.3108
12253TIP3    H258175   0.347   2.817   2.831  1.5445  1.2420 -1.0162
12254TIP3   OH258176   2.285   6.103  12.916 -0.2504 -0.9084  0.0567
12254TIP3    H158177   2.235   6.130  12.839  0.0124  2.5498  0.9298
12254TIP3    H258178   2.220   6.074  12.979 -0.6725 -1.4921 -0.6424
12255TIP3   OH258179   6.256   6.339  15.094  0.3198 -0.4171 -0.2816
12255TIP3    H158180   6.304   6.260  15.070  0.1336  0.0761 -2.3935
12255TIP3    H258181   6.199   6.357  15.020 -0.3315  1.1802  0.5561
12256TIP3   OH258182   3.188   0.313  13.654 -0.0722  0.5555 -0.6979
12256TIP3    H158183   3.272   0.324  13.699 -0.2028  1.1831 -0.5933
12256TIP3    H258184   3.203   0.244  13.590  0.5457  0.7248 -0.7370
12257TIP3   OH258185   2.180   4.745  17.187  0.3379 -0.2511 -0.2900
12257TIP3    H158186   2.157   4.652  17.195  3.3213 -1.0098  0.9121
12257TIP3    H258187   2.100   4.792  17.208 -0.9240 -2.5463  0.3538
12258TIP3   OH258188   3.083   1.432   3.390 -0.5466  0.0275  0.3020
12258TIP3    H158189   3.131   1.378   3.327  1.4920  1.1106  0.8348
12258TIP3    H258190   3.002   1.456   3.344 -1.0339 -2.5006 -0.3496
12259TIP3   OH258191   0.214   2.393  11.844 -0.2710 -0.6397 -0.1880
12259TIP3    H158192   0.142   2.401  11.906  1.2600 -0.7374  1.7031
12259TIP3    H258193   0.197   2.310  11.798 -1.3996 -0.5953  0.1239
12260TIP3   OH258194   4.216   3.721  13.028  0.3800  0.6006 -0.1743
12260TIP3    H158195   4.135   3.770  13.044  0.7378  1.2912 -0.4614
12260TIP3    H258196   4.259   3.717  13.113  0.2726  0.6303 -0.1168
12261TIP3   OH258197   0.120   2.343  12.376  0.2682 -0.2532 -0.5136
12261TIP3    H158198   0.030   2.375  12.371  0.0245 -0.1795  2.4895
12261TIP3    H258199   0.113   2.248  12.371 -0.1411 -0.3058  0.6390
12262TIP3   OH258200   6.569   0.084  11.075  0.0997 -0.5598  0.2192
12262TIP3    H158201   6.499   0.149  11.065  1.8105  1.3396 -0.1648
12262TIP3    H258202   6.635   0.128  11.129  1.1602 -2.1567  0.2910
12263TIP3   OH258203   5.838   5.267   4.731  0.0200 -0.7452  0.2625
12263TIP3    H158204   5.900   5.195   4.741 -0.3282 -0.7728  2.9362
12263TIP3    H258205   5.752   5.225   4.723  0.0612 -0.6501 -0.8282
12264TIP3   OH258206   6.007   2.035  13.216 -0.1185 -0.2153  0.3018
12264TIP3    H158207   6.053   2.046  13.299 -1.8096  2.2066  1.0283
12264TIP3    H258208   6.076   2.017  13.152  1.5660  1.0172  1.6912
12265TIP3   OH258209   4.146   4.240   5.495  0.3821  0.4367  0.7177
12265TIP3    H158210   4.109   4.300   5.429  2.4772  1.1989  0.1453
12265TIP3    H258211   4.075   4.179   5.514 -0.7607  1.0529 -1.2116
12266TIP3   OH258212   1.086   4.586   4.143  0.6935 -0.0765 -0.1027
12266TIP3    H158213   1.065   4.581   4.050  1.6305 -0.4034 -0.3075
12266TIP3    H258214   1.016   4.640   4.180  1.3571  1.7844 -1.3529
12267TIP3   OH258215   0.070   4.416   0.165  0.0489  0.0027  0.1137
12267TIP3    H158216   0.050   4.480   0.097  1.8214 -1.2549 -1.6924
12267TIP3    H258217   0.113   4.467   0.234 -0.2962  1.0512 -0.4250
12268TIP3   OH258218   1.488   1.289   6.124  0.8045 -0.5024 -0.0733
12268TIP3    H158219   1.553   1.242   6.176 -0.3103 -1.1568  0.7665
12268TIP3    H258220   1.429   1.329   6.188  1.0061  1.0392 -0.7961
12269TIP3   OH258221   5.052   2.109  11.711 -0.2008  0.2402 -0.3788
12269TIP3    H158222   5.065   2.201  11.737  0.9411 -0.5503  2.2320
12269TIP3    H258223   5.141   2.076  11.700 -0.5358 -0.9100  0.2317
12270TIP3   OH258224   1.839   6.583   5.582  0.0613 -0.2718  0.0858
12270TIP3    H158225   1.861   6.623   5.667 -1.7990  0.2324  0.3612
12270TIP3    H258226   1.921   6.542   5.554  0.1993 -2.4968  3.2061
12271TIP3   OH258227   5.676   1.913  15.444  0.0486  0.4562 -0.0268
12271TIP3    H158228   5.703   1.988  15.497  2.3928 -0.4197  0.1371
12271TIP3    H258229   5.755   1.887  15.397 -0.6265 -2.0164  0.0551
12272TIP3   OH258230   0.358   0.319   5.160  0.5665 -0.4272  0.4176
12272TIP3    H158231   0.403   0.393   5.120  1.0496 -1.3465 -0.7987
12272TIP3    H258232   0.298   0.359   5.223 -1.0364  1.2250 -1.9635
12273TIP3   OH258233   2.699   1.207   0.467 -0.4596 -0.7104 -0.0328
12273TIP3    H158234   2.768   1.250   0.518 -0.2406 -3.6146  2.3932
12273TIP3    H258235   2.617   1.240   0.504 -0.3162 -0.5563  0.1472
12274TIP3   OH258236   0.866   3.552   2.979 -0.1970  0.4243  0.1317
12274TIP3    H158237   0.847   3.483   3.043  1.4912 -1.4721 -1.2568
12274TIP3    H258238   0.961   3.549   2.970 -0.1703  2.4300 -0.5903
12275TIP3   OH258239   2.526   3.060  12.017  0.2212 -0.0122  0.5371
12275TIP3    H158240   2.521   2.984  12.075 -0.3417  0.0957  0.6408
12275TIP3    H258241   2.495   3.134  12.070  0.8369  0.3080  0.4628
12276TIP3   OH258242   1.271   6.462  15.124  0.0282 -0.1428  0.2574
12276TIP3    H158243   1.303   6.373  15.112 -0.2287 -0.1057 -0.8418
12276TIP3    H258244   1.303   6.509  15.047 -0.4949  0.5241  0.4395
12277TIP3   OH258245   0.601   1.800   5.999  0.3789  0.0538  0.0399
12277TIP3    H158246   0.602   1.895   5.984  2.0005 -0.1236 -1.1617
12277TIP3    H258247   0.694   1.775   6.002 -0.0023 -1.3702  1.3105
12278TIP3   OH258248   2.563   3.898  11.127  0.5528  0.2212 -0.3083
12278TIP3    H158249   2.591   3.890  11.036  1.0471 -0.9544 -0.0718
12278TIP3    H258250   2.534   3.988  11.135 -0.7783  0.0023 -1.9849
12279TIP3   OH258251   4.012   4.740   2.094  0.5349  0.5939  0.2934
12279TIP3    H158252   3.991   4.809   2.157 -0.3901  0.3335  0.2969
12279TIP3    H258253   3.981   4.659   2.136  1.7088  0.1584  0.3379
12280TIP3   OH258254   1.269   4.701   2.459  0.0146 -0.0900  0.2222
12280TIP3    H158255   1.216   4.638   2.410  0.2674  0.4684 -0.7890
12280TIP3    H258256   1.207   4.772   2.480  0.2597  0.4131 -0.6858
12281TIP3   OH258257   4.892   5.329  11.411  0.0157 -0.3490 -0.6701
12281TIP3    H158258   4.954   5.392  11.374  0.6233 -0.8176 -0.4690
12281TIP3    H258259   4.932   5.243  11.395 -0.8022 -0.6916 -0.9461
12282TIP3   OH258260   5.912   4.791   1.378  0.5398 -0.2595 -0.2253
12282TIP3    H158261   5.906   4.795   1.283 -1.2970  1.5353 -0.0913
12282TIP3    H258262   5.880   4.704   1.401  0.3534 -0.4545 -1.2044
12283TIP3   OH258263   1.528   0.716   2.423 -0.0178  0.4375 -0.1482
12283TIP3    H158264   1.565   0.639   2.380 -2.2236 -0.3785 -0.6978
12283TIP3    H258265   1.439   0.723   2.389 -0.6352  1.9109  1.5873
12284TIP3   OH258266   1.408   5.910   2.783 -0.1087 -0.4552 -0.6678
12284TIP3    H158267   1.314   5.928   2.786 -0.2248 -1.0494 -0.5600
12284TIP3    H258268   1.418   5.847   2.711 -0.2305 -2.8074  1.2320
12285TIP3   OH258269   4.088   2.675  12.068 -0.3290  0.1448  0.0661
12285TIP3    H158270   4.087   2.753  12.012  0.4255  0.5516  0.6022
12285TIP3    H258271   4.126   2.606  12.014  2.1590  0.9884  0.6130
12286TIP3   OH258272   2.763   3.112  15.224  0.2144 -0.4460 -0.1804
12286TIP3    H158273   2.681   3.138  15.182 -0.4563 -1.4764  0.4436
12286TIP3    H258274   2.763   3.159  15.307  1.1878  1.0215 -0.9764
12287TIP3   OH258275   5.214   0.121   6.159 -0.5825 -0.4164  0.8158
12287TIP3    H158276   5.257   0.082   6.083 -2.4296 -1.5630  0.2990
12287TIP3    H258277   5.284   0.134   6.222  0.4721 -2.5944  0.1725
12288TIP3   OH258278   3.482   3.167  11.031  0.3357  0.2147  0.1477
12288TIP3    H158279   3.449   3.164  10.942  1.7706 -1.1275 -0.3937
12288TIP3    H258280   3.555   3.105  11.032  0.0589 -0.1715  2.3908
12289TIP3   OH258281   5.521   0.616  14.958  0.4907 -0.1385 -0.0486
12289TIP3    H158282   5.496   0.643  14.870  0.2748  0.1935  0.1137
12289TIP3    H258283   5.439   0.611  15.006  0.6543  0.1537  0.2630
12290TIP3   OH258284   2.796   4.950   6.017 -0.6957  0.1590 -0.4927
12290TIP3    H158285   2.755   4.869   5.985 -1.0481  0.3289 -0.4835
12290TIP3    H258286   2.738   4.979   6.088  0.2081 -0.3416  0.4734
12291TIP3   OH258287   2.343   2.343   4.631  0.6299 -0.0212 -0.2790
12291TIP3    H158288   2.252   2.357   4.655  1.0658  1.5661  0.5986
12291TIP3    H258289   2.371   2.267   4.682  0.1647  0.3037  0.4676
12292TIP3   OH258290   2.409   1.722  14.954 -0.0858  0.7613  0.5340
12292TIP3    H158291   2.424   1.632  14.926  1.5124  1.0881  0.2569
12292TIP3    H258292   2.403   1.717  15.050 -0.7727  0.2728  0.4705
12293TIP3   OH258293   1.152   2.622   2.767  0.4436 -0.5291 -0.1445
12293TIP3    H158294   1.189   2.625   2.855 -0.7100 -3.0028  0.5219
12293TIP3    H258295   1.127   2.712   2.748  1.6799  0.2400  1.6026
12294TIP3   OH258296   1.455   2.773  14.664  0.2996  0.4019  0.2337
12294TIP3    H158297   1.455   2.860  14.705  3.1370 -0.8875  3.4563
12294TIP3    H258298   1.538   2.768  14.618 -0.2628 -0.3123 -0.7419
12295TIP3   OH258299   5.751   1.664   1.152  0.1271  0.3048  0.1816
12295TIP3    H158300   5.780   1.736   1.209 -0.6012 -0.6702  1.8806
12295TIP3    H258301   5.665   1.691   1.120  0.6573  0.9785 -0.7176
12296TIP3   OH258302   0.191   6.071  13.213  0.5035  0.2506 -0.2923
12296TIP3    H158303   0.111   6.124  13.207 -0.1156 -0.5811  0.3390
12296TIP3    H258304   0.255   6.118  13.159 -0.7767  0.2827 -1.8823
12297TIP3   OH258305   2.681   1.267  16.156 -0.4615  0.3333 -0.0045
12297TIP3    H158306   2.701   1.176  16.137 -0.4608  0.1597  0.8270
12297TIP3    H258307   2.759   1.301  16.199 -0.2930  0.8492 -0.7005
12298TIP3   OH258308   0.165   0.675  13.700 -0.2176  0.6573 -0.7911
12298TIP3    H158309   0.111   0.746  13.735 -0.2694  0.9393 -1.4233
12298TIP3    H258310   0.211   0.715  13.627  2.0201  0.8456  0.6299
12299TIP3   OH258311   1.801   2.927   3.032 -0.3053  0.3764  0.3066
12299TIP3    H158312   1.816   2.869   3.106 -1.4174 -0.5219 -0.1415
12299TIP3    H258313   1.705   2.932   3.024 -0.2296  1.7714 -0.0568
12300TIP3   OH258314   3.702   0.493   2.911  0.3756  0.3492  0.8134
12300TIP3    H158315   3.692   0.413   2.963  1.7476 -0.3927 -0.0315
12300TIP3    H258316   3.631   0.489   2.847  1.1245 -0.7962  0.0284
12301TIP3   OH258317   1.089   1.918  12.479  0.5264  0.2349  0.4428
12301TIP3    H158318   1.101   1.941  12.571  0.7196  1.8488  0.0593
12301TIP3    H258319   1.050   1.831  12.480 -0.8461  0.8078  2.0912
12302TIP3   OH258320   3.259   6.081   4.079 -0.3115  0.3002  0.0683
12302TIP3    H158321   3.344   6.069   4.120 -1.2699  0.0221  2.0740
12302TIP3    H258322   3.195   6.064   4.148 -2.0231  0.4602 -1.3715
12303TIP3   OH258323   0.258   4.652   4.094  0.4468 -0.4445  0.1747
12303TIP3    H158324   0.300   4.594   4.159  1.0670 -0.8144 -0.5431
12303TIP3    H258325   0.202   4.594   4.043 -0.0692 -0.1463  0.3947
12304TIP3   OH258326   6.210   3.935  11.998  0.0705 -0.1061 -1.1347
12304TIP3    H158327   6.282   3.934  12.061  0.1180  0.8383 -1.1660
12304TIP3    H258328   6.240   3.880  11.926 -0.1029 -1.4674 -0.2261
12305TIP3   OH258329   0.498   2.140  14.321  0.1921  0.0877 -0.3591
12305TIP3    H158330   0.436   2.067  14.318 -0.4017  0.5530  0.4047
12305TIP3    H258331   0.443   2.218  14.329  0.8614  0.5241  0.0582
12306TIP3   OH258332   2.841   5.900  11.645  0.1040  0.1483 -0.4411
12306TIP3    H158333   2.935   5.890  11.658  0.0937 -0.4820 -0.8504
12306TIP3    H258334   2.833   5.974  11.584  0.4903 -1.6498 -2.8029
12307TIP3   OH258335   5.578   6.654   5.497  0.1513  0.1939  0.3325
12307TIP3    H158336   5.665   6.656   5.457  0.0898  0.8710  0.2197
12307TIP3    H258337   5.592   6.616   5.583  0.5106  0.0165  0.1966
12308TIP3   OH258338   6.449   3.917  12.123 -0.2933 -0.5939  0.3204
12308TIP3    H158339   6.481   4.002  12.153  0.2564 -0.4228 -0.7004
12308TIP3    H258340   6.527   3.874  12.088 -0.9210 -0.7133 -0.9706
12309TIP3   OH258341   3.420   3.007  11.776  0.0652 -0.6010  0.0405
12309TIP3    H158342   3.447   2.972  11.861  3.1261  2.1209  0.4336
12309TIP3    H258343   3.334   3.045  11.792 -0.4907 -2.2761  1.2329
12310TIP3   OH258344   3.540   4.218  14.862 -0.4479 -0.0741 -0.2524
12310TIP3    H158345   3.457   4.234  14.816 -0.7686 -1.6431 -0.2584
12310TIP3    H258346   3.606   4.261  14.807 -1.0330 -0.4017 -1.2353
12311TIP3   OH258347   4.452   1.814   5.445 -0.2443 -0.7185  0.2911
12311TIP3    H158348   4.487   1.811   5.534  0.6419 -2.1083 -0.0751
12311TIP3    H258349   4.386   1.883   5.448  1.7802  1.2958  1.2926
12312TIP3   OH258350   5.728   4.401  11.293 -0.7759 -0.0687 -0.3242
12312TIP3    H158351   5.747   4.461  11.221  0.0588 -2.5757 -2.3311
12312TIP3    H258352   5.634   4.382  11.283 -0.3277 -1.7254 -1.9358
12313TIP3   OH258353   3.265   1.823   5.928  0.2014  0.2579 -0.4277
12313TIP3    H158354   3.326   1.843   5.857 -0.7874  1.8925 -0.8732
12313TIP3    H258355   3.218   1.746   5.898 -1.3294  1.8450 -2.3658
12314TIP3   OH258356   5.963   6.581  15.052 -0.0163  0.2022  0.4087
12314TIP3    H158357   5.952   6.537  15.137  2.6885  1.1431  1.3835
12314TIP3    H258358   6.052   6.557  15.025 -0.5634  0.5164 -1.8632
12315TIP3   OH258359   6.315   3.618  14.000 -0.2380 -0.1582  0.1178
12315TIP3    H158360   6.227   3.587  14.022 -0.8408  2.1918  1.3932
12315TIP3    H258361   6.304   3.661  13.914 -0.1211 -0.6832 -0.1607
12316TIP3   OH258362   3.290   1.281   5.147 -0.0541 -0.0503  0.2676
12316TIP3    H158363   3.198   1.253   5.154  0.1753 -1.0880 -0.6928
12316TIP3    H258364   3.338   1.216   5.199  0.0934  0.8766  1.3336
12317TIP3   OH258365   0.509   3.938  13.749  0.3225  0.3034 -0.8277
12317TIP3    H158366   0.416   3.946  13.729 -0.2140 -2.2956  0.2686
12317TIP3    H258367   0.516   3.859  13.802  2.8912  1.5589  0.9418
12318TIP3   OH258368   2.406   0.364  13.688  0.0580  0.0147  0.2136
12318TIP3    H158369   2.373   0.342  13.774  2.4850  0.0456  1.2324
12318TIP3    H258370   2.342   0.326  13.627 -2.3384  0.9938  1.9568
12319TIP3   OH258371   4.016   1.182   5.357 -0.1768 -0.2342 -0.4969
12319TIP3    H158372   3.953   1.233   5.305 -0.3257  0.3860  0.2668
12319TIP3    H258373   4.099   1.228   5.344 -0.4879  0.7850  0.9275
12320TIP3   OH258374   3.067   1.566  13.883  0.1643 -0.2355  0.3120
12320TIP3    H158375   3.064   1.572  13.788  0.9552  0.5292  0.3150
12320TIP3    H258376   3.136   1.502  13.901 -0.1079 -0.5133  0.3702
12321TIP3   OH258377   3.284   6.278  14.344 -0.0487  0.1036 -0.0655
12321TIP3    H158378   3.243   6.232  14.417 -1.3680 -1.3069 -1.5960
12321TIP3    H258379   3.212   6.325  14.301 -0.0835 -1.8013 -2.3547
12322TIP3   OH258380   1.652   6.646   5.380 -0.1269  0.0701 -0.1577
12322TIP3    H158381   1.715   6.623   5.448  0.0213 -1.7854 -0.8672
12322TIP3    H258382   1.567   6.621   5.416 -0.2727  0.8415  0.0612
12323TIP3   OH258383   5.843   4.374   3.775  0.3020  0.2313  0.1013
12323TIP3    H158384   5.836   4.280   3.790 -0.0258  0.5151  1.8607
12323TIP3    H258385   5.927   4.398   3.814  0.5574  0.6320 -0.6640
12324TIP3   OH258386   2.829   3.766  16.644 -0.1012  0.3295 -0.7988
12324TIP3    H158387   2.913   3.806  16.665 -0.8580  1.5226  0.0820
12324TIP3    H258388   2.817   3.784  16.551  0.7494 -0.1465 -1.0171
12325TIP3   OH258389   3.689   6.613  11.616 -0.3774 -0.3415  0.0178
12325TIP3    H158390   3.760   6.676  11.614  0.9348 -1.7858 -0.5495
12325TIP3    H258391   3.699   6.561  11.536 -0.2191 -2.5139  1.3497
12326TIP3   OH258392   2.668   3.909  13.841 -0.4807  0.7388 -0.9973
12326TIP3    H158393   2.583   3.929  13.804 -1.4123  0.7709  1.0045
12326TIP3    H258394   2.655   3.826  13.887  0.7540  0.4011 -1.2279
12327TIP3   OH258395   4.579   3.913  11.047 -0.3854  0.0685  0.1965
12327TIP3    H158396   4.620   3.956  10.972 -1.7066  0.6390 -0.2280
12327TIP3    H258397   4.488   3.900  11.020 -0.7907 -0.0427  1.5629
12328TIP3   OH258398   4.629   3.601   4.116 -0.5108  0.3793 -0.4923
12328TIP3    H158399   4.671   3.654   4.048 -0.1918  0.4153 -0.2730
12328TIP3    H258400   4.574   3.539   4.068  1.2074 -0.9194 -0.9052
12329TIP3   OH258401   0.248   3.336   5.832 -0.2294  0.4729 -0.1564
12329TIP3    H158402   0.320   3.384   5.791  2.1873 -0.6404  2.4950
12329TIP3    H258403   0.231   3.382   5.914 -0.9878 -0.6009  0.3191
12330TIP3   OH258404   1.390   1.654  16.416 -0.9269 -0.1150 -0.1434
12330TIP3    H158405   1.354   1.567  16.397  0.1850 -0.6796  0.2292
12330TIP3    H258406   1.473   1.636  16.459 -0.5946  1.1500 -0.2276
12331TIP3   OH258407   2.022   5.021  15.930 -0.4587  0.0881 -0.1788
12331TIP3    H158408   1.981   5.102  15.900  1.9628  0.6726 -2.2282
12331TIP3    H258409   2.092   5.050  15.989  1.8356 -0.2132 -2.5789
12332TIP3   OH258410   4.480   4.762   3.246 -0.5104  0.1033 -0.0187
12332TIP3    H158411   4.412   4.827   3.260  0.9254  1.4939  0.9033
12332TIP3    H258412   4.471   4.701   3.319 -0.4105  0.6253  0.4344
12333TIP3   OH258413   1.549   5.106   4.177 -0.1630 -0.2190  0.2897
12333TIP3    H158414   1.634   5.103   4.133 -0.3649 -2.3377 -0.0571
12333TIP3    H258415   1.508   5.186   4.144  2.5477  2.2725  2.2734
12334TIP3   OH258416   6.338   1.676  14.790 -0.4094 -0.0026  0.5176
12334TIP3    H158417   6.341   1.581  14.784  0.3269  0.0424  0.0400
12334TIP3    H258418   6.281   1.703  14.718 -0.2311 -0.0558  0.3565
12335TIP3   OH258419   4.041   2.531  15.680  0.2197 -0.2198  0.3709
12335TIP3    H158420   4.062   2.441  15.655  0.9858 -0.3771  1.5264
12335TIP3    H258421   3.954   2.525  15.721  0.3192 -0.4523  0.5495
12336TIP3   OH258422   2.363   6.143  16.309 -0.1231  0.0321  0.0939
12336TIP3    H158423   2.333   6.136  16.400  1.8258 -0.8803  0.7193
12336TIP3    H258424   2.432   6.209  16.312  0.3552 -0.4262 -0.6128
12337TIP3   OH258425   3.521   3.607   5.301 -0.2556 -0.0577 -0.7374
12337TIP3    H158426   3.435   3.610   5.259 -0.9987 -1.3640  0.5874
12337TIP3    H258427   3.506   3.638   5.391  0.7698  0.2291 -0.6445
12338TIP3   OH258428   4.241   0.569   3.576 -0.0483 -0.4430 -0.9099
12338TIP3    H158429   4.267   0.574   3.484 -2.4640 -0.8530 -1.6833
12338TIP3    H258430   4.276   0.485   3.606 -1.5164 -1.5898 -2.2830
12339TIP3   OH258431   0.543   4.976  12.628 -0.2201 -0.1190  0.2065
12339TIP3    H158432   0.588   4.955  12.710 -0.7423 -0.4715  0.4047
12339TIP3    H258433   0.458   4.934  12.636 -0.3190 -0.0538 -0.4723
12340TIP3   OH258434   5.744   5.300  14.067  1.0731 -0.1573  0.2862
12340TIP3    H158435   5.769   5.242  13.995 -0.9142  0.5173 -1.0308
12340TIP3    H258436   5.826   5.339  14.097  2.1631 -1.9342 -0.2989
12341TIP3   OH258437   2.802   0.872  15.106 -0.2758 -0.2111 -0.2441
12341TIP3    H158438   2.781   0.938  15.172 -0.4179 -0.9872  0.5164
12341TIP3    H258439   2.894   0.886  15.087 -0.6456  1.1430 -1.1988
12342TIP3   OH258440   0.167   3.272  17.238  0.0217  0.2731 -0.0779
12342TIP3    H158441   0.087   3.325  17.239 -2.4144 -3.0744 -1.4863
12342TIP3    H258442   0.184   3.257  17.145  2.6021  1.1491  0.1639
12343TIP3   OH258443   0.281   2.663   2.444  0.3748  0.6943  0.4756
12343TIP3    H158444   0.348   2.702   2.500 -0.1306 -0.9671  2.3338
12343TIP3    H258445   0.205   2.652   2.501 -0.1630 -1.0629 -0.5029
12344TIP3   OH258446   2.594   5.694  11.898  0.3049  0.4643 -0.2506
12344TIP3    H158447   2.638   5.614  11.869 -0.6036 -1.5915  3.3889
12344TIP3    H258448   2.664   5.746  11.939  0.3451 -0.2245  0.5935
12345TIP3   OH258449   4.080   0.377   0.493 -0.3373  0.1834  0.2952
12345TIP3    H158450   4.073   0.472   0.482  0.3772 -0.0169 -2.8566
12345TIP3    H258451   4.160   0.364   0.544  0.0381  1.2587  0.0020
12346TIP3   OH258452   4.237   5.313  12.398 -0.0243 -0.4150  0.7079
12346TIP3    H158453   4.304   5.378  12.421  0.4390 -0.5903 -0.0923
12346TIP3    H258454   4.264   5.233  12.443  0.4185 -0.5356  0.2367
12347TIP3   OH258455   3.652   5.980  16.690 -0.2787 -0.9722  0.7078
12347TIP3    H158456   3.696   5.895  16.702  3.0536  0.4207 -0.4799
12347TIP3    H258457   3.659   5.996  16.596  0.7496  1.3376  1.1187
12348TIP3   OH258458   4.385   5.861  14.496  0.2345  0.4756 -0.5682
12348TIP3    H158459   4.403   5.784  14.550  1.0888  0.3066 -1.0737
12348TIP3    H258460   4.366   5.825  14.409 -0.6046  0.7748 -0.5264
12349TIP3   OH258461   0.951   4.109  12.962 -0.1560  0.4920 -0.4284
12349TIP3    H158462   0.940   4.136  13.053 -0.5318 -1.4623  0.1460
12349TIP3    H258463   0.879   4.152  12.916 -0.3243  1.0147  0.3034
12350TIP3   OH258464   5.485   3.996   4.594 -0.3499  0.0483  0.3982
12350TIP3    H158465   5.510   4.020   4.683 -0.3300  2.6147 -0.2145
12350TIP3    H258466   5.475   4.080   4.549  0.6934 -1.1828 -2.3312
12351TIP3   OH258467   6.001   4.351  10.343  0.3135 -0.4337 -0.1659
12351TIP3    H158468   6.033   4.425  10.396  0.1353 -1.7990  1.9832
12351TIP3    H258469   5.935   4.390  10.286 -0.5862  0.9516  1.6819
12352TIP3   OH258470   0.126   4.698  14.640 -0.2298 -0.0623  0.2228
12352TIP3    H158471   0.092   4.707  14.729 -2.2728 -1.2421 -0.3645
12352TIP3    H258472   0.048   4.685  14.586  0.9668  0.5138 -1.7413
12353TIP3   OH258473   3.869   0.732   0.475  0.2995  0.2375  0.5664
12353TIP3    H158474   3.955   0.702   0.445  0.5640  1.8072 -0.3333
12353TIP3    H258475   3.813   0.726   0.399 -0.7034 -1.7456  1.4030
12354TIP3   OH258476   2.202   0.904   5.374 -0.0512 -0.1654  0.2017
12354TIP3    H158477   2.179   0.971   5.310 -1.2483 -0.2659  0.5100
12354TIP3    H258478   2.122   0.854   5.386  0.1494 -0.1517  1.7725
12355TIP3   OH258479   4.220   5.290  10.568  0.2856 -0.1956 -0.2222
12355TIP3    H158480   4.259   5.272  10.483  1.8839 -0.7463  0.5811
12355TIP3    H258481   4.264   5.230  10.628  0.1979  1.1142  1.2264
12356TIP3   OH258482   2.698   0.001  16.127  0.1221  0.4314  0.5691
12356TIP3    H158483   2.686   0.009  16.222 -0.4380  0.7315  0.4760
12356TIP3    H258484   2.660   0.082  16.092  1.1936  0.7732  0.1563
12357TIP3   OH258485   1.807   3.589   2.408 -0.1371  0.3312  0.4460
12357TIP3    H158486   1.754   3.650   2.357 -0.0031  1.0460  1.1505
12357TIP3    H258487   1.870   3.555   2.345  0.6958  1.9851  0.3289
12358TIP3   OH258488   0.772   4.499  12.000 -0.4968 -0.3152  0.0329
12358TIP3    H158489   0.745   4.423  11.948 -0.8784 -0.3454  0.2652
12358TIP3    H258490   0.844   4.538  11.951 -1.3817  0.1392 -0.9568
12359TIP3   OH258491   6.408   0.511  14.863 -0.1138  0.2339  0.0739
12359TIP3    H158492   6.477   0.506  14.796  0.9967 -0.7532  1.2460
12359TIP3    H258493   6.411   0.426  14.907 -1.4410  0.5400  0.8075
12360TIP3   OH258494   1.260   0.938   1.305 -0.8626 -0.2027 -0.2648
12360TIP3    H158495   1.249   0.928   1.210 -1.1505  1.5936 -0.4489
12360TIP3    H258496   1.266   1.032   1.319 -3.3875 -0.2371  1.7855
12361TIP3   OH258497   2.654   0.951   5.594  0.6792  0.4194  0.1634
12361TIP3    H158498   2.669   0.859   5.574  1.6776 -0.0194  2.5608
12361TIP3    H258499   2.560   0.963   5.585  0.7748 -0.1378 -2.5495
12362TIP3   OH258500   0.715   5.546  13.127 -0.4481  0.5327 -0.4177
12362TIP3    H158501   0.635   5.497  13.107  0.1230 -1.1724  1.1641
12362TIP3    H258502   0.785   5.492  13.091  0.1980  0.1063  1.3870
12363TIP3   OH258503   4.913   2.334   5.444 -0.0115  0.1906  0.5711
12363TIP3    H158504   4.959   2.355   5.525 -0.3245  0.8127  0.5912
12363TIP3    H258505   4.821   2.347   5.465 -0.1880 -0.8096  0.4583
12364TIP3   OH258506   4.529   3.284   2.423 -0.2890  0.2680  0.6888
12364TIP3    H158507   4.469   3.358   2.415 -0.6374 -0.0922 -0.0885
12364TIP3    H258508   4.474   3.212   2.454 -0.5482 -0.3987 -1.2020
12365TIP3   OH258509   2.000   4.679  15.461  0.7807  0.1333  0.4492
12365TIP3    H158510   2.083   4.725  15.473  0.0415  1.1111  2.1540
12365TIP3    H258511   1.939   4.747  15.433  0.0652 -0.1390  1.3216
12366TIP3   OH258512   4.223   2.366   2.872  0.1589 -0.2887 -0.0368
12366TIP3    H158513   4.265   2.280   2.869 -0.8210 -0.7588 -0.7344
12366TIP3    H258514   4.157   2.357   2.940  0.5179  0.1445  0.3758
12367TIP3   OH258515   6.574   3.806  13.115  0.7543 -0.2905 -0.0411
12367TIP3    H158516   6.597   3.751  13.041 -0.7503 -1.8317  0.5741
12367TIP3    H258517   6.613   3.762  13.191 -0.1572 -0.3448  0.4154
12368TIP3   OH258518   0.412   4.579   6.091  0.2383 -0.5724 -0.1970
12368TIP3    H158519   0.487   4.539   6.136  0.1249  0.4367  0.9515
12368TIP3    H258520   0.368   4.630   6.159  0.1988  1.2399 -1.4998
12369TIP3   OH258521   2.612   4.523  12.414 -0.4429 -0.0040  0.2338
12369TIP3    H158522   2.618   4.616  12.437  2.4058 -1.0823  5.1579
12369TIP3    H258523   2.694   4.504  12.369  0.4987 -0.6703  2.1559
12370TIP3   OH258524   4.754   0.855  13.388 -0.2438 -0.3534 -0.0179
12370TIP3    H158525   4.832   0.847  13.443 -0.4483 -0.2735  0.2842
12370TIP3    H258526   4.710   0.770  13.398 -0.1598 -0.4244 -0.2445
12371TIP3   OH258527   2.157   0.339  16.181  0.2875 -0.3438 -0.5509
12371TIP3    H158528   2.181   0.428  16.208 -0.7320  0.1827 -1.3139
12371TIP3    H258529   2.100   0.308  16.251  2.2283 -1.2038  0.7402
12372TIP3   OH258530   5.851   0.475   1.693 -0.4578  0.0488  0.6956
12372TIP3    H158531   5.800   0.396   1.709  0.1181 -0.5045 -0.1203
12372TIP3    H258532   5.937   0.456   1.730  0.7233 -1.0375 -2.2968
12373TIP3   OH258533   3.698   1.506   1.535 -0.0459 -0.4376 -0.3113
12373TIP3    H158534   3.664   1.416   1.529  0.3267 -0.5839 -0.2188
12373TIP3    H258535   3.619   1.560   1.545 -0.2990 -0.7160 -0.7493
12374TIP3   OH258536   0.799   3.278   0.103  0.4981  0.2514  0.0820
12374TIP3    H158537   0.771   3.198   0.058 -0.3657 -1.1277  2.8792
12374TIP3    H258538   0.878   3.253   0.150 -0.8994  0.3192  2.6629
12375TIP3   OH258539   2.500   2.476   0.702 -0.3036 -0.0016 -0.4376
12375TIP3    H158540   2.481   2.416   0.775 -0.6457  1.1800  0.4747
12375TIP3    H258541   2.456   2.436   0.627  0.7196 -1.6626 -0.2095
12376TIP3   OH258542   6.404   1.488   2.010 -0.1687  0.0167  0.1018
12376TIP3    H158543   6.479   1.545   1.993  0.9375 -1.0717  1.0777
12376TIP3    H258544   6.335   1.521   1.952  0.6832  1.7754  0.0006
12377TIP3   OH258545   6.585   5.905  11.934  0.0984 -0.1488  0.8896
12377TIP3    H158546   6.538   5.840  11.986  1.1715  0.6116  2.8860
12377TIP3    H258547   6.664   5.859  11.904  1.7975  0.6093  3.8217
12378TIP3   OH258548   4.296   2.140  15.527 -0.0161 -0.0489 -0.2055
12378TIP3    H158549   4.232   2.168  15.592 -1.4047  0.5866 -1.7549
12378TIP3    H258550   4.342   2.220  15.501  0.2253 -0.2219 -0.3242
12379TIP3   OH258551   1.137   3.504  13.401 -0.6802 -0.4886 -0.1644
12379TIP3    H158552   1.082   3.439  13.445 -2.8666  1.1281 -0.4009
12379TIP3    H258553   1.195   3.452  13.346 -0.1823 -2.3883  1.9679
12380TIP3   OH258554   1.940   5.235   0.122 -0.2614 -0.0960 -0.0781
12380TIP3    H158555   1.856   5.221   0.077 -0.1522 -0.8762 -0.0483
12380TIP3    H258556   2.003   5.245   0.051 -0.2325 -0.4337 -0.1011
12381TIP3   OH258557   3.429   2.674  12.109  0.2609 -0.2265 -0.0653
12381TIP3    H158558   3.387   2.589  12.094  0.1127 -0.1755  0.0543
12381TIP3    H258559   3.478   2.691  12.029 -0.4697  0.0094 -0.4756
12382TIP3   OH258560   0.402   3.638   1.381  0.1435 -0.0267  0.1839
12382TIP3    H158561   0.391   3.712   1.441  0.2659 -0.1828  0.3996
12382TIP3    H258562   0.491   3.608   1.395 -0.1457 -0.6825  0.6363
12383TIP3   OH258563   2.632   4.254   3.678  0.3240  0.4333 -0.5648
12383TIP3    H158564   2.571   4.253   3.752  0.3474 -1.0789 -0.5392
12383TIP3    H258565   2.589   4.201   3.611  1.1279  0.2547 -0.9491
12384TIP3   OH258566   3.366   4.726  12.808 -0.0694 -0.0740 -0.2333
12384TIP3    H158567   3.393   4.722  12.899  0.5212 -2.1454 -0.4554
12384TIP3    H258568   3.448   4.735  12.759 -0.3421  0.5264 -0.6003
12385TIP3   OH258569   4.458   2.260   3.658 -0.0315 -0.4299  0.0128
12385TIP3    H158570   4.485   2.252   3.567  0.9705  1.3066  0.1064
12385TIP3    H258571   4.537   2.243   3.709 -0.1001  0.4831  0.4560
12386TIP3   OH258572   2.974   2.576  14.022 -0.3043 -0.1419  0.1015
12386TIP3    H158573   2.991   2.482  14.025 -0.8329 -0.3067 -1.3572
12386TIP3    H258574   3.058   2.616  14.045  0.4680 -0.9656 -1.1573
12387TIP3   OH258575   2.231   6.094  13.618  0.0059  0.1170 -0.1951
12387TIP3    H158576   2.272   6.123  13.700  2.8219 -2.4926 -0.5114
12387TIP3    H258577   2.296   6.114  13.551 -0.4596 -1.5523 -1.1783
12388TIP3   OH258578   5.332   5.990  11.534 -0.1217  0.4268  0.4656
12388TIP3    H158579   5.401   6.011  11.470 -0.6061  1.3439  0.2340
12388TIP3    H258580   5.348   6.050  11.607  0.6443 -0.8532  1.3987
12389TIP3   OH258581   4.793   6.572  11.268  0.3793  0.4436  0.4440
12389TIP3    H158582   4.725   6.526  11.317 -0.5357  0.2359 -0.9754
12389TIP3    H258583   4.754   6.590  11.182  2.0747  0.4132 -0.3792
12390TIP3   OH258584   2.971   0.298  14.635 -0.4450 -0.6891 -0.1211
12390TIP3    H158585   2.894   0.309  14.691  1.1635 -0.0685  2.1106
12390TIP3    H258586   3.020   0.379  14.646 -0.2618 -0.3331 -2.8945
12391TIP3   OH258587   4.786   4.619   0.478  0.2520  0.3526  0.2807
12391TIP3    H158588   4.864   4.584   0.521 -0.1965  0.5170  1.2614
12391TIP3    H258589   4.802   4.606   0.384  2.0851  1.6962  0.3545
12392TIP3   OH258590   3.839   0.218  14.641 -0.0884  0.0523 -0.0310
12392TIP3    H158591   3.911   0.269  14.603 -0.4712  0.3210 -0.4115
12392TIP3    H258592   3.768   0.281  14.651 -0.3577 -0.2699  0.0947
12393TIP3   OH258593   2.943   4.863   5.214 -0.5955 -0.1832 -0.4507
12393TIP3    H158594   2.958   4.925   5.143 -0.7465 -1.5006 -1.6778
12393TIP3    H258595   2.928   4.918   5.291 -0.9317  1.2910 -1.5238
12394TIP3   OH258596   3.978   3.601   4.054  0.2887 -0.3734 -0.1457
12394TIP3    H158597   3.902   3.571   4.004 -0.8697 -0.4815  1.6053
12394TIP3    H258598   3.958   3.692   4.076  2.2056  0.7321 -2.4217
12395TIP3   OH258599   4.213   2.750   5.396 -0.3603 -0.0597  0.1796
12395TIP3    H158600   4.160   2.715   5.325  1.1716  0.5378 -1.3339
12395TIP3    H258601   4.183   2.840   5.407  0.2004  0.2220 -0.5503
12396TIP3   OH258602   1.427   0.616   4.823 -0.1762 -0.2482  0.6888
12396TIP3    H158603   1.439   0.521   4.823  1.3614 -0.1575 -2.0682
12396TIP3    H258604   1.346   0.630   4.773  0.1351 -0.0854  0.2261
12397TIP3   OH258605   5.830   4.313  16.051  0.3693  0.9994  0.1417
12397TIP3    H158606   5.846   4.297  15.958  0.5479 -0.1060  0.3555
12397TIP3    H258607   5.848   4.407  16.062 -1.2258  1.5197 -1.2499
12398TIP3   OH258608   2.584   6.521  16.961  0.1350 -0.2659 -0.0194
12398TIP3    H158609   2.524   6.559  17.025 -0.2127 -0.1152 -0.4287
12398TIP3    H258610   2.541   6.535  16.877 -0.5400 -2.4581 -0.1226
12399TIP3   OH258611   5.648   3.316   3.198  0.0046 -0.3837 -0.2980
12399TIP3    H158612   5.670   3.290   3.108 -0.2628 -0.9038 -0.2173
12399TIP3    H258613   5.730   3.351   3.233  0.5223 -1.5547 -0.2698
12400TIP3   OH258614   3.371   3.249  12.762 -0.6876 -0.1688  0.4299
12400TIP3    H158615   3.305   3.290  12.706  0.0377  1.0281  0.4130
12400TIP3    H258616   3.345   3.158  12.768 -2.3659  0.2900  0.4647
12401TIP3   OH258617   5.818   4.062  11.128  0.6186  0.6623  0.5402
12401TIP3    H158618   5.767   4.066  11.047  1.4419 -0.6785 -0.0738
12401TIP3    H258619   5.751   4.058  11.197 -0.1392 -0.4311 -0.2129
12402TIP3   OH258620   6.123   5.979   3.172 -0.1422  0.7362 -0.7936
12402TIP3    H158621   6.123   6.074   3.166  2.4057  0.8348 -0.5357
12402TIP3    H258622   6.195   5.951   3.116  1.1605 -0.7624  1.4456
12403TIP3   OH258623   3.853   6.060   2.534  0.6526 -0.1079  0.3689
12403TIP3    H158624   3.857   5.968   2.560 -0.1201  0.2635  1.9483
12403TIP3    H258625   3.937   6.076   2.489  0.9953 -1.4508  0.4888
12404TIP3   OH258626   4.909   3.885   0.057  0.5865  0.3096 -0.0308
12404TIP3    H158627   4.952   3.910  -0.025 -1.4298 -0.0879 -1.2883
12404TIP3    H258628   4.879   3.968   0.094 -0.4658  0.3210 -0.8788
12405TIP3   OH258629   5.688   4.935   0.590 -0.3459  0.0761  0.0662
12405TIP3    H158630   5.721   4.973   0.671 -0.0675  0.6370 -0.3049
12405TIP3    H258631   5.766   4.896   0.549  0.0784  2.1301 -1.2191
12406TIP3   OH258632   2.087   2.367   4.828 -0.2819 -0.2866  0.1329
12406TIP3    H158633   2.051   2.320   4.903  0.7961 -1.2976  0.0358
12406TIP3    H258634   2.081   2.306   4.755 -0.5420  0.3890 -0.4271
12407TIP3   OH258635   3.565   1.884  14.928 -0.1893 -0.4250 -0.2853
12407TIP3    H158636   3.627   1.850  14.864  1.8630  0.8806  0.9016
12407TIP3    H258637   3.523   1.958  14.886  1.0260  0.3224 -0.2124
12408TIP3   OH258638   0.261   5.350  10.642  0.0367  0.0760 -0.2272
12408TIP3    H158639   0.351   5.326  10.664 -0.0187  0.3550  0.3218
12408TIP3    H258640   0.269   5.418  10.575  0.2040 -1.0552 -1.3931
12409TIP3   OH258641   6.457   1.925   5.206 -0.6845 -0.1291 -0.0081
12409TIP3    H158642   6.470   1.957   5.117  1.4785  1.2621  0.7357
12409TIP3    H258643   6.399   1.990   5.247  0.4282  0.7011  0.3110
12410TIP3   OH258644   3.220   3.647  13.235  0.5003 -0.0439  0.0886
12410TIP3    H158645   3.202   3.740  13.222 -0.1754  0.0261  1.4249
12410TIP3    H258646   3.315   3.639  13.223  0.5861  0.8367  0.1435
12411TIP3   OH258647   1.249   4.167  16.729  0.2478 -0.7094 -0.4653
12411TIP3    H158648   1.268   4.083  16.770  4.3987 -0.2606 -1.0364
12411TIP3    H258649   1.261   4.231  16.799  1.2237 -0.3742 -0.9128
12412TIP3   OH258650   2.871   3.440  13.585 -0.0771 -0.0944  0.1918
12412TIP3    H158651   2.924   3.387  13.644 -0.7269  0.9702  1.7816
12412TIP3    H258652   2.933   3.505  13.550  0.1378 -0.2098  0.3549
12413TIP3   OH258653   5.938   6.020   4.406 -0.9336 -0.2228 -0.1398
12413TIP3    H158654   6.016   5.964   4.407 -0.2275  0.6945 -1.4974
12413TIP3    H258655   5.923   6.038   4.314 -0.6146  2.5035  0.2581
12414TIP3   OH258656   4.041   4.659  12.604  0.1176 -0.0136  0.1589
12414TIP3    H158657   4.101   4.654  12.678  0.9941  0.5800 -0.5023
12414TIP3    H258658   4.047   4.573  12.562  1.0527  0.2712 -0.3117
12415TIP3   OH258659   0.891   6.690  12.795  0.0890 -0.5140 -0.0600
12415TIP3    H158660   0.880   6.611  12.743  1.1103  1.1764 -3.1323
12415TIP3    H258661   0.805   6.708  12.832 -0.9425 -1.4086 -1.9149
12416TIP3   OH258662   4.923   5.461  14.875 -0.2898 -0.6735  0.0361
12416TIP3    H158663   4.946   5.483  14.966 -1.1704  0.2415  0.0668
12416TIP3    H258664   5.006   5.463  14.828  0.2632 -1.7680  0.9320
12417TIP3   OH258665   5.222   2.528   5.344  0.9475  0.3202  0.7334
12417TIP3    H158666   5.159   2.573   5.286  0.7134 -0.3401  0.4611
12417TIP3    H258667   5.208   2.567   5.430 -0.8589 -0.7837  0.9965
12418TIP3   OH258668   0.946   5.305  15.596  0.2483 -0.5151  1.2802
12418TIP3    H158669   0.934   5.292  15.502  0.0356  1.1691  1.0399
12418TIP3    H258670   0.857   5.306  15.632  0.3333 -1.2425  1.5212
12419TIP3   OH258671   0.959   0.518   4.940  0.0223 -0.3955  0.4380
12419TIP3    H158672   1.000   0.554   4.861 -0.2893  0.7463  0.7739
12419TIP3    H258673   0.933   0.595   4.990  0.5315 -1.1053  1.8335
12420TIP3   OH258674   6.267   6.154  13.996  0.5279 -0.0914  0.4020
12420TIP3    H158675   6.300   6.079  14.046  0.4691 -0.5476 -0.2190
12420TIP3    H258676   6.219   6.114  13.923  0.7864  0.5492 -0.1314
12421TIP3   OH258677   3.382   1.934   1.649 -0.2673  0.0609 -0.0917
12421TIP3    H158678   3.306   1.948   1.593 -0.8365  0.8425  0.8432
12421TIP3    H258679   3.348   1.946   1.738  0.6847 -0.8166  0.4047
12422TIP3   OH258680   0.282   5.887  15.879  0.4599 -0.3581  0.2855
12422TIP3    H158681   0.214   5.924  15.823  0.2156  0.2411  0.9635
12422TIP3    H258682   0.245   5.806  15.913  0.5349 -0.6240 -0.2495
12423TIP3   OH258683   3.402   5.788   0.038 -0.2309  0.7045 -0.0000
12423TIP3    H158684   3.317   5.783   0.082 -0.2641  0.0059 -0.1377
12423TIP3    H258685   3.390   5.737  -0.042  0.9607 -1.2508  1.0125
12424TIP3   OH258686   0.677   2.140   2.803  0.2921  0.3439 -0.1266
12424TIP3    H158687   0.693   2.047   2.787 -0.7268  0.3137 -1.1074
12424TIP3    H258688   0.728   2.160   2.882 -1.1296 -1.5631  1.4067
12425TIP3   OH258689   6.727   5.549  16.593 -0.3741  0.3745  0.0497
12425TIP3    H158690   6.735   5.616  16.660  0.5287  0.5388 -0.2117
12425TIP3    H258691   6.634   5.527  16.592 -0.4760  0.7277  1.0010
12426TIP3   OH258692   1.551   1.157  13.097  0.6424  0.6594  0.1774
12426TIP3    H158693   1.553   1.166  13.192  1.3893  1.3835  0.1007
12426TIP3    H258694   1.642   1.166  13.070  0.4697  0.2152 -0.5956
12427TIP3   OH258695   3.689   1.030  15.802  0.1378 -0.1207  0.2340
12427TIP3    H158696   3.614   0.985  15.841  1.7128 -1.7427  1.5346
12427TIP3    H258697   3.675   1.020  15.707 -0.6251 -1.5854  0.4599
12428TIP3   OH258698   3.386   6.051   0.215 -0.0048 -0.2562  0.1500
12428TIP3    H158699   3.396   5.970   0.165  1.8492 -0.3209  0.5326
12428TIP3    H258700   3.372   6.022   0.305  1.6038 -0.2112  0.4509
12429TIP3   OH258701   4.366   2.166   5.745  0.1734  0.1514 -0.1752
12429TIP3    H158702   4.310   2.171   5.823  1.3367 -2.2857  0.9536
12429TIP3    H258703   4.311   2.124   5.679  0.1636 -0.9309  0.4808
12430TIP3   OH258704   1.036   1.180  12.954 -0.1630 -0.3254 -0.2536
12430TIP3    H158705   1.017   1.271  12.977  2.0562  0.1927 -0.2857
12430TIP3    H258706   1.112   1.186  12.896  0.0738 -2.2111 -0.1711
12431TIP3   OH258707   4.095   4.579  15.607  0.1439 -0.0595  0.4971
12431TIP3    H158708   4.177   4.594  15.654  0.5961  0.2082 -0.3557
12431TIP3    H258709   4.089   4.484  15.598 -0.3152 -0.1687  1.7064
12432TIP3   OH258710   2.092   4.218   5.605 -0.2169  0.1822 -0.0947
12432TIP3    H158711   2.069   4.305   5.639 -0.6769  0.3028 -0.7073
12432TIP3    H258712   2.187   4.215   5.611 -0.3265 -0.3187  2.4740
12433TIP3   OH258713   3.947   4.649  14.034  0.0567 -0.1760 -0.1716
12433TIP3    H158714   3.997   4.579  14.076 -0.6687  0.0211  1.0503
12433TIP3    H258715   4.000   4.674  13.958  0.7017 -1.5113 -0.1903
12434TIP3   OH258716   0.484   0.744   1.209  0.2015  0.1345 -0.4681
12434TIP3    H158717   0.500   0.677   1.276  1.1390  0.2515 -0.5642
12434TIP3    H258718   0.571   0.776   1.186 -0.1989  0.9716 -0.8551
12435TIP3   OH258719   6.172   0.641  14.818 -0.3669  0.4471  0.1039
12435TIP3    H158720   6.095   0.623  14.872 -0.0431  2.4151  1.3056
12435TIP3    H258721   6.243   0.591  14.859 -0.8838 -1.1887 -0.8749
12436TIP3   OH258722   4.078   2.982   2.401  0.1105  0.1984  0.4638
12436TIP3    H158723   4.075   2.945   2.313  1.8189  1.7755 -0.3179
12436TIP3    H258724   4.069   2.906   2.459 -0.1580 -0.9705 -1.0584
12437TIP3   OH258725   3.516   6.084   6.004  0.1392 -0.2395  0.0776
12437TIP3    H158726   3.489   6.011   5.948 -1.9513  1.4282 -1.2318
12437TIP3    H258727   3.535   6.043   6.089  0.2661 -2.4251 -0.9336
12438TIP3   OH258728   3.794   4.507   2.212 -0.6782  0.3210 -0.4119
12438TIP3    H158729   3.733   4.578   2.231  1.0631  2.1317 -1.2487
12438TIP3    H258730   3.823   4.477   2.298 -1.8207  0.2451 -0.0379
12439TIP3   OH258731   6.478   2.198   1.667 -0.0698 -0.2601 -0.8653
12439TIP3    H158732   6.515   2.201   1.755 -0.7497  2.1736 -0.5931
12439TIP3    H258733   6.545   2.236   1.611  0.2908 -1.6382 -1.4047
12440TIP3   OH258734   5.430   0.694   0.919 -0.3376  0.1528  0.1166
12440TIP3    H158735   5.387   0.643   0.987  1.9580 -2.3419 -0.1404
12440TIP3    H258736   5.442   0.781   0.958  0.3362 -1.0082  2.7291
12441TIP3   OH258737   6.449   5.510  12.785 -0.9873 -0.5319  0.0671
12441TIP3    H158738   6.439   5.475  12.874 -1.3448 -0.4419  0.0641
12441TIP3    H258739   6.418   5.440  12.728  1.0279 -1.3383 -0.0978
12442TIP3   OH258740   6.600   2.487  14.931  0.1865 -0.2136  0.0146
12442TIP3    H158741   6.509   2.505  14.907  0.4794  2.4290  0.4908
12442TIP3    H258742   6.599   2.401  14.972 -1.6075 -1.4730 -2.4376
12443TIP3   OH258743   6.709   3.164  11.819  0.4180  0.1537 -0.3136
12443TIP3    H158744   6.635   3.132  11.768  0.4604  0.5736 -0.6460
12443TIP3    H258745   6.728   3.251  11.783  0.4028  0.4957  0.4692
12444TIP3   OH258746   0.187   2.607   3.663  0.2837  0.3221  0.1784
12444TIP3    H158747   0.094   2.630   3.662  0.3452  0.5636 -0.4822
12444TIP3    H258748   0.232   2.692   3.662  0.5113  0.2184  1.1457
12445TIP3   OH258749   5.720   1.832  16.043 -0.2230  0.1914  0.2314
12445TIP3    H158750   5.780   1.906  16.040 -0.4885  0.4868  1.5282
12445TIP3    H258751   5.763   1.768  16.099 -1.1078  0.4227  1.2074
12446TIP3   OH258752   1.598   6.263  15.111 -0.0732 -0.2373  0.2925
12446TIP3    H158753   1.605   6.358  15.103  1.3310 -0.2001  1.5250
12446TIP3    H258754   1.688   6.234  15.124 -0.5714 -1.6732  0.6969
12447TIP3   OH258755   5.228   1.556   4.756  0.6124 -0.2678  0.4245
12447TIP3    H158756   5.278   1.579   4.677  0.4772  0.3295  0.5106
12447TIP3    H258757   5.217   1.639   4.802 -2.1330  0.0013 -0.5361
12448TIP3   OH258758   2.102   0.632   3.010 -0.0179 -0.7143 -0.0744
12448TIP3    H158759   2.077   0.539   3.011  0.4606 -0.8527  1.0083
12448TIP3    H258760   2.150   0.643   2.929  0.3537 -1.5456  0.0211
12449TIP3   OH258761   5.032   3.788   0.767 -0.4360 -0.2580 -0.0058
12449TIP3    H158762   5.067   3.801   0.855 -1.3860  1.5028  0.1527
12449TIP3    H258763   5.093   3.727   0.726  1.0722  0.3228  1.2595
12450TIP3   OH258764   6.060   0.969  14.647 -0.1862 -0.3765  0.8736
12450TIP3    H158765   6.056   0.949  14.740 -0.8602  0.0398  0.9439
12450TIP3    H258766   6.063   1.064  14.643  2.7918 -0.4031  0.5424
12451TIP3   OH258767   3.132   0.928  15.001 -0.0008 -1.1073  0.4977
12451TIP3    H158768   3.086   0.963  14.924  1.3251  1.9184  0.9361
12451TIP3    H258769   3.196   0.868  14.964  1.0113  0.7275 -0.9113
12452TIP3   OH258770   1.090   1.040   3.656  0.0503 -0.7537 -0.0664
12452TIP3    H158771   1.164   1.097   3.637 -0.6541  0.3079  0.2756
12452TIP3    H258772   1.047   1.081   3.731 -2.3682  0.1294 -1.7993
12453TIP3   OH258773   1.143   6.751  12.857  0.3932  0.0133 -0.3479
12453TIP3    H158774   1.151   6.829  12.912  0.7086  1.4316 -2.2891
12453TIP3    H258775   1.050   6.745  12.838 -0.5882 -3.2499  3.9400
12454TIP3   OH258776   0.899   2.563  16.955  0.5234 -0.0250 -0.3821
12454TIP3    H158777   0.986   2.589  16.983  0.2254  0.4962  0.0730
12454TIP3    H258778   0.840   2.628  16.993 -0.1898 -1.0309  0.3089
12455TIP3   OH258779   0.621   2.131  15.220  0.1562  0.3326  0.1379
12455TIP3    H158780   0.636   2.125  15.126  2.4113  1.1284  0.4069
12455TIP3    H258781   0.667   2.055  15.256 -3.3477 -1.8909  0.4523
12456TIP3   OH258782   1.220   2.438  16.224  0.2658  0.3186  0.4995
12456TIP3    H158783   1.283   2.424  16.295 -0.5176  2.4339  1.6956
12456TIP3    H258784   1.135   2.415  16.262  0.1468 -1.8284 -0.8814
12457TIP3   OH258785   1.117   3.262  11.711  0.1595 -0.0132  0.0126
12457TIP3    H158786   1.129   3.273  11.805 -1.2447  1.4541  0.0693
12457TIP3    H258787   1.032   3.302  11.693  1.4597  1.9803 -2.2338
12458TIP3   OH258788   3.743   3.809   1.070 -0.2709  0.0895 -0.3544
12458TIP3    H158789   3.676   3.876   1.087 -0.0531  0.5763 -1.3132
12458TIP3    H258790   3.710   3.730   1.112 -0.7865  0.6701  0.3614
12459TIP3   OH258791   1.181   4.955   0.694 -0.2368 -0.5060 -0.4843
12459TIP3    H158792   1.159   4.943   0.787  2.9119 -0.3284  0.4032
12459TIP3    H258793   1.171   5.049   0.679 -1.6298 -0.6579 -0.6169
12460TIP3   OH258794   1.753   3.816  15.656 -0.1382  0.8612 -0.2177
12460TIP3    H158795   1.833   3.866  15.642 -0.4196  1.2814 -0.3479
12460TIP3    H258796   1.781   3.738  15.704  0.2002  1.4970  0.6294
12461TIP3   OH258797   3.332   0.075   1.495  0.2604  0.5619  0.0988
12461TIP3    H158798   3.305   0.167   1.488 -0.7755  0.2200 -0.6076
12461TIP3    H258799   3.403   0.066   1.431 -1.1523  0.3578 -1.5221
12462TIP3   OH258800   2.378   3.717  14.749  0.1217 -0.4407  0.0496
12462TIP3    H158801   2.375   3.735  14.843  0.5694  0.8999 -0.1685
12462TIP3    H258802   2.298   3.757  14.715  0.5739  0.1894 -0.2971
12463TIP3   OH258803   3.176   3.608   4.754  0.3101  0.5818  0.0926
12463TIP3    H158804   3.100   3.575   4.803 -0.9039  1.5020 -1.0786
12463TIP3    H258805   3.222   3.665   4.816 -1.3916  2.0045  0.1401
12464TIP3   OH258806   4.792   5.784  16.748 -0.2636  0.4990 -0.1307
12464TIP3    H158807   4.869   5.749  16.792 -0.8017  0.0764  0.4994
12464TIP3    H258808   4.755   5.847  16.810 -1.1135 -0.2092  0.1089
12465TIP3   OH258809   3.703   3.835  13.007 -0.1050 -0.0574 -0.4477
12465TIP3    H158810   3.639   3.859  12.940 -0.6821  0.9393  0.4300
12465TIP3    H258811   3.653   3.832  13.088  1.1904  2.4057  0.5501
12466TIP3   OH258812   2.308   0.815  11.563 -0.2753 -0.8250  0.3819
12466TIP3    H158813   2.274   0.770  11.486 -1.2958  1.2123 -0.4385
12466TIP3    H258814   2.295   0.754  11.635 -1.6937 -1.7882 -0.6532
12467TIP3   OH258815   3.065   4.395   4.971  0.2353 -0.5091  0.2249
12467TIP3    H158816   3.077   4.364   5.061  0.3744  2.1954  1.2633
12467TIP3    H258817   3.142   4.451   4.955 -0.2977 -0.1468 -1.1935
12468TIP3   OH258818   3.620   6.409  13.994  0.3082  0.0126  0.0087
12468TIP3    H158819   3.568   6.405  14.074  1.6322  0.0443  0.8952
12468TIP3    H258820   3.588   6.487  13.949 -0.0078  0.3724  0.8355
12469TIP3   OH258821   0.108   0.951   1.590 -0.6372  0.1978 -0.2052
12469TIP3    H158822   0.181   0.890   1.580 -1.5848 -0.6449 -2.7738
12469TIP3    H258823   0.037   0.898   1.626 -0.9404  0.1730 -0.8191
12470TIP3   OH258824   4.105   2.812  12.542  0.9708 -0.1504  0.1485
12470TIP3    H158825   4.043   2.743  12.521  2.6788 -1.4465 -0.9430
12470TIP3    H258826   4.123   2.855  12.458  0.3386  1.3342  0.7202
12471TIP3   OH258827   5.264   4.854   3.224 -0.0037 -0.4301  0.3146
12471TIP3    H158828   5.169   4.846   3.232 -0.0483 -0.4061 -0.1442
12471TIP3    H258829   5.294   4.765   3.208  0.0465 -0.4341  0.4327
12472TIP3   OH258830   1.856   0.985  11.562  0.3672 -0.1383 -0.4563
12472TIP3    H158831   1.938   1.001  11.609  2.1929 -2.9468 -2.4023
12472TIP3    H258832   1.835   0.894  11.580 -0.1406 -0.6202 -3.1220
12473TIP3   OH258833   4.714   2.896   4.761  0.1058 -0.4935 -0.3733
12473TIP3    H158834   4.669   2.830   4.814 -0.4539  0.7352  0.7400
12473TIP3    H258835   4.786   2.927   4.816  1.1084 -1.0137 -1.3605
12474TIP3   OH258836   5.303   6.591   6.500 -0.2061  0.1845  0.4085
12474TIP3    H158837   5.255   6.664   6.462 -0.0997  0.4160  0.7126
12474TIP3    H258838   5.249   6.514   6.482  1.1007 -0.1629 -2.6083
12475TIP3   OH258839   3.772   5.864  13.998  0.2210 -0.2597  0.1037
12475TIP3    H158840   3.796   5.951  13.967 -0.7988 -0.4126 -1.1751
12475TIP3    H258841   3.771   5.872  14.093 -0.2481  1.2202 -0.0061
12476TIP3   OH258842   6.131   6.506   0.682  0.3512  0.0085  0.1912
12476TIP3    H158843   6.059   6.461   0.637  1.0030 -1.5833  0.6687
12476TIP3    H258844   6.090   6.581   0.725 -0.5465  0.7260 -1.7782
12477TIP3   OH258845   0.130   3.184  16.987  0.1336  0.0585 -0.4820
12477TIP3    H158846   0.042   3.198  17.022  0.7052 -1.5967  1.8279
12477TIP3    H258847   0.115   3.162  16.895 -1.9957 -1.1872  0.0806
12478TIP3   OH258848   2.861   3.693  15.151 -0.1506 -0.3235  0.2063
12478TIP3    H158849   2.941   3.742  15.134  1.0308 -1.9629  0.8441
12478TIP3    H258850   2.792   3.747  15.112  1.2453  1.0871 -0.4383
12479TIP3   OH258851   0.119   6.231  12.257  0.3023  0.1292 -0.4929
12479TIP3    H158852   0.042   6.280  12.228  0.9100  1.4267  0.0167
12479TIP3    H258853   0.156   6.195  12.176 -1.3692 -1.3828 -0.6529
12480TIP3   OH258854   5.165   5.717   5.765  0.0307  0.0114 -0.1945
12480TIP3    H158855   5.207   5.801   5.745  1.0617 -0.7859 -1.5586
12480TIP3    H258856   5.146   5.721   5.858  0.0005  1.7803 -0.2380
12481TIP3   OH258857   1.785   5.820   4.686 -0.1546  0.1926 -0.5545
12481TIP3    H158858   1.800   5.781   4.600  2.4549 -0.7514  0.2443
12481TIP3    H258859   1.773   5.746   4.745  1.6094  0.6431  0.4427
12482TIP3   OH258860   6.550   0.303   3.283  0.1853  0.3267 -0.4839
12482TIP3    H158861   6.583   0.225   3.238 -1.5229  0.1810 -1.6182
12482TIP3    H258862   6.599   0.307   3.364  1.4480 -1.0142 -1.1311
12483TIP3   OH258863   0.121   3.169   1.797 -0.4624 -0.3627 -0.5723
12483TIP3    H158864   0.160   3.162   1.710  0.5035  1.7858 -0.3914
12483TIP3    H258865   0.195   3.182   1.856 -1.2337  2.4596 -0.0336
12484TIP3   OH258866   1.376   1.707  12.654  0.3089  0.0160 -0.5122
12484TIP3    H158867   1.287   1.704  12.619 -0.5804 -1.9565  1.6163
12484TIP3    H258868   1.405   1.616  12.654  0.2113 -0.2234  3.5614
12485TIP3   OH258869   0.243   3.673   1.165 -0.5627 -0.2166 -0.0358
12485TIP3    H158870   0.258   3.766   1.184 -2.2622 -0.4251  2.9099
12485TIP3    H258871   0.314   3.628   1.209 -0.0609 -0.3967 -0.9918
12486TIP3   OH258872   3.793   5.796  11.624 -0.0088 -0.2351 -0.6407
12486TIP3    H158873   3.818   5.709  11.593  1.2217 -1.5431  3.4655
12486TIP3    H258874   3.702   5.786  11.652  0.3553 -0.4475  0.5020
12487TIP3   OH258875   3.421   3.783   2.096  0.0340 -0.1158  0.2667
12487TIP3    H158876   3.464   3.744   2.172  0.7855 -1.5089 -0.8242
12487TIP3    H258877   3.355   3.719   2.069 -0.4393  0.5017 -0.0780
12488TIP3   OH258878   5.058   0.095   5.306 -0.2090  0.0113 -0.4246
12488TIP3    H158879   5.121   0.087   5.377  0.6243  0.0331 -1.1487
12488TIP3    H258880   5.081   0.024   5.246  1.5014  2.1470 -2.4913
12489TIP3   OH258881   4.957   2.047   1.937 -0.1964 -0.1294 -0.0040
12489TIP3    H158882   4.942   1.995   1.858 -1.2599 -0.0798  0.1547
12489TIP3    H258883   5.050   2.036   1.955 -0.2896 -1.5471 -0.2777
12490TIP3   OH258884   1.462   0.204  10.983  0.7376  0.1455 -0.2385
12490TIP3    H158885   1.396   0.182  11.049  2.1010 -3.2622  0.1608
12490TIP3    H258886   1.505   0.282  11.017 -0.4171  0.0610  1.5286
12491TIP3   OH258887   6.294   2.523   1.781  0.4562 -0.2017 -0.3670
12491TIP3    H158888   6.337   2.605   1.760  0.8703 -0.0892  0.8330
12491TIP3    H258889   6.334   2.459   1.722 -0.4370  0.5667 -1.8724
12492TIP3   OH258890   2.501   5.252   6.319  0.0202 -0.0914  0.5374
12492TIP3    H158891   2.439   5.235   6.247 -2.4350 -2.2931  2.9309
12492TIP3    H258892   2.454   5.312   6.377  0.0954 -1.6251  2.2995
12493TIP3   OH258893   4.837   4.268  16.451 -0.4263  0.4849  0.0348
12493TIP3    H158894   4.899   4.338  16.471  2.0424 -1.8742  1.2688
12493TIP3    H258895   4.857   4.242  16.361  1.3448 -1.0747  0.8222
12494TIP3   OH258896   5.286   6.409   2.435 -0.1609  0.6220 -0.2636
12494TIP3    H158897   5.211   6.447   2.390 -0.2791  1.2191  0.4288
12494TIP3    H258898   5.362   6.457   2.401 -0.1230  0.2975 -0.6552
12495TIP3   OH258899   3.106   4.922  17.054 -0.7882 -0.1493 -0.0217
12495TIP3    H158900   3.079   4.996  17.108 -0.2648  0.3358 -0.4190
12495TIP3    H258901   3.156   4.961  16.983 -0.4884 -0.8870 -0.2235
12496TIP3   OH258902   5.590   5.160   1.753  0.9913 -0.2637  0.2337
12496TIP3    H158903   5.609   5.091   1.690  1.7764  0.4124 -0.2895
12496TIP3    H258904   5.535   5.118   1.818 -0.5079 -0.7923 -1.3057
12497TIP3   OH258905   6.667   3.437   2.162 -0.1935 -0.3309  0.5426
12497TIP3    H158906   6.572   3.450   2.170 -0.2744 -0.7507  0.2883
12497TIP3    H258907   6.705   3.522   2.184 -0.7046  0.3535 -1.0710
12498TIP3   OH258908   1.814   0.448  12.057  0.2346 -0.2840 -0.4768
12498TIP3    H158909   1.730   0.490  12.037  0.3208 -0.2106 -0.6947
12498TIP3    H258910   1.792   0.374  12.113 -0.1310 -1.0961 -1.6469
12499TIP3   OH258911   5.344   5.297   4.911  0.0792 -0.4131  0.2788
12499TIP3    H158912   5.268   5.274   4.858 -0.9506 -0.2431  1.6250
12499TIP3    H258913   5.337   5.392   4.923  0.7318 -0.3359  0.0846
12500TIP3   OH258914   2.765   0.800   1.085 -0.1384 -0.0538  0.2907
12500TIP3    H158915   2.857   0.823   1.069  0.5163 -1.9051  1.0006
12500TIP3    H258916   2.753   0.814   1.179 -1.0976  1.6622 -0.0398
12501TIP3   OH258917   6.079   1.134   5.576 -0.2460 -0.0529 -0.4675
12501TIP3    H158918   6.006   1.116   5.517  0.5148  0.7380 -1.7159
12501TIP3    H258919   6.042   1.188   5.645 -0.6666  1.1909 -1.6179
12502TIP3   OH258920   2.718   6.425   4.673 -0.1110 -0.2852  0.2619
12502TIP3    H158921   2.708   6.357   4.607  1.0877 -0.0518 -0.1764
12502TIP3    H258922   2.779   6.388   4.737  1.3881  0.7467 -0.5281
12503TIP3   OH258923   1.715   0.762   2.675 -0.0211 -0.1107 -0.6282
12503TIP3    H158924   1.630   0.752   2.633 -0.3206  1.1685 -0.3792
12503TIP3    H258925   1.701   0.830   2.741  0.8141 -0.9899  0.4876
12504TIP3   OH258926   3.606   2.872   3.997 -0.2390  0.3160  0.3003
12504TIP3    H158927   3.534   2.815   4.023 -1.0257  0.8001 -0.7358
12504TIP3    H258928   3.681   2.814   3.990 -1.0597 -0.6598 -0.9031
12505TIP3   OH258929   1.869   6.599   6.225  0.0676  0.1453 -0.3904
12505TIP3    H158930   1.952   6.632   6.261 -0.2809 -0.0116  0.5843
12505TIP3    H258931   1.820   6.678   6.203 -0.5981  0.3270  1.5590
12506TIP3   OH258932   2.841   1.773   5.043 -0.0584 -0.2128 -0.2143
12506TIP3    H158933   2.763   1.790   5.095 -1.4097 -0.7045 -2.0033
12506TIP3    H258934   2.867   1.860   5.010 -0.3153 -0.1496 -0.2524
12507TIP3   OH258935   6.201   5.496   4.505 -0.1482  0.2042 -0.8273
12507TIP3    H158936   6.187   5.573   4.450 -0.1825 -2.0869 -4.2988
12507TIP3    H258937   6.267   5.445   4.460 -0.1427 -1.8677  1.3183
12508TIP3   OH258938   2.972   4.279   0.938  0.3381 -0.4664  0.4194
12508TIP3    H158939   2.933   4.365   0.951  1.4523 -0.0324  1.0128
12508TIP3    H258940   3.012   4.284   0.851  0.1085 -0.5035  0.3113
12509TIP3   OH258941   0.631   3.236   3.467 -0.3453 -0.5879  0.2795
12509TIP3    H158942   0.705   3.247   3.527 -0.7960 -0.3037  0.7996
12509TIP3    H258943   0.665   3.266   3.382 -0.2611  0.8913  0.7959
12510TIP3   OH258944   6.485   4.917  15.179 -0.0288  0.1976 -0.2474
12510TIP3    H158945   6.512   4.938  15.269 -2.2583 -1.4133  0.8802
12510TIP3    H258946   6.514   4.826  15.167 -2.7375 -0.8230  0.2158
12511TIP3   OH258947   0.046   6.538   0.183  0.0757  0.6057  0.3595
12511TIP3    H158948   0.036   6.536   0.087 -0.0202  1.3867  0.3423
12511TIP3    H258949   0.137   6.565   0.197  0.1018  0.4511  0.4873
12512TIP3   OH258950   5.120   2.970   3.216 -0.3655 -0.3457  0.1540
12512TIP3    H158951   5.123   2.902   3.149 -2.0151 -0.2952 -0.0173
12512TIP3    H258952   5.210   3.003   3.220 -0.2993  0.0064 -2.3968
12513TIP3   OH258953   4.296   5.395  14.094 -0.3361  0.3534  0.0340
12513TIP3    H158954   4.225   5.332  14.099  0.7357 -0.8751  0.2493
12513TIP3    H258955   4.259   5.470  14.048 -1.2806 -0.9429 -1.3924
12514TIP3   OH258956   5.197   5.510  14.804 -0.0518 -0.0584 -0.0676
12514TIP3    H158957   5.275   5.530  14.857 -1.1502  1.0226  1.1983
12514TIP3    H258958   5.219   5.543  14.717  0.5646  1.0755  0.4933
12515TIP3   OH258959   0.695   1.040   4.093 -0.5948 -0.6282 -0.4785
12515TIP3    H158960   0.786   1.069   4.095 -1.0208  0.8743 -0.9929
12515TIP3    H258961   0.649   1.102   4.150 -1.7661  0.6037 -2.6102
12516TIP3   OH258962   2.012   4.494   2.190 -0.5117 -0.4901 -0.4563
12516TIP3    H158963   1.936   4.445   2.222 -2.2979  1.8826 -0.8023
12516TIP3    H258964   2.017   4.570   2.248  2.1909 -0.9921  0.0901
12517TIP3   OH258965   0.193   0.226  14.741 -0.3705  0.2210  1.0435
12517TIP3    H158966   0.254   0.232  14.814 -0.5641  0.1802  1.2092
12517TIP3    H258967   0.107   0.228  14.781 -0.4761 -0.0199  0.8337
12518TIP3   OH258968   1.821   6.624   1.523 -0.1348 -0.7747  0.0189
12518TIP3    H158969   1.801   6.552   1.463  1.0575 -0.8978 -0.2428
12518TIP3    H258970   1.912   6.645   1.506 -0.1286  0.0036  0.9462
12519TIP3   OH258971   4.649   5.801  11.167  0.2746 -0.0639 -0.1493
12519TIP3    H158972   4.577   5.863  11.156 -0.7364 -0.7991  1.7529
12519TIP3    H258973   4.609   5.726  11.212  1.7831 -1.4347 -1.0063
12520TIP3   OH258974   3.784   0.206   4.010 -0.2673 -0.1042  0.0427
12520TIP3    H158975   3.753   0.163   3.930  0.1530 -1.2953  0.4960
12520TIP3    H258976   3.709   0.257   4.040 -0.0779  1.2682 -1.6991
12521TIP3   OH258977   2.230   4.209   1.851 -0.3478 -0.0127  0.0261
12521TIP3    H158978   2.152   4.153   1.850  0.3564 -1.2237  2.7512
12521TIP3    H258979   2.196   4.296   1.873 -0.9826 -0.5209  1.1576
12522TIP3   OH258980   3.384   3.731   5.527 -0.4494 -0.2838  0.4649
12522TIP3    H158981   3.339   3.815   5.517  0.0278 -0.1897 -1.2222
12522TIP3    H258982   3.358   3.700   5.614 -1.2227  1.2487  0.8198
12523TIP3   OH258983   0.259   3.163   6.290 -0.0847  0.4037 -0.0054
12523TIP3    H158984   0.213   3.247   6.296  1.6509  1.3097  2.5462
12523TIP3    H258985   0.349   3.187   6.265 -0.1943 -1.0121 -1.9661
12524TIP3   OH258986   0.012   2.530  11.302  0.2387 -0.1255 -0.5812
12524TIP3    H158987   0.005   2.528  11.207  0.5741 -0.6039 -0.5968
12524TIP3    H258988  -0.039   2.455  11.332  0.9018 -0.5177 -0.4304
12525TIP3   OH258989   5.782   3.052  11.530  0.1390 -0.1229 -0.0961
12525TIP3    H158990   5.791   3.056  11.435  0.7875  0.5198 -0.0197
12525TIP3    H258991   5.767   2.959  11.549  2.9506 -0.7959 -0.6108
12526TIP3   OH258992   0.905   0.755   5.068 -0.3504  0.0770 -0.3964
12526TIP3    H158993   0.844   0.828   5.079 -0.6107 -0.2338  0.3023
12526TIP3    H258994   0.961   0.760   5.145  0.2440  0.1092 -0.8281
12527TIP3   OH258995   1.387   6.534   0.093 -0.2499 -0.0171 -0.1070
12527TIP3    H158996   1.372   6.611   0.038  0.0358 -1.1549 -1.8418
12527TIP3    H258997   1.475   6.546   0.128  0.0260  0.1610 -0.8489
12528TIP3   OH258998   4.630   0.318   5.565  0.2703  0.0731 -0.3585
12528TIP3    H158999   4.713   0.327   5.613 -0.2817 -0.9206  0.8328
12528TIP3    H259000   4.656   0.310   5.474  1.3080  3.0145 -0.4246
12529TIP3   OH259001   1.201   1.079  14.879  0.4161 -0.3469  0.2815
12529TIP3    H159002   1.123   1.054  14.829  2.2545 -2.7266 -1.6855
12529TIP3    H259003   1.211   1.009  14.944 -0.1983  1.0769  1.9765
12530TIP3   OH259004   1.405   4.378   0.471 -0.2445 -0.2405 -0.6905
12530TIP3    H159005   1.472   4.394   0.405 -1.4787 -2.0666 -2.5142
12530TIP3    H259006   1.325   4.366   0.421 -2.4035  3.4250  1.4707
12531TIP3   OH259007   2.292   2.387   0.845 -0.0950  0.1838 -0.0926
12531TIP3    H159008   2.325   2.435   0.921  1.0509 -0.1069 -0.3921
12531TIP3    H259009   2.220   2.441   0.812  2.0496  2.5472 -1.2959
12532TIP3   OH259010   3.716   4.931  11.528  0.3952 -0.0550  0.2761
12532TIP3    H159011   3.799   4.905  11.487 -0.4803 -1.3102 -0.8148
12532TIP3    H259012   3.656   4.940  11.454 -0.8742 -0.8925  1.1776
12533TIP3   OH259013   5.750   0.971   2.020  0.4845 -0.4167  1.0562
12533TIP3    H159014   5.741   0.886   1.977  0.0178  0.4260 -0.5808
12533TIP3    H259015   5.660   0.998   2.039  0.5488  0.2860  0.3878
12534TIP3   OH259016   3.431   3.237   0.959 -0.0169  0.2037 -0.5230
12534TIP3    H159017   3.442   3.302   0.890  1.6062 -1.2056 -1.6870
12534TIP3    H259018   3.507   3.249   1.017  0.0967 -0.3925 -0.5398
12535TIP3   OH259019   0.956   0.706   1.663  0.0509  0.7353  0.5238
12535TIP3    H159020   0.950   0.722   1.569 -0.8388 -1.2920  0.1937
12535TIP3    H259021   1.050   0.704   1.682  0.2546  0.1110 -0.5183
12536TIP3   OH259022   6.305   5.932  14.171  0.1987  0.5022 -0.0522
12536TIP3    H159023   6.219   5.918  14.211 -0.5335  1.1243 -1.3699
12536TIP3    H259024   6.354   5.980  14.238 -1.2206  2.1275 -0.0988
12537TIP3   OH259025   2.701   1.870   3.763  0.0185  0.3887 -0.2196
12537TIP3    H159026   2.621   1.880   3.712 -0.2590 -1.5948 -0.2423
12537TIP3    H259027   2.735   1.784   3.738 -0.2900 -0.8430  3.1380
12538TIP3   OH259028   4.526   0.614   5.734 -0.0368  0.4397 -0.0187
12538TIP3    H159029   4.497   0.658   5.654  0.4901  0.1724 -0.3578
12538TIP3    H259030   4.569   0.683   5.785 -0.9140  0.7574  0.3287
12539TIP3   OH259031   6.179   0.771  11.311  0.2286 -0.2728 -0.3647
12539TIP3    H159032   6.260   0.821  11.313 -0.5726  1.3297  4.6123
12539TIP3    H259033   6.115   0.831  11.273  0.4727  0.2086 -0.0262
12540TIP3   OH259034   1.364   3.894  13.074  0.0307 -0.4930 -0.4879
12540TIP3    H159035   1.363   3.799  13.066  3.5161 -0.6384 -0.5826
12540TIP3    H259036   1.325   3.911  13.159 -0.4169 -2.0061 -0.3589
12541TIP3   OH259037   1.152   4.975   5.292 -0.6527  0.0216 -0.0340
12541TIP3    H159038   1.187   5.004   5.377 -2.4047  0.8447  0.4768
12541TIP3    H259039   1.225   4.985   5.231  0.6739 -0.6497  1.3727
12542TIP3   OH259040   0.605   2.525  15.886 -0.7406  0.3716 -0.2364
12542TIP3    H159041   0.654   2.539  15.805  0.4603  0.2819  0.4474
12542TIP3    H259042   0.538   2.594  15.886 -1.9514 -0.6895 -2.1476
12543TIP3   OH259043   3.633   1.891   4.084  0.9276  0.4179 -0.2632
12543TIP3    H159044   3.627   1.849   3.998  1.3637 -0.5002  0.1353
12543TIP3    H259045   3.600   1.824   4.145 -2.3013  2.0805  0.0400
12544TIP3   OH259046   0.458   0.507   4.998  0.7402  0.3855  0.0899
12544TIP3    H159047   0.528   0.507   4.932  1.3093  0.0834  0.6838
12544TIP3    H259048   0.463   0.593   5.038  0.2661  0.6407 -0.3832
12545TIP3   OH259049   1.836   5.464  14.283  0.5869 -0.1111  0.9154
12545TIP3    H159050   1.875   5.413  14.354  0.7013 -1.0730  0.1798
12545TIP3    H259051   1.774   5.522  14.327  0.8671 -0.4802  1.8312
12546TIP3   OH259052   4.417   4.306   2.080 -0.3108 -0.2185 -0.1040
12546TIP3    H159053   4.336   4.317   2.129 -0.2910 -2.4265  0.5540
12546TIP3    H259054   4.388   4.294   1.989 -0.5681  0.8259 -0.1673
12547TIP3   OH259055   4.006   2.687   4.730 -0.4419 -0.3984 -0.4856
12547TIP3    H159056   3.969   2.743   4.798  0.8568  0.4912 -0.4831
12547TIP3    H259057   4.088   2.730   4.705 -1.0413 -0.5157 -2.8593
12548TIP3   OH259058   4.819   3.920  15.464  0.6113  0.2694 -0.2333
12548TIP3    H159059   4.736   3.957  15.433  0.0441  0.3512  1.2561
12548TIP3    H259060   4.887   3.969  15.419 -0.1531  1.3871 -0.1904
12549TIP3   OH259061   5.790   3.445  13.553  0.4587 -0.0481  0.1802
12549TIP3    H159062   5.822   3.373  13.608  0.9284 -0.3784 -0.5056
12549TIP3    H259063   5.868   3.496  13.532  0.5100 -0.6541 -1.2155
12550TIP3   OH259064   4.822   1.355   6.124  0.5311  0.1734 -0.2654
12550TIP3    H159065   4.811   1.263   6.149 -0.5945  0.6718  1.1965
12550TIP3    H259066   4.793   1.359   6.033 -0.4884 -0.7222  0.0059
12551TIP3   OH259067   0.287   4.698  13.958  0.0641 -0.2248 -0.6799
12551TIP3    H159068   0.232   4.627  13.924 -0.6459  0.0391 -0.1069
12551TIP3    H259069   0.314   4.668  14.045 -0.7193  0.4408 -0.1937
12552TIP3   OH259070   0.829   1.734  16.842 -0.1358 -0.6740 -0.4791
12552TIP3    H159071   0.884   1.761  16.916 -1.0625 -0.8501  0.2999
12552TIP3    H259072   0.826   1.810  16.784 -2.4708  0.9219  1.5318
12553TIP3   OH259073   1.326   3.911   2.011 -0.3936  0.2529  0.2297
12553TIP3    H159074   1.407   3.859   2.012 -0.0839  0.7304  0.2033
12553TIP3    H259075   1.276   3.877   1.938 -0.0802  0.1589  0.0580
12554TIP3   OH259076   0.094   2.626   1.756  0.2633 -0.2663  0.0052
12554TIP3    H159077   0.084   2.559   1.688 -0.3719 -0.0757 -0.0974
12554TIP3    H259078   0.108   2.576   1.836 -0.0442 -0.5258 -0.0970
12555TIP3   OH259079   1.481   6.244  11.387  0.4746  1.1940  0.3100
12555TIP3    H159080   1.475   6.191  11.466  1.8817  1.9453  0.9550
12555TIP3    H259081   1.407   6.304  11.392 -2.3754 -1.8797 -1.4271
12556TIP3   OH259082   2.823   5.804  12.655 -0.0163  0.7511  0.1344
12556TIP3    H159083   2.752   5.766  12.603 -0.5391  1.4521  0.3098
12556TIP3    H259084   2.809   5.768  12.743  2.1557 -2.1716 -0.5811
12557TIP3   OH259085   3.378   0.811  14.811 -0.3402  0.0081 -0.1519
12557TIP3    H159086   3.429   0.739  14.774  2.4977  2.4473 -1.3858
12557TIP3    H259087   3.362   0.870  14.737  0.9437  2.5171  1.4137
12558TIP3   OH259088   5.558   6.725   1.998 -0.0518 -0.1356  0.2821
12558TIP3    H159089   5.549   6.643   2.046  2.3402 -0.5531  0.1424
12558TIP3    H259090   5.474   6.736   1.953 -0.8512 -1.8703  1.2455
12559TIP3   OH259091   2.176   3.542  13.418  0.1055 -0.0542  0.4547
12559TIP3    H159092   2.265   3.512  13.437 -0.3409 -0.3222  2.3069
12559TIP3    H259093   2.126   3.520  13.497 -1.4647  0.6653 -0.2992
12560TIP3   OH259094   6.004   0.266  17.229  0.3493  0.4147  0.5497
12560TIP3    H159095   6.054   0.184  17.239 -0.1318  0.2136  1.4858
12560TIP3    H259096   6.045   0.311  17.156  1.9682  0.2925  1.3456
12561TIP3   OH259097   0.246   1.505   4.629 -0.3838  0.1192  0.4489
12561TIP3    H159098   0.164   1.536   4.667 -1.0685 -0.4213 -0.5485
12561TIP3    H259099   0.279   1.580   4.579 -1.0100 -0.1063 -0.3180
12562TIP3   OH259100   3.897   3.934  11.081  0.1050  0.1816  0.0297
12562TIP3    H159101   3.847   3.862  11.043 -2.6072  1.6712  0.4740
12562TIP3    H259102   3.961   3.893  11.138 -1.1471 -1.8840  0.0400
12563TIP3   OH259103   5.115   2.329  13.190  0.0952  0.4878 -0.2554
12563TIP3    H159104   5.083   2.405  13.240 -0.8780 -0.2172  0.2345
12563TIP3    H259105   5.210   2.331  13.202  0.0840  1.5921 -0.2079
12564TIP3   OH259106   1.237   6.719  15.736 -0.6009 -0.3736  0.2168
12564TIP3    H159107   1.185   6.766  15.671 -0.8163  0.8130  1.2174
12564TIP3    H259108   1.239   6.777  15.812  2.0796 -0.3931  0.2685
12565TIP3   OH259109   4.362   1.793  11.721  0.3180 -0.2076  0.5104
12565TIP3    H159110   4.365   1.871  11.665 -1.2189 -0.3195  0.2296
12565TIP3    H259111   4.449   1.790  11.762  0.7532  1.0735 -0.2440
12566TIP3   OH259112   4.107   0.942   2.897  0.1919  0.4048 -0.2127
12566TIP3    H159113   4.162   0.957   2.973  0.2530  0.7566 -0.3262
12566TIP3    H259114   4.045   1.014   2.897 -1.1389 -0.6866  0.6671
12567TIP3   OH259115   4.614   6.207  15.275 -0.0889  0.5215 -0.1499
12567TIP3    H159116   4.636   6.299  15.291 -1.9642  0.6634  1.9527
12567TIP3    H259117   4.696   6.160  15.292  0.7933  1.7229 -0.8721
12568TIP3   OH259118   4.466   2.107  14.576  0.2921 -0.0761  0.1798
12568TIP3    H159119   4.558   2.105  14.548  0.5611  3.0344  0.5399
12568TIP3    H259120   4.463   2.047  14.650  1.6669 -1.3522 -0.7237
12569TIP3   OH259121   3.029   6.013  12.603  0.3184 -0.0781  0.2014
12569TIP3    H159122   3.025   6.053  12.516  0.1796  0.7254  0.5644
12569TIP3    H259123   2.940   5.981  12.619 -0.1021  1.2752  0.7187
12570TIP3   OH259124   0.967   0.820   3.038  0.0548  0.3068  0.2676
12570TIP3    H159125   1.052   0.827   3.082 -0.0380  0.7161  0.3790
12570TIP3    H259126   0.980   0.861   2.953  0.3095 -0.7201 -0.2147
12571TIP3   OH259127   0.243   1.793   2.245 -0.6227  0.2938  0.2819
12571TIP3    H159128   0.246   1.711   2.294 -2.2112 -0.1474 -0.2998
12571TIP3    H259129   0.331   1.804   2.211 -0.3003 -1.0073  0.6420
12572TIP3   OH259130   5.796   2.922  12.902 -0.3618 -0.0598 -0.3710
12572TIP3    H159131   5.847   2.981  12.846 -1.4312  0.5499 -0.7270
12572TIP3    H259132   5.720   2.898  12.849 -0.1373 -1.4719 -0.0857
12573TIP3   OH259133   6.547   6.758  16.311  0.1359 -0.1277  0.2828
12573TIP3    H159134   6.504   6.843  16.324  0.5940  0.4372 -1.5885
12573TIP3    H259135   6.487   6.709  16.255  0.5195 -0.5238  0.2115
12574TIP3   OH259136   5.163   6.089  15.008 -0.2369  0.3049 -0.1219
12574TIP3    H159137   5.201   6.017  14.959 -0.5752  1.2139 -1.7855
12574TIP3    H259138   5.087   6.051  15.052  1.0919 -0.9339  1.2186
12575TIP3   OH259139   5.396   3.627  11.312 -0.0411 -0.1241  0.3893
12575TIP3    H159140   5.424   3.602  11.224 -0.0508 -2.0282  0.8763
12575TIP3    H259141   5.472   3.611  11.367 -0.4214 -0.1904  0.9109
12576TIP3   OH259142   2.254   1.362   4.946  0.2984 -0.0292  0.4972
12576TIP3    H159143   2.225   1.442   4.901  0.1056 -0.6264 -0.4738
12576TIP3    H259144   2.248   1.384   5.039  0.0491  1.0181  0.2552
12577TIP3   OH259145   0.555   2.346   3.843  0.3901 -0.9073 -0.1542
12577TIP3    H159146   0.531   2.256   3.865 -1.8194 -0.4299 -0.4044
12577TIP3    H259147   0.476   2.397   3.858  1.1547  0.7693 -1.4125
12578TIP3   OH259148   2.973   3.731   2.510 -0.5366  0.4503  0.0505
12578TIP3    H159149   3.015   3.727   2.425  0.8751  1.7059  0.6561
12578TIP3    H259150   2.942   3.821   2.518 -0.6526  0.3493  0.8653
12579TIP3   OH259151   6.158   0.756  13.660 -0.3046  0.3367 -0.2021
12579TIP3    H159152   6.109   0.706  13.725  0.3817  0.5535  0.4995
12579TIP3    H259153   6.191   0.690  13.599 -0.9066  0.1261 -0.3082
12580TIP3   OH259154   3.526   4.356   0.118  0.0773 -0.2491  0.0953
12580TIP3    H159155   3.612   4.329   0.086  0.1708 -0.9731  0.9481
12580TIP3    H259156   3.478   4.379   0.038  0.8358 -0.4941 -0.4443
12581TIP3   OH259157   1.061   3.549   3.871  0.4245  0.5962 -0.1073
12581TIP3    H159158   1.107   3.543   3.955  0.5666  0.4667 -0.1928
12581TIP3    H259159   1.020   3.463   3.860  1.4933  0.1403 -0.7872
12582TIP3   OH259160   0.773   0.980  14.797 -0.1813 -0.7963  0.0893
12582TIP3    H159161   0.791   1.059  14.848  0.2711 -0.8879  0.0728
12582TIP3    H259162   0.685   0.954  14.824 -0.4082 -0.1861 -0.0390
12583TIP3   OH259163   1.973   4.470   3.495  0.0065  0.5795  0.0544
12583TIP3    H159164   1.991   4.530   3.568  0.7820  0.0797  0.2824
12583TIP3    H259165   1.918   4.402   3.533 -1.7200  1.6398 -0.4359
12584TIP3   OH259166   1.306   0.650   3.809 -0.0587  0.1146  0.1230
12584TIP3    H159167   1.246   0.657   3.883 -0.9684 -0.7685 -0.5060
12584TIP3    H259168   1.377   0.594   3.840 -0.2209  0.0916  0.4573
12585TIP3   OH259169   5.380   0.733   4.166  0.4824  0.4902 -0.0318
12585TIP3    H159170   5.467   0.692   4.161  0.8565  1.2496  0.0965
12585TIP3    H259171   5.358   0.753   4.075 -0.9567 -2.4752 -0.4676
12586TIP3   OH259172   0.558   3.435  12.129  0.6479 -0.5416  0.3568
12586TIP3    H159173   0.627   3.404  12.188  0.8143 -0.0944  0.3979
12586TIP3    H259174   0.478   3.394  12.162  0.4270  1.1231  2.0056
12587TIP3   OH259175   1.853   5.488  14.842 -0.6283 -0.0767  0.9347
12587TIP3    H159176   1.776   5.512  14.791  0.1760 -0.2167 -0.3906
12587TIP3    H259177   1.837   5.398  14.868 -0.5508 -0.3919 -0.0655
12588TIP3   OH259178   4.508   3.093  14.964  0.1352  0.0289  0.0379
12588TIP3    H159179   4.509   3.007  15.007 -2.0591  1.1736  2.6269
12588TIP3    H259180   4.417   3.122  14.971  1.2414  3.6564  1.6299
12589TIP3   OH259181   3.879   0.417   4.961 -0.1280  0.2972 -0.0295
12589TIP3    H159182   3.974   0.416   4.947 -0.1317 -0.2353 -0.0283
12589TIP3    H259183   3.845   0.474   4.893  0.4815  3.0245  1.7758
12590TIP3   OH259184   6.217   0.237   4.785 -0.3995  0.5615  0.1802
12590TIP3    H159185   6.186   0.328   4.789  0.3772  0.8195  0.4499
12590TIP3    H259186   6.299   0.237   4.835 -0.3306 -0.2641  0.0813
12591TIP3   OH259187   1.095   0.077  12.381 -0.0582  0.3318 -0.2649
12591TIP3    H159188   1.115  -0.015  12.364 -1.5902  0.1130 -1.0392
12591TIP3    H259189   1.000   0.081  12.387  0.0174  1.7569  0.5238
12592TIP3   OH259190   1.569   6.229  16.652 -0.1194  0.8584  0.7687
12592TIP3    H159191   1.475   6.212  16.648  0.3649 -2.2523 -0.1138
12592TIP3    H259192   1.602   6.207  16.565  1.6201  0.1439  1.5488
12593TIP3   OH259193   3.046   4.875   3.572 -0.9457  0.0360 -0.1717
12593TIP3    H159194   2.982   4.846   3.507 -0.6841 -0.1591 -0.3432
12593TIP3    H259195   3.012   4.843   3.655 -0.7564 -0.6148 -0.3371
12594TIP3   OH259196   0.071   1.842   1.409  0.1464 -0.4719  0.0259
12594TIP3    H159197  -0.007   1.843   1.353  0.8820  0.6137 -1.0345
12594TIP3    H259198   0.042   1.883   1.490 -0.1338  0.9907 -0.7742
12595TIP3   OH259199   4.357   4.003  13.558  0.5772 -0.1762 -0.2727
12595TIP3    H159200   4.263   4.011  13.571  0.3613 -2.0853 -0.4293
12595TIP3    H259201   4.381   3.922  13.604  2.0007 -0.1520 -0.9282
12596TIP3   OH259202   1.090   3.247   3.749 -0.3578  0.0126  0.7209
12596TIP3    H159203   1.096   3.199   3.832 -2.7631 -0.4696  0.6865
12596TIP3    H259204   1.113   3.183   3.682 -0.6715 -0.2685  0.8761
12597TIP3   OH259205   4.486   1.762  14.451 -0.0587 -0.0149 -0.3207
12597TIP3    H159206   4.572   1.796  14.477  0.9239 -1.4146 -1.5759
12597TIP3    H259207   4.424   1.807  14.509  1.6462 -0.1301  1.7400
12598TIP3   OH259208   4.847   2.911   3.959  0.6262  0.7134  0.1603
12598TIP3    H159209   4.753   2.924   3.949  0.5491  1.4816  1.6573
12598TIP3    H259210   4.861   2.820   3.934 -0.7296  0.1838  1.2060
12599TIP3   OH259211   5.210   2.618   5.602  0.4560 -0.3900 -0.3895
12599TIP3    H159212   5.204   2.689   5.667 -1.8494 -1.3075  0.5111
12599TIP3    H259213   5.304   2.601   5.594  1.1223  2.7213 -0.6517
12600TIP3   OH259214   4.665   1.087   2.829  0.2129  0.2128 -0.2944
12600TIP3    H159215   4.613   1.042   2.896  1.0355 -0.8564 -0.3355
12600TIP3    H259216   4.663   1.179   2.854 -0.4336 -0.0218  0.5573
12601TIP3   OH259217   0.651   3.956  11.867 -0.0220  0.2412  0.0947
12601TIP3    H159218   0.606   3.921  11.790 -0.2168 -1.7059  1.0417
12601TIP3    H259219   0.586   4.014  11.908 -0.7074 -0.4345 -0.0172
12602TIP3   OH259220   2.500   1.591   5.628  0.4572 -0.2098  0.6782
12602TIP3    H159221   2.576   1.550   5.588  0.2560 -1.1410  1.2223
12602TIP3    H259222   2.526   1.608   5.719 -0.2521 -1.3437  1.1175
12603TIP3   OH259223   6.060   5.553  17.187 -0.2335 -0.1215 -0.1598
12603TIP3    H159224   6.028   5.487  17.249 -1.0989  0.8460  0.4648
12603TIP3    H259225   6.050   5.636  17.234 -0.2578  0.5699 -1.3565
12604TIP3   OH259226   4.734   4.025   3.778 -0.1594  0.8230 -0.2031
12604TIP3    H159227   4.776   4.089   3.836 -0.9840  2.2926 -1.1372
12604TIP3    H259228   4.737   3.943   3.826  0.7309  1.6059  1.1645
12605TIP3   OH259229   6.160   0.205   3.419 -0.8762  0.2793 -0.6941
12605TIP3    H159230   6.164   0.298   3.398 -4.3895  0.1525 -2.8023
12605TIP3    H259231   6.146   0.202   3.513 -2.4719  2.0399 -0.8278
12606TIP3   OH259232   4.484   5.856  12.050 -0.4368  0.5136  0.1419
12606TIP3    H159233   4.401   5.815  12.025 -1.1933  0.6685  2.2289
12606TIP3    H259234   4.460   5.930  12.105  1.0680 -0.3321  2.0762
12607TIP3   OH259235   3.514   4.174  16.570  0.0332 -0.2785 -0.2171
12607TIP3    H159236   3.420   4.191  16.564  0.0826  0.1314  0.0722
12607TIP3    H259237   3.528   4.150  16.661 -0.1322 -2.6462 -0.7547
12608TIP3   OH259238   3.387   2.834  11.026  0.1032 -0.3754 -0.7992
12608TIP3    H159239   3.335   2.861  10.950 -1.3788 -0.6201  0.0816
12608TIP3    H259240   3.349   2.750  11.053 -0.6859  0.5788  1.3253
12609TIP3   OH259241   1.129   3.812  11.618 -0.0885 -0.3956  0.2735
12609TIP3    H159242   1.044   3.814  11.574  0.2546  2.0429 -0.4404
12609TIP3    H259243   1.118   3.748  11.689 -2.8297  0.4989  0.7695
12610TIP3   OH259244   3.877   5.969  13.084  0.1234  0.3940  0.1505
12610TIP3    H159245   3.821   6.001  13.154 -0.9443 -1.0291  0.0045
12610TIP3    H259246   3.817   5.952  13.011  0.7586 -0.9002 -0.1025
12611TIP3   OH259247   0.103   1.608   2.595  0.3778  0.6771  0.3272
12611TIP3    H159248   0.071   1.520   2.614 -0.2898  0.4703 -1.5471
12611TIP3    H259249   0.078   1.660   2.672  0.9123 -0.7732  1.5208
12612TIP3   OH259250   0.819   6.167   1.062  0.0341 -0.3122 -0.1397
12612TIP3    H159251   0.788   6.136   1.147 -0.4919 -0.6085 -0.4284
12612TIP3    H259252   0.743   6.210   1.023  0.3371  0.0242 -0.3643
12613TIP3   OH259253   2.926   0.662  12.973  0.2734 -0.4968 -0.4025
12613TIP3    H159254   2.905   0.708  12.892 -1.4796 -0.5865 -0.0431
12613TIP3    H259255   2.968   0.727  13.028 -0.6181  0.2217 -0.5496
12614TIP3   OH259256   5.169   4.638   5.958  0.1465 -0.4795  0.8936
12614TIP3    H159257   5.213   4.568   5.909  2.6000  0.1496  2.0475
12614TIP3    H259258   5.076   4.614   5.957  0.5293 -2.1341 -1.2938
12615TIP3   OH259259   0.391   5.842  10.548  0.1705  0.0542  0.3249
12615TIP3    H159260   0.431   5.926  10.571 -1.6173  1.7221 -2.1483
12615TIP3    H259261   0.302   5.847  10.583 -0.7698  0.3312 -1.9081
12616TIP3   OH259262   4.524   4.685  15.628 -0.1745  0.2286 -0.2211
12616TIP3    H159263   4.587   4.637  15.574  0.1567 -1.5096  1.5874
12616TIP3    H259264   4.438   4.657  15.596 -0.0110  0.4659 -0.8800
12617TIP3   OH259265   4.473   0.134   5.052  0.1861 -0.5040 -0.2892
12617TIP3    H159266   4.481   0.207   4.990  0.0779  0.0584  0.3548
12617TIP3    H259267   4.561   0.098   5.058  1.1785  2.0129  2.3326
12618TIP3   OH259268   0.306   2.521   5.634 -0.2972  0.1623  0.0022
12618TIP3    H159269   0.298   2.430   5.606 -0.4900  0.8520 -2.3445
12618TIP3    H259270   0.222   2.541   5.675 -1.0587 -0.1438 -1.3524
12619TIP3   OH259271   4.524   5.503   3.121  0.2838 -1.1071 -0.2228
12619TIP3    H159272   4.534   5.575   3.183 -2.7175 -1.3855  0.7206
12619TIP3    H259273   4.546   5.425   3.171 -1.5874 -1.2782  0.3927
12620TIP3   OH259274   6.771   1.024  13.223 -0.1854 -0.4935 -0.7612
12620TIP3    H159275   6.759   1.105  13.273  0.4346 -0.4554 -0.6688
12620TIP3    H259276   6.821   1.050  13.147  0.6396 -0.9097 -0.3765
12621TIP3   OH259277   1.229   4.458   3.126  0.0110 -0.4789  0.4887
12621TIP3    H159278   1.302   4.489   3.180 -0.7736  0.3990  1.0795
12621TIP3    H259279   1.253   4.369   3.102  1.1712 -0.2870  0.8660
12622TIP3   OH259280   4.295   3.105   3.500 -0.3672 -0.7756 -0.3422
12622TIP3    H159281   4.351   3.183   3.508 -0.7357 -0.4736 -0.6525
12622TIP3    H259282   4.233   3.114   3.572  0.4754 -1.5335  0.5081
12623TIP3   OH259283   3.486   3.948   3.805 -0.1048 -0.1278 -0.3115
12623TIP3    H159284   3.495   4.043   3.798  0.8340 -0.2885 -1.7098
12623TIP3    H259285   3.541   3.924   3.880 -0.2284  0.4042 -0.0453
12624TIP3   OH259286   5.166   3.757  11.707  0.0817 -0.3584 -0.0497
12624TIP3    H159287   5.113   3.683  11.678 -0.7469  1.0744 -2.4634
12624TIP3    H259288   5.107   3.810  11.760 -0.3875  0.2879 -1.1895
12625TIP3   OH259289   2.454   4.564  11.712  0.1147  0.6502  0.3579
12625TIP3    H159290   2.515   4.507  11.666  0.6330  0.4651  1.2542
12625TIP3    H259291   2.385   4.505  11.743 -0.5914  0.8714 -0.7295
12626TIP3   OH259292   0.445   1.546   3.316 -0.1730  0.0352 -0.1070
12626TIP3    H159293   0.427   1.572   3.406 -0.3882  0.6629 -0.3200
12626TIP3    H259294   0.378   1.592   3.264  0.1090 -0.1082 -0.6055
12627TIP3   OH259295   1.408   3.176  14.281 -0.5821  0.2081  0.4181
12627TIP3    H159296   1.367   3.205  14.200 -1.1089 -0.7226  0.3373
12627TIP3    H259297   1.430   3.084  14.265 -0.3687  0.1168  1.2012
12628TIP3   OH259298   1.881   3.612  15.813 -0.0868  0.1055  0.0634
12628TIP3    H159299   1.798   3.632  15.857 -0.2781 -1.0718  0.2539
12628TIP3    H259300   1.929   3.558  15.876  0.1863 -0.4900 -0.6458
12629TIP3   OH259301   0.337   1.024   5.990 -0.1390  0.1146 -0.1260
12629TIP3    H159302   0.253   1.070   5.993 -0.5841 -0.5837 -1.1811
12629TIP3    H259303   0.319   0.937   6.023 -0.6082 -1.0595 -3.0984
12630TIP3   OH259304   1.838   4.271   0.790 -0.4511 -0.4592 -0.8777
12630TIP3    H159305   1.837   4.337   0.720 -0.4696  0.8915  0.3357
12630TIP3    H259306   1.780   4.308   0.857 -2.2685 -2.7911 -1.0627
12631TIP3   OH259307   6.571   1.038  12.622  0.2173 -0.0331 -0.5259
12631TIP3    H159308   6.555   1.018  12.714 -0.8023  1.3763 -0.3740
12631TIP3    H259309   6.545   0.958  12.575 -0.5601 -0.2813  0.3059
12632TIP3   OH259310   3.720   2.508   5.998  0.3830 -0.1699 -0.1988
12632TIP3    H159311   3.711   2.543   6.086  1.0064 -0.4224 -0.0262
12632TIP3    H259312   3.744   2.583   5.944 -0.2527  0.0321 -0.2022
12633TIP3   OH259313   0.663   3.314  13.131  0.0733 -0.7279  0.2857
12633TIP3    H159314   0.694   3.388  13.184 -1.5006 -0.5239  0.9577
12633TIP3    H259315   0.669   3.345  13.041 -1.9794  0.8411  0.6038
12634TIP3   OH259316   0.563   1.204  12.905 -0.4552  0.3975 -0.1633
12634TIP3    H159317   0.584   1.221  12.997 -0.6465  0.2785 -0.0964
12634TIP3    H259318   0.648   1.185  12.865 -0.3635  0.5070 -0.0243
12635TIP3   OH259319   5.556   2.156  11.871  0.1973 -0.3127 -0.2234
12635TIP3    H159320   5.581   2.065  11.886  1.8290 -0.1483 -1.6453
12635TIP3    H259321   5.618   2.188  11.806 -0.9877  1.5263 -0.5413
12636TIP3   OH259322   4.319   2.489   0.098 -0.0106  0.2877 -0.7226
12636TIP3    H159323   4.350   2.426   0.032  1.0246 -1.4260  1.2884
12636TIP3    H259324   4.397   2.510   0.150 -1.5940 -3.0651  3.6365
12637TIP3   OH259325   2.955   2.763   2.102  0.2690  0.2063 -0.1914
12637TIP3    H159326   2.922   2.699   2.166 -1.2534  0.8057 -0.3482
12637TIP3    H259327   2.901   2.749   2.024  0.9799  0.6434 -0.7786
12638TIP3   OH259328   2.639   6.296  10.783  0.8643 -0.2108 -0.3763
12638TIP3    H159329   2.573   6.233  10.758  1.3563 -0.7551 -0.3157
12638TIP3    H259330   2.705   6.245  10.830  0.6204  0.5551  0.8553
12639TIP3   OH259331   3.869   5.958  15.020  0.0809  0.0512 -0.2880
12639TIP3    H159332   3.842   5.875  14.981  1.1716 -1.0633  1.2057
12639TIP3    H259333   3.961   5.945  15.044 -0.5952  0.4605  3.0121
12640TIP3   OH259334   2.596   0.902  14.617  0.2150 -0.2144 -0.8429
12640TIP3    H159335   2.529   0.901  14.686 -0.2895  0.6981 -1.3002
12640TIP3    H259336   2.546   0.893  14.536  0.5246  1.6211 -1.2722
12641TIP3   OH259337   3.069   6.165   6.162  0.1781 -0.5201 -0.2316
12641TIP3    H159338   2.991   6.196   6.208  0.9723 -0.0205  0.8141
12641TIP3    H259339   3.133   6.149   6.231  1.6353  0.9017 -1.1789
12642TIP3   OH259340   6.756   0.289  14.200  0.1027 -0.1588 -0.0076
12642TIP3    H159341   6.703   0.296  14.120  0.2527 -0.2416 -0.1141
12642TIP3    H259342   6.730   0.364  14.253  0.5254  0.3027 -0.4465
12643TIP3   OH259343   2.830   4.336   0.479  0.0084 -0.7878  0.0090
12643TIP3    H159344   2.873   4.251   0.478  1.0333 -0.2685 -0.7047
12643TIP3    H259345   2.898   4.398   0.457 -0.6453  0.2752  0.8817
12644TIP3   OH259346   1.888   2.851   3.277 -1.0581  0.3133  0.2236
12644TIP3    H159347   1.869   2.758   3.289  2.7492 -0.5825  0.7489
12644TIP3    H259348   1.859   2.892   3.359  0.0776 -1.0390  1.3639
12645TIP3   OH259349   5.819   4.575   4.156  0.1575 -0.0787 -0.1046
12645TIP3    H159350   5.831   4.666   4.127 -0.5996  0.1699  0.3328
12645TIP3    H259351   5.792   4.529   4.076  2.4628 -0.3645 -0.7889
12646TIP3   OH259352   2.480   6.273  14.410 -0.1712 -0.0655 -0.2049
12646TIP3    H159353   2.509   6.207  14.347 -1.2067 -0.9271  0.1908
12646TIP3    H259354   2.446   6.345  14.356 -1.5348 -1.0182 -0.6599
12647TIP3   OH259355   3.762   5.991  14.253 -0.3994  0.6641 -0.2701
12647TIP3    H159356   3.816   6.068  14.271 -0.5892  0.4467  1.3776
12647TIP3    H259357   3.751   5.949  14.338  0.0449 -1.4399 -1.1803
12648TIP3   OH259358   0.215   5.994   0.108 -0.0625  0.5760  0.3091
12648TIP3    H159359   0.246   6.061   0.170  3.4489  0.9483 -1.5907
12648TIP3    H259360   0.163   6.043   0.045 -0.3190  0.8999  0.7649
12649TIP3   OH259361   5.837   6.011   3.214 -0.5158  0.2097 -0.1195
12649TIP3    H159362   5.805   5.991   3.126  0.9340  0.7502 -0.7924
12649TIP3    H259363   5.932   6.012   3.205 -0.3839  2.9110  0.8644
12650TIP3   OH259364   2.544   3.710  14.308  0.3716  0.1827  0.0640
12650TIP3    H159365   2.542   3.728  14.402 -0.4646  0.2609  0.0359
12650TIP3    H259366   2.452   3.697  14.284  0.4470  1.3953 -0.9829
12651TIP3   OH259367   2.732   0.204   0.877  0.0664  0.4395 -0.6183
12651TIP3    H159368   2.663   0.258   0.916 -0.3907 -0.2405 -0.4724
12651TIP3    H259369   2.806   0.211   0.937  0.4596  1.8956 -1.2247
12652TIP3   OH259370   2.921   6.010   1.079 -0.1038 -0.1505  0.4535
12652TIP3    H159371   3.012   6.033   1.097 -0.4663  1.0108  0.8738
12652TIP3    H259372   2.879   6.006   1.165 -0.1937 -1.9069  0.3662
12653TIP3   OH259373   0.758   5.214  10.922 -0.3424  1.5789  0.4444
12653TIP3    H159374   0.825   5.215  10.990  0.1215  1.5818 -0.0046
12653TIP3    H259375   0.676   5.199  10.969  0.1382  0.1407  0.8716
12654TIP3   OH259376   2.239   0.871   4.474 -0.5624  0.1556  0.2868
12654TIP3    H159377   2.156   0.857   4.519 -1.2546  1.0179 -0.6903
12654TIP3    H259378   2.253   0.966   4.478  0.4018  0.0210  0.4697
12655TIP3   OH259379   2.490   0.535   4.139 -0.2112 -0.4529  0.3296
12655TIP3    H159380   2.518   0.603   4.078  0.6964 -0.6310  0.5392
12655TIP3    H259381   2.438   0.581   4.205  0.8553  0.1325  0.7789
12656TIP3   OH259382   2.141   2.002   2.467 -0.1561 -0.3041 -0.5121
12656TIP3    H159383   2.119   1.910   2.483  0.4366 -0.2244  0.9609
12656TIP3    H259384   2.143   2.041   2.555 -0.9113  1.2454 -1.1426
12657TIP3   OH259385   1.539   0.537  16.841 -0.0819  0.0371 -0.2290
12657TIP3    H159386   1.579   0.593  16.908  0.6479 -1.1505  0.3536
12657TIP3    H259387   1.569   0.449  16.862 -0.8640 -0.5299 -1.3869
12658TIP3   OH259388   2.601   0.553   2.204 -0.0102  0.1420 -0.1959
12658TIP3    H159389   2.630   0.638   2.171  1.1834 -0.0697  0.2468
12658TIP3    H259390   2.676   0.495   2.189 -1.0780 -1.0507 -1.2365
12659TIP3   OH259391   1.448   1.454   5.894 -0.2367  0.7023  1.1416
12659TIP3    H159392   1.473   1.406   5.973 -0.8679  0.7436  1.3708
12659TIP3    H259393   1.353   1.467   5.902 -0.9074 -1.8332 -0.9478
12660TIP3   OH259394   5.248   5.661  11.672 -0.0967  0.0374 -0.1248
12660TIP3    H159395   5.195   5.625  11.743 -0.9369 -0.2831 -0.9032
12660TIP3    H259396   5.214   5.620  11.593  1.4306 -0.3143 -0.6332
12661TIP3   OH259397   0.991   0.278   6.067  0.3908 -0.2197  0.5437
12661TIP3    H159398   0.929   0.328   6.120 -0.0119  1.5089 -1.4268
12661TIP3    H259399   0.950   0.193   6.056 -1.0208  0.4441  0.4213
12662TIP3   OH259400   1.557   4.900  12.313 -0.5141  0.1793 -0.0964
12662TIP3    H159401   1.485   4.888  12.375 -0.8706 -0.6233 -0.6531
12662TIP3    H259402   1.568   4.995  12.307 -0.4107  0.2713  1.2591
12663TIP3   OH259403   6.295   5.601   3.534 -0.2485  0.2956 -0.0902
12663TIP3    H159404   6.354   5.675   3.523  0.0294 -0.0237 -0.8516
12663TIP3    H259405   6.277   5.571   3.444  0.9425 -1.5760  0.2338
12664TIP3   OH259406   0.138   3.613  12.070 -0.0734 -0.2098 -0.0364
12664TIP3    H159407   0.188   3.646  12.145  0.2916 -1.2701  0.2043
12664TIP3    H259408   0.049   3.643  12.086  0.5247  2.1390 -0.7222
12665TIP3   OH259409   4.317   1.822   5.023 -0.6462 -0.0715  0.2515
12665TIP3    H159410   4.248   1.760   5.047  0.2750 -1.2959 -0.1297
12665TIP3    H259411   4.308   1.832   4.928 -0.3977 -0.1279  0.2211
12666TIP3   OH259412   4.082   3.865   3.392  0.1837 -0.4459 -0.5342
12666TIP3    H159413   3.988   3.881   3.385  0.4581  1.0680 -0.9699
12666TIP3    H259414   4.105   3.897   3.479  0.3707 -0.5100 -0.5603
12667TIP3   OH259415   0.050   0.106  10.829  0.4043  0.0307  0.1316
12667TIP3    H159416  -0.039   0.142  10.829  0.0406 -0.8240  0.6020
12667TIP3    H259417   0.042   0.024  10.781  1.2928  0.7361 -1.2553
12668TIP3   OH259418   0.709   0.916   3.087 -0.2613 -0.3671 -0.2356
12668TIP3    H159419   0.721   1.011   3.087 -1.4634 -0.1906 -1.9581
12668TIP3    H259420   0.788   0.881   3.046 -0.2969 -0.0472 -0.5701
12669TIP3   OH259421   2.982   1.257   4.334  0.4488 -0.5067 -0.1814
12669TIP3    H159422   3.052   1.283   4.273 -0.1488  0.0508 -0.6516
12669TIP3    H259423   2.903   1.259   4.280  0.3219 -3.1868 -0.1954
12670TIP3   OH259424   0.708   2.980  11.137 -0.0339 -0.0507  0.6806
12670TIP3    H159425   0.781   2.936  11.180  1.1855  2.1851  1.0400
12670TIP3    H259426   0.749   3.045  11.079 -1.7126 -0.4646 -1.0856
12671TIP3   OH259427   0.960   5.410  14.610  0.0643 -0.3663  0.6834
12671TIP3    H159428   0.944   5.487  14.556  2.4439  0.1792  0.6057
12671TIP3    H259429   0.925   5.337  14.560  0.2610  0.3811 -0.5831
12672TIP3   OH259430   1.255   3.561   2.118  0.3635 -0.2840 -0.3203
12672TIP3    H159431   1.292   3.478   2.089  0.0267 -0.3888 -0.4481
12672TIP3    H259432   1.274   3.621   2.046 -1.8917 -0.9182 -1.5283
12673TIP3   OH259433   6.632   3.025  14.518  0.2247 -0.4844  0.2706
12673TIP3    H159434   6.677   2.992  14.595  0.8737 -0.3732 -0.0547
12673TIP3    H259435   6.567   2.958  14.497  0.8967 -1.1201  0.1700
12674TIP3   OH259436   0.311   1.189  15.486 -0.5891 -0.3987 -0.5261
12674TIP3    H159437   0.261   1.107  15.490 -1.5476  0.0838 -2.0986
12674TIP3    H259438   0.354   1.187  15.401 -1.6216  1.2675 -1.1323
12675TIP3   OH259439   4.873   3.675   1.216 -0.2186  0.2194 -0.0501
12675TIP3    H159440   4.818   3.671   1.293 -2.6208 -2.2715 -1.7295
12675TIP3    H259441   4.828   3.736   1.157 -1.3335 -1.8343 -1.4352
12676TIP3   OH259442   2.485   2.609  14.367 -0.3337 -0.1818 -0.3352
12676TIP3    H159443   2.462   2.518  14.351 -1.1872  0.0219 -0.3146
12676TIP3    H259444   2.574   2.606  14.403 -0.1727 -0.9626 -0.7891
12677TIP3   OH259445   6.707   1.743  13.638 -0.2207  0.1925 -0.1513
12677TIP3    H159446   6.634   1.798  13.610 -1.2892 -0.3270  1.5104
12677TIP3    H259447   6.666   1.664  13.672  1.0806  0.0716  1.2495
12678TIP3   OH259448   2.627   5.800  11.381  0.3982  0.0598  0.5279
12678TIP3    H159449   2.618   5.823  11.288  0.7316  0.5371  0.6078
12678TIP3    H259450   2.675   5.874  11.419  1.8188 -0.9315  0.7389
12679TIP3   OH259451   3.384   5.931  11.383 -0.1132 -0.0292 -0.1536
12679TIP3    H159452   3.432   5.853  11.356  0.4369 -0.1639  1.1453
12679TIP3    H259453   3.446   5.981  11.435 -1.0674  0.2781  0.7248
12680TIP3   OH259454   4.330   1.526   0.258  0.4110  0.2090  0.5323
12680TIP3    H159455   4.366   1.494   0.341 -0.2169  0.1639  0.7896
12680TIP3    H259456   4.327   1.450   0.201  2.4930  0.5718 -0.1382
12681TIP3   OH259457   4.476   1.015  11.686  0.1941  0.0950  0.3951
12681TIP3    H159458   4.544   1.046  11.625  0.2163 -0.5355  0.0865
12681TIP3    H259459   4.507   1.044  11.772  0.3199  0.7294  0.1445
12682TIP3   OH259460   2.911   1.336  15.082 -0.0223 -0.2261  0.0761
12682TIP3    H159461   2.870   1.422  15.083 -1.9964 -1.1192 -0.0612
12682TIP3    H259462   2.978   1.341  15.151 -0.0848  1.3966  0.0653
12683TIP3   OH259463   3.428   3.708   4.452 -0.2535 -0.2129 -0.0583
12683TIP3    H159464   3.398   3.620   4.474 -1.5661  0.1856 -0.1688
12683TIP3    H259465   3.400   3.721   4.361  0.0996  0.2441 -0.1031
12684TIP3   OH259466   4.618   6.383  13.172 -0.2491  0.1163  0.1906
12684TIP3    H159467   4.682   6.365  13.103 -3.0967 -2.2815 -2.1683
12684TIP3    H259468   4.590   6.473  13.157  0.5059  0.2230 -0.6237
12685TIP3   OH259469   1.083   0.970   0.610 -0.4414  0.2677  0.2539
12685TIP3    H159470   1.042   0.885   0.623 -2.0459  1.0703  0.7044
12685TIP3    H259471   1.087   0.980   0.515 -0.6450 -0.1207  0.2014
12686TIP3   OH259472   5.600   0.756   2.474 -0.5296  0.3561 -0.1503
12686TIP3    H159473   5.620   0.677   2.423 -1.3673  0.7615 -1.1266
12686TIP3    H259474   5.679   0.771   2.526  0.3278 -0.1071 -1.2816
12687TIP3   OH259475   1.226   1.198   0.652  1.0316 -0.3001 -0.3003
12687TIP3    H159476   1.176   1.118   0.637 -0.3992  0.7105 -1.1728
12687TIP3    H259477   1.237   1.202   0.747  0.6927 -1.2750 -0.2110
12688TIP3   OH259478   4.595   2.496  14.412 -0.0607  0.1983  0.3821
12688TIP3    H159479   4.515   2.453  14.444  1.3986 -2.0736  1.2228
12688TIP3    H259480   4.575   2.516  14.321 -1.5113 -0.5476  0.4916
12689TIP3   OH259481   3.761   0.951   0.195 -0.3104 -0.1629  0.4455
12689TIP3    H159482   3.737   0.937   0.103  3.8803 -0.7515 -0.7852
12689TIP3    H259483   3.757   0.864   0.234 -2.3481  0.1251  1.0122
12690TIP3   OH259484   3.638   3.320   1.325  0.0802  0.5111  0.3033
12690TIP3    H159485   3.572   3.354   1.386  1.1611  1.4511  1.0005
12690TIP3    H259486   3.710   3.292   1.381  0.2097 -0.6823 -0.4334
12691TIP3   OH259487   0.232   4.112   2.233 -0.2885  0.0955  0.3828
12691TIP3    H159488   0.206   4.036   2.180  1.6643 -0.9912  0.8855
12691TIP3    H259489   0.205   4.089   2.322  2.4429 -1.1814  0.9635
12692TIP3   OH259490   6.480   4.250   0.599 -1.0374 -0.0046 -0.6210
12692TIP3    H159491   6.473   4.313   0.527 -2.6892  2.0015  1.1687
12692TIP3    H259492   6.563   4.205   0.582 -1.0701  0.7513 -3.4337
12693TIP3   OH259493   4.377   1.179  11.106  0.2063 -0.4824 -0.1450
12693TIP3    H159494   4.381   1.197  11.200  2.4604 -0.9713 -0.1028
12693TIP3    H259495   4.352   1.087  11.100 -1.6861 -0.0008 -0.1053
12694TIP3   OH259496   1.973   0.707   2.253 -0.0359 -0.4602 -0.0240
12694TIP3    H159497   1.898   0.766   2.264 -0.6843 -1.5041  1.4428
12694TIP3    H259498   2.033   0.732   2.324  0.8667  0.1074 -0.9551
12695TIP3   OH259499   5.989   2.952  12.469  0.0535 -0.0538  0.3373
12695TIP3    H159500   5.960   3.043  12.482 -0.3984 -0.1466  0.0037
12695TIP3    H259501   5.919   2.899  12.509  0.5532 -0.2498  0.9703
12696TIP3   OH259502   0.208   5.484  11.467 -0.1095  0.1660 -0.2573
12696TIP3    H159503   0.128   5.519  11.428 -1.1332  1.0291  2.3830
12696TIP3    H259504   0.269   5.476  11.393 -2.2227  0.5598 -2.1690
12697TIP3   OH259505   3.972   2.228   5.266 -0.2302 -0.6950  0.2192
12697TIP3    H159506   3.895   2.248   5.320 -0.0972 -0.8608  0.4758
12697TIP3    H259507   3.993   2.137   5.287 -0.0044 -0.6713  0.1002
12698TIP3   OH259508   3.828   4.553  15.100 -0.3902  0.0437  0.1291
12698TIP3    H159509   3.747   4.575  15.147 -1.0718 -1.7451 -0.1311
12698TIP3    H259510   3.898   4.570  15.164 -0.9455  1.5847  0.3674
12699TIP3   OH259511   4.111   4.230   0.604  0.0828  0.7393 -0.2656
12699TIP3    H159512   4.186   4.289   0.602  0.8005 -0.1077  0.7114
12699TIP3    H259513   4.067   4.250   0.687  0.3717 -0.1332  0.1056
12700TIP3   OH259514   3.988   4.873   5.634  0.1366 -0.0203  0.2427
12700TIP3    H159515   4.083   4.867   5.640  0.0974 -1.2344 -0.0202
12700TIP3    H259516   3.957   4.855   5.722  0.1421 -0.1517  0.2188
12701TIP3   OH259517   4.094   1.639   5.081 -0.0178  1.1541  0.6387
12701TIP3    H159518   4.036   1.587   5.137  0.0408 -0.4836 -0.7193
12701TIP3    H259519   4.128   1.576   5.017  1.7197  2.4765  0.1761
12702TIP3   OH259520   6.004   2.017  16.295  0.5548  0.2303  0.0361
12702TIP3    H159521   6.039   2.104  16.278  1.2759  0.0814  0.6840
12702TIP3    H259522   6.063   1.980  16.361  0.0909 -0.6376 -0.0190
12703TIP3   OH259523   1.099   0.760  12.299 -0.3582 -0.1413  0.1690
12703TIP3    H159524   1.082   0.775  12.206  0.3190  0.0038  0.0632
12703TIP3    H259525   1.085   0.666  12.312 -0.4928 -0.1536 -0.0696
12704TIP3   OH259526   6.302   4.277   5.863 -0.1747 -0.5678  0.5862
12704TIP3    H159527   6.239   4.206   5.875 -0.8412 -0.3169 -1.1869
12704TIP3    H259528   6.360   4.246   5.793  0.4377  0.0326  0.8144
12705TIP3   OH259529   5.913   1.969  11.848 -0.2462  0.2358  0.3662
12705TIP3    H159530   5.825   1.982  11.884 -1.5537 -1.1668 -1.9986
12705TIP3    H259531   5.920   1.874  11.837  0.1497  0.4910 -2.5144
12706TIP3   OH259532   5.946   2.127   2.043  0.6056 -0.1072  0.0804
12706TIP3    H159533   5.996   2.182   2.103  1.5648  0.1853 -0.9346
12706TIP3    H259534   5.855   2.153   2.056  1.0451  1.9485 -0.5413
12707TIP3   OH259535   5.253   5.165   5.614 -0.6341 -0.1643  0.4567
12707TIP3    H159536   5.265   5.115   5.694 -0.7047  0.7175  1.0312
12707TIP3    H259537   5.317   5.236   5.619  0.7443 -1.2061 -1.2070
12708TIP3   OH259538   4.570   6.427   7.030  0.5547  0.1182 -0.4486
12708TIP3    H159539   4.663   6.418   7.051  0.0850 -0.7090  1.4997
12708TIP3    H259540   4.531   6.345   7.058 -0.6430  0.0318 -2.2098
12709TIP3   OH259541   6.331   0.756  14.635 -0.2092  0.5632  0.0453
12709TIP3    H159542   6.324   0.851  14.649 -0.2131  0.5462  0.1621
12709TIP3    H259543   6.261   0.719  14.688 -0.0734  0.4811  0.1700
12710TIP3   OH259544   0.621   0.853  15.719 -0.4986 -0.4730  0.6534
12710TIP3    H159545   0.550   0.790  15.713  0.7811 -1.7906 -2.0941
12710TIP3    H259546   0.646   0.852  15.812 -2.6409 -1.5127  1.2792
12711TIP3   OH259547   3.757   5.222  15.354  0.0016 -0.2381 -0.1314
12711TIP3    H159548   3.754   5.309  15.392  1.0375  0.5875 -1.8389
12711TIP3    H259549   3.850   5.202  15.346 -0.2148 -1.1957 -0.4536
12712TIP3   OH259550   4.382   5.143  10.969 -0.2963  0.5879  0.4868
12712TIP3    H159551   4.470   5.138  11.005 -0.0408 -0.4307 -0.2313
12712TIP3    H259552   4.396   5.148  10.874 -1.0116  0.6469  0.3815
12713TIP3   OH259553   1.501   0.660   4.306  0.2810 -0.3868  0.0355
12713TIP3    H159554   1.519   0.632   4.396 -0.0766  1.2899  0.6673
12713TIP3    H259555   1.513   0.581   4.254 -0.7345 -1.7150  1.7012
12714TIP3   OH259556   6.751   0.322   5.936  0.2907  0.0567  0.0863
12714TIP3    H159557   6.843   0.302   5.920  0.6359 -0.0480  1.9812
12714TIP3    H259558   6.752   0.402   5.988 -0.7334  0.5710 -0.6569
12715TIP3   OH259559   0.621   2.064  16.885  0.0377 -0.6776  0.6407
12715TIP3    H159560   0.684   2.042  16.954  1.3329 -1.5971 -0.7677
12715TIP3    H259561   0.637   2.157  16.867  0.6878 -0.7868  0.6199
12716TIP3   OH259562   5.527   5.600  13.977  0.2556  0.0921 -0.2427
12716TIP3    H159563   5.465   5.670  13.995  0.2239 -0.0719  0.2936
12716TIP3    H259564   5.557   5.571  14.063  0.7777 -0.0956 -0.4838
12717TIP3   OH259565   5.838   1.105  12.926 -0.3206  0.6054  0.1678
12717TIP3    H159566   5.883   1.169  12.982  0.6007  0.0037  0.1320
12717TIP3    H259567   5.886   1.023  12.940 -1.7321 -0.1964  0.5229
12718TIP3   OH259568   2.025   1.238   2.341 -0.3417 -0.3031  0.2296
12718TIP3    H159569   2.010   1.185   2.419  0.6286  1.2613  1.5264
12718TIP3    H259570   2.005   1.179   2.268  2.0107 -2.9423  1.5296
12719TIP3   OH259571   6.640   1.335  16.611 -0.0427  0.2846 -0.0297
12719TIP3    H159572   6.707   1.403  16.606  0.7526 -0.4950 -0.3521
12719TIP3    H259573   6.566   1.370  16.560  0.2716  0.9825 -0.0225
12720TIP3   OH259574   5.916   4.730   6.368  0.2923  0.1837  0.9635
12720TIP3    H159575   5.928   4.635   6.366 -2.2118 -0.1955 -0.7253
12720TIP3    H259576   5.825   4.743   6.342  1.3194  3.1797 -1.6875
12721TIP3   OH259577   1.739   6.744  11.488 -0.0427  0.2259  0.4841
12721TIP3    H159578   1.706   6.831  11.511 -1.4275 -0.0291 -0.4168
12721TIP3    H259579   1.833   6.757  11.476 -0.3945  1.9238 -0.9414
12722TIP3   OH259580   5.539   4.587   1.025  0.1314 -0.7128  0.5300
12722TIP3    H159581   5.563   4.536   1.102  0.3259 -0.4831  0.6183
12722TIP3    H259582   5.483   4.657   1.058 -0.5629 -1.1686  0.3434
12723TIP3   OH259583   3.515   5.522   4.421 -0.1107 -0.7950 -0.3036
12723TIP3    H159584   3.597   5.473   4.421 -0.2516 -1.0702  0.7471
12723TIP3    H259585   3.498   5.541   4.329  2.4372  1.5038 -0.4123
12724TIP3   OH259586   1.747   1.483  16.918  0.4476  0.1746 -0.3270
12724TIP3    H159587   1.736   1.462  16.825 -0.1918  1.4158 -0.5429
12724TIP3    H259588   1.692   1.419  16.963 -0.1634  0.3078 -0.8714
12725TIP3   OH259589   5.117   3.954  15.687  0.5173  0.2990  0.4268
12725TIP3    H159590   5.210   3.933  15.678  1.2964  1.9923  3.1465
12725TIP3    H259591   5.076   3.874  15.720  1.2684 -0.0911  0.4154
12726TIP3   OH259592   2.668   0.607   0.203 -0.5531  0.4582 -0.5536
12726TIP3    H159593   2.635   0.671   0.267  0.4143  1.8672 -1.4000
12726TIP3    H259594   2.671   0.525   0.251  0.8473  1.6059  1.4841
12727TIP3   OH259595   1.509   3.218   3.197 -0.2174  0.3639  0.1158
12727TIP3    H159596   1.556   3.265   3.266 -2.8560 -0.3008  2.6061
12727TIP3    H259597   1.574   3.161   3.157  2.2065  3.2463 -0.3564
12728TIP3   OH259598   4.692   2.411   2.403 -0.3735 -0.6250 -0.3586
12728TIP3    H159599   4.647   2.395   2.320  0.7972 -0.5700 -1.0264
12728TIP3    H259600   4.622   2.429   2.466 -1.2688 -0.5613 -1.3556
12729TIP3   OH259601   1.247   6.170  14.106 -0.1132  0.3019 -0.1014
12729TIP3    H159602   1.196   6.090  14.116  0.7937 -0.2112  0.6071
12729TIP3    H259603   1.214   6.229  14.173  2.0509 -1.0453  2.3493
12730TIP3   OH259604   2.923   5.068   4.759  0.3553 -0.3156  0.1403
12730TIP3    H159605   2.987   5.094   4.692  0.3214  2.8843  1.1639
12730TIP3    H259606   2.975   5.062   4.839  0.0401 -2.0140  0.2426
12731TIP3   OH259607   3.967   4.970  11.210 -0.7758  0.3520 -0.1973
12731TIP3    H159608   3.933   5.059  11.219 -0.3752  0.4683  0.1609
12731TIP3    H259609   4.029   4.975  11.137 -1.8363  0.0402 -1.1625
12732TIP3   OH259610   5.988   5.377   1.796 -0.0116  0.6829 -0.1399
12732TIP3    H159611   5.919   5.399   1.733 -0.7465  0.2132  0.4880
12732TIP3    H259612   5.971   5.433   1.871  0.0970  0.3364  0.1480
12733TIP3   OH259613   0.733   6.442  14.420 -0.0734 -0.3762  0.0718
12733TIP3    H159614   0.734   6.478  14.509 -0.6414  0.1636 -0.1369
12733TIP3    H259615   0.820   6.404  14.409  0.0728 -0.2609  0.7855
12734TIP3   OH259616   2.298   1.813  13.909 -0.0198 -0.0890 -0.8650
12734TIP3    H159617   2.273   1.901  13.937  2.0575 -0.0228  1.0424
12734TIP3    H259618   2.258   1.755  13.974 -0.2461 -0.4470 -1.3220
12735TIP3   OH259619   6.488   5.253   3.831 -0.1994  0.0855 -0.0059
12735TIP3    H159620   6.546   5.330   3.826 -1.4462  1.0017 -1.0735
12735TIP3    H259621   6.426   5.266   3.760 -2.1659 -0.5042  1.5267
12736TIP3   OH259622   4.511   0.106   3.445  1.1747  0.1174 -0.0846
12736TIP3    H159623   4.462   0.028   3.471  0.4540  0.9965  1.3431
12736TIP3    H259624   4.580   0.114   3.512  1.3973  0.5617 -0.3585
12737TIP3   OH259625   5.878   6.228  13.306  0.4268  0.1413 -0.1758
12737TIP3    H159626   5.948   6.293  13.314 -1.6988  2.6493 -0.4836
12737TIP3    H259627   5.901   6.177  13.229  2.3591  0.2480  0.2823
12738TIP3   OH259628   2.836   4.668  11.401  0.4501  0.8835 -0.2206
12738TIP3    H159629   2.925   4.680  11.433  0.1817 -0.2491  1.0590
12738TIP3    H259630   2.845   4.652  11.307  1.9381 -2.3023  0.3370
12739TIP3   OH259631   4.697   0.067   2.683 -0.7460  0.7324 -0.0043
12739TIP3    H159632   4.607   0.065   2.651 -1.0244 -0.9697  0.7424
12739TIP3    H259633   4.740  -0.007   2.638  0.9541  2.7723 -2.0273
12740TIP3   OH259634   1.447   0.557  15.465  0.3093  0.0713 -0.1960
12740TIP3    H159635   1.353   0.560  15.483  0.4958  0.5713  0.7953
12740TIP3    H259636   1.464   0.633  15.409  0.1315 -0.0012 -0.3480
12741TIP3   OH259637   3.692   2.398  15.401 -0.1524 -0.2711 -0.0148
12741TIP3    H159638   3.748   2.472  15.374 -0.9396  0.9746  1.6244
12741TIP3    H259639   3.675   2.351  15.320  2.1140  0.1110 -0.7897
12742TIP3   OH259640   5.705   5.629   2.500 -0.1730 -0.2699  1.1824
12742TIP3    H159641   5.741   5.715   2.522  0.8821 -1.2318  3.4999
12742TIP3    H259642   5.610   5.644   2.493  0.1635  1.4644 -0.7741
12743TIP3   OH259643   2.044   5.635   3.317 -0.1010 -0.4351  0.1304
12743TIP3    H159644   2.108   5.565   3.304 -1.6087 -1.6483 -1.3053
12743TIP3    H259645   2.012   5.624   3.406  1.4087 -0.0033  0.7549
12744TIP3   OH259646   2.660   4.535  15.578  0.5428 -0.7236  0.0771
12744TIP3    H159647   2.579   4.485  15.587 -0.7817  0.7916 -2.3738
12744TIP3    H259648   2.685   4.556  15.668 -0.3750 -3.3068  1.0247
12745TIP3   OH259649   1.507   4.825   0.079  0.5261 -0.9122  0.2601
12745TIP3    H159650   1.596   4.853   0.099  0.0056  0.9872  0.0730
12745TIP3    H259651   1.493   4.853  -0.012 -0.0381 -1.8159  0.0545
12746TIP3   OH259652   2.454   4.432  16.608 -0.3142 -0.0023 -0.4713
12746TIP3    H159653   2.404   4.409  16.530 -1.1686 -1.3082  0.4190
12746TIP3    H259654   2.388   4.438  16.677  0.7547 -1.9891  0.7817
12747TIP3   OH259655   6.427   4.798  16.755  0.2362 -0.1354 -0.6070
12747TIP3    H159656   6.494   4.755  16.809  1.1928  2.1156  0.1228
12747TIP3    H259657   6.477   4.857  16.699 -1.1251  2.1262  0.4454
12748TIP3   OH259658   1.445   6.010   4.154  0.0012 -0.6548 -0.1074
12748TIP3    H159659   1.436   6.040   4.064 -0.6783 -2.5954 -0.7381
12748TIP3    H259660   1.407   6.080   4.207 -0.7554 -0.0485 -1.4137
12749TIP3   OH259661   3.399   6.513   2.807 -0.6940  0.0181 -0.2420
12749TIP3    H159662   3.457   6.582   2.774 -0.2246 -0.2911 -0.0843
12749TIP3    H259663   3.439   6.487   2.890 -0.5607 -0.8071 -0.5530
12750TIP3   OH259664   0.616   5.086   0.696 -0.3066  0.4180  0.4290
12750TIP3    H159665   0.698   5.120   0.661  1.0231  0.7051  3.5057
12750TIP3    H259666   0.583   5.157   0.751 -1.8158 -0.3111  0.5222
12751TIP3   OH259667   2.401   1.893   3.706 -0.4876 -0.1688  0.1761
12751TIP3    H159668   2.433   1.865   3.620 -0.4382  1.6165 -0.4163
12751TIP3    H259669   2.325   1.837   3.722 -0.1753 -0.8984 -0.7703
12752TIP3   OH259670   3.063   6.652   0.999 -0.3013  0.1104  0.2767
12752TIP3    H159671   2.976   6.612   0.985 -0.3392 -0.6907  2.4809
12752TIP3    H259672   3.046   6.746   1.000 -1.0737 -0.0183  0.2248
12753TIP3   OH259673   2.287   4.302  16.428 -0.1073 -0.3974  0.2604
12753TIP3    H159674   2.279   4.304  16.332  1.4354 -0.7952  0.0949
12753TIP3    H259675   2.312   4.212  16.447  3.7739  0.5609  0.5851
12754TIP3   OH259676   4.836   4.971   4.524  0.0746  0.2943  0.7093
12754TIP3    H159677   4.876   4.906   4.582  1.1810  0.1099 -0.2396
12754TIP3    H259678   4.743   4.948   4.524  0.0262  0.3302  2.4289
12755TIP3   OH259679   1.262   4.752  11.789  0.2273  0.1657 -0.0364
12755TIP3    H159680   1.172   4.749  11.754  0.7217 -0.1545 -1.3235
12755TIP3    H259681   1.290   4.842  11.776 -0.5894  0.8371  2.2604
12756TIP3   OH259682   3.322   3.019   2.295 -0.2170 -0.1808  0.4445
12756TIP3    H159683   3.282   2.933   2.304  0.9074 -0.7852 -0.0775
12756TIP3    H259684   3.361   3.036   2.381  2.2843 -1.6689 -0.2663
12757TIP3   OH259685   0.549   4.586  14.719  0.4539 -0.0149 -0.4216
12757TIP3    H159686   0.534   4.679  14.737 -0.8153 -0.3529  0.3928
12757TIP3    H259687   0.479   4.561  14.660 -1.7991 -1.3674  2.5708
12758TIP3   OH259688   1.533   1.161   5.876 -0.1421  0.3450  0.2549
12758TIP3    H159689   1.538   1.207   5.959  0.4068  1.4052 -0.3402
12758TIP3    H259690   1.475   1.215   5.822 -1.3568 -0.8858  0.2648
12759TIP3   OH259691   2.260   2.737   3.864  0.0572 -0.9961  0.3721
12759TIP3    H159692   2.259   2.642   3.858  0.9420 -1.0713  1.1881
12759TIP3    H259693   2.185   2.759   3.920 -0.8187 -1.1137 -0.7132
12760TIP3   OH259694   2.138   4.944   2.806 -0.3071  0.3149 -0.3474
12760TIP3    H159695   2.186   4.874   2.851 -1.2190 -1.1686 -1.5690
12760TIP3    H259696   2.093   4.991   2.876 -0.6820 -1.1200  0.4089
12761TIP3   OH259697   3.656   2.956   1.015 -1.0306 -1.0313  0.1729
12761TIP3    H159698   3.607   2.904   0.951 -1.4572 -1.7142  1.0329
12761TIP3    H259699   3.651   3.046   0.982 -0.7869 -1.4488 -1.0234
12762TIP3   OH259700   3.281   0.339  14.530 -0.2792  0.0753 -0.0153
12762TIP3    H159701   3.244   0.422  14.559  0.1393  0.2252  0.0918
12762TIP3    H259702   3.271   0.340  14.435  1.2900  1.0238 -0.2048
12763TIP3   OH259703   1.114   2.301   2.373 -0.0872 -0.5320 -0.0546
12763TIP3    H159704   1.181   2.323   2.308  0.1075  1.2928  0.7257
12763TIP3    H259705   1.031   2.320   2.329 -0.0150 -0.7134 -0.2707
12764TIP3   OH259706   4.324   6.613  13.243  0.1927 -0.7763 -0.2008
12764TIP3    H159707   4.279   6.531  13.225 -1.6166 -0.2746  1.6696
12764TIP3    H259708   4.403   6.609  13.190 -0.6022 -3.0277 -1.3383
12765TIP3   OH259709   4.432   4.170   5.801  0.3346 -0.1800 -0.2127
12765TIP3    H159710   4.410   4.142   5.712  2.2904 -0.1785 -0.7498
12765TIP3    H259711   4.445   4.264   5.794 -0.7168  0.0231  0.3686
12766TIP3   OH259712   1.757   4.356  15.831  0.1981 -0.5584  0.4781
12766TIP3    H159713   1.797   4.439  15.856  0.2213 -0.0025 -1.2866
12766TIP3    H259714   1.764   4.301  15.910 -0.3742  1.2779  1.8853
12767TIP3   OH259715   0.535   3.221   2.991  0.3321  0.1164 -0.6918
12767TIP3    H159716   0.480   3.224   3.069 -0.8697 -1.4854 -1.4347
12767TIP3    H259717   0.622   3.247   3.022 -0.5556  1.5728  0.7387
12768TIP3   OH259718   5.645   1.700   2.662 -0.0096 -0.4561  0.1163
12768TIP3    H159719   5.735   1.669   2.653  0.0808 -0.1256 -0.1304
12768TIP3    H259720   5.638   1.727   2.754 -1.3463 -5.1524  1.6700
12769TIP3   OH259721   2.921   5.050  15.263 -0.3085  0.7180  0.3667
12769TIP3    H159722   2.875   4.997  15.199  0.2810  0.4352  0.1685
12769TIP3    H259723   2.891   5.018  15.348  1.9555 -1.7748  0.3496
12770TIP3   OH259724   0.710   6.241   2.693 -0.8631 -0.2996 -0.5829
12770TIP3    H159725   0.692   6.335   2.690 -1.8638 -0.4844 -3.0868
12770TIP3    H259726   0.667   6.211   2.773 -2.1117  1.1246 -0.6732
12771TIP3   OH259727   3.190   6.587   2.584 -0.0163  0.0196 -0.0196
12771TIP3    H159728   3.127   6.650   2.547  0.0151 -0.4409 -0.8833
12771TIP3    H259729   3.223   6.630   2.663 -1.0427  0.4819  0.1701
12772TIP3   OH259730   5.335   5.964   1.539 -0.1005  0.3374 -0.3527
12772TIP3    H159731   5.388   5.905   1.593  0.1670  0.3543 -0.5952
12772TIP3    H259732   5.302   6.030   1.601  0.2769  0.4077 -0.2243
12773TIP3   OH259733   4.380   5.487   6.465  0.0333  0.1161  0.8841
12773TIP3    H159734   4.285   5.485   6.454  0.0159  0.0447  1.0491
12773TIP3    H259735   4.405   5.395   6.473  0.5006 -0.1717 -2.3139
12774TIP3   OH259736   3.125   1.038   3.981 -0.2179  0.1200 -0.6384
12774TIP3    H159737   3.070   0.972   4.022  1.0690  0.3089  1.5836
12774TIP3    H259738   3.064   1.103   3.946 -1.4612 -1.5455 -1.7288
12775TIP3   OH259739   3.286   1.941  16.120  0.3232  0.0536 -0.6420
12775TIP3    H159740   3.264   2.020  16.071 -2.2906  0.6535  1.2449
12775TIP3    H259741   3.353   1.969  16.183 -0.6498  0.8297  0.0703
12776TIP3   OH259742   3.158   4.944  15.180 -0.4930  0.4088 -0.1488
12776TIP3    H159743   3.084   4.997  15.211 -0.6765  0.6389 -0.9672
12776TIP3    H259744   3.121   4.889  15.111 -0.7197 -2.0463  1.7714
12777TIP3   OH259745   1.810   2.639  16.019 -0.0210  0.0403 -0.0776
12777TIP3    H159746   1.722   2.600  16.024 -0.3277  0.6181 -0.7381
12777TIP3    H259747   1.869   2.564  16.017 -0.4334 -0.3414  1.3633
12778TIP3   OH259748   5.563   0.066   5.236  0.3013  0.3122 -0.7371
12778TIP3    H159749   5.606   0.111   5.309  1.0220  2.1717 -2.2165
12778TIP3    H259750   5.635   0.040   5.178 -0.3487  0.7268 -1.7616
12779TIP3   OH259751   3.490   6.077   3.889 -0.1915  0.3444  0.3170
12779TIP3    H159752   3.422   6.104   3.951 -2.6796  0.3560 -2.2330
12779TIP3    H259753   3.483   5.981   3.887  1.1611  0.1901  1.3224
12780TIP3   OH259754   2.252   2.128   0.887  0.0761  0.3802  0.2368
12780TIP3    H159755   2.211   2.104   0.804 -0.3176 -1.0197  0.8100
12780TIP3    H259756   2.279   2.219   0.875  0.2692  0.1300 -1.5180
12781TIP3   OH259757   6.464   5.068  16.284 -0.1396 -0.3835  0.3256
12781TIP3    H159758   6.460   5.162  16.302 -0.6647 -0.3412  0.0243
12781TIP3    H259759   6.555   5.052  16.261 -0.0507  0.0573  0.3585
12782TIP3   OH259760   3.647   2.957   2.037 -0.1517  0.1619  0.0875
12782TIP3    H159761   3.589   3.034   2.037 -1.9634 -1.1106 -1.7325
12782TIP3    H259762   3.733   2.993   2.059 -1.5819  2.0903  3.3657
12783TIP3   OH259763   5.083   2.668  16.522  0.2893 -0.2133 -0.2401
12783TIP3    H159764   5.055   2.577  16.525  0.5680 -0.2859  0.1606
12783TIP3    H259765   5.104   2.684  16.430 -1.9442  0.1111 -0.7744
12784TIP3   OH259766   1.570   0.648  11.475 -0.2000  0.0812 -0.5066
12784TIP3    H159767   1.576   0.640  11.380  1.0843  0.4154 -0.4758
12784TIP3    H259768   1.480   0.621  11.496  0.4816 -3.5121 -1.4436
12785TIP3   OH259769   6.484   0.747  12.262  0.4722  0.5155 -0.0120
12785TIP3    H159770   6.420   0.797  12.212 -0.0603 -0.2407 -0.1018
12785TIP3    H259771   6.560   0.741  12.205  0.5807  1.2896  0.0357
12786TIP3   OH259772   5.586   2.369  13.844  0.4599  0.1224 -0.0384
12786TIP3    H159773   5.493   2.386  13.835  0.7995  1.5058 -1.5086
12786TIP3    H259774   5.615   2.343  13.757  1.4762 -0.1297  0.3511
12787TIP3   OH259775   5.760   5.633   2.831  0.3778 -0.1539 -0.6265
12787TIP3    H159776   5.824   5.617   2.900  0.9520  3.0544 -0.2812
12787TIP3    H259777   5.681   5.661   2.877  0.5393  1.3221 -1.2143
12788TIP3   OH259778   4.708   5.793  15.772 -0.5933 -0.0992 -0.6290
12788TIP3    H159779   4.649   5.828  15.705  0.2176 -0.0190 -1.3200
12788TIP3    H259780   4.760   5.868  15.799 -1.0711 -0.0838  0.2724
12789TIP3   OH259781   4.489   0.319  14.265 -0.0289 -0.1255  0.3070
12789TIP3    H159782   4.525   0.232  14.250  0.7961  0.2127  0.2888
12789TIP3    H259783   4.516   0.342  14.354  3.4516  1.8056 -1.0621
12790TIP3   OH259784   5.289   2.395  12.690  0.4721 -0.5532 -0.0520
12790TIP3    H159785   5.232   2.357  12.624 -1.3575  0.3424  0.9383
12790TIP3    H259786   5.298   2.487  12.665  0.1354 -0.3139  0.6606
12791TIP3   OH259787   3.777   0.341  11.981 -1.1972  0.1638  0.6927
12791TIP3    H159788   3.756   0.300  12.065 -2.9137  0.1903  0.3307
12791TIP3    H259789   3.751   0.275  11.916 -1.6443  0.8540  0.1590
12792TIP3   OH259790   1.230   6.228  14.947  0.0490  0.0519 -0.7828
12792TIP3    H159791   1.143   6.188  14.945  0.0589  0.0361 -0.9159
12792TIP3    H259792   1.289   6.155  14.964 -0.1096  0.3142  1.0014
12793TIP3   OH259793   0.556   2.937   4.881  1.0757 -0.3858  0.4980
12793TIP3    H159794   0.529   3.012   4.828 -0.0469  0.8350  2.6577
12793TIP3    H259795   0.478   2.913   4.931  0.8762 -4.1375 -1.2598
12794TIP3   OH259796   2.133   1.332   0.318  0.1636 -0.3893 -0.3722
12794TIP3    H159797   2.042   1.314   0.341  0.6664 -0.7607  1.5088
12794TIP3    H259798   2.130   1.415   0.270 -1.3828 -1.5699 -2.4528
12795TIP3   OH259799   1.932   5.577   5.346  0.8070 -0.1374  0.4339
12795TIP3    H159800   1.939   5.630   5.426  0.7495 -0.6609  0.7887
12795TIP3    H259801   2.012   5.525   5.344 -0.0470 -1.5396  1.1848
12796TIP3   OH259802   5.969   1.416  13.252 -0.5596  1.0936  0.0122
12796TIP3    H159803   6.001   1.351  13.189  0.1837  0.5856  0.8917
12796TIP3    H259804   5.932   1.486  13.198  0.3881  0.8392 -0.9951
12797TIP3   OH259805   2.961   3.695   1.844 -0.0790 -0.0333  0.1609
12797TIP3    H159806   2.898   3.688   1.773 -0.6126  1.4549  0.4304
12797TIP3    H259807   2.917   3.655   1.919  0.2850 -1.1586 -0.2139
12798TIP3   OH259808   2.181   4.268  12.226 -0.4688  0.1376 -0.6841
12798TIP3    H159809   2.225   4.205  12.169 -1.4560  0.4655 -1.8635
12798TIP3    H259810   2.246   4.336  12.241  0.9367 -1.5412  1.3797
12799TIP3   OH259811   0.457   4.367   3.311 -0.6799 -0.3319 -0.4465
12799TIP3    H159812   0.523   4.364   3.381 -1.0823  3.7146  0.3460
12799TIP3    H259813   0.499   4.324   3.237  2.5911  1.2664  0.2772
12800TIP3   OH259814   3.504   3.447   4.232  0.3807  0.0132  0.4232
12800TIP3    H159815   3.541   3.393   4.302  0.3762 -1.8958 -0.9619
12800TIP3    H259816   3.409   3.433   4.239  0.4245 -0.7563 -0.3739
12801TIP3   OH259817   3.590   5.219   5.954  0.1437  0.0668 -0.0332
12801TIP3    H159818   3.616   5.127   5.953 -0.2302 -0.0623  1.2622
12801TIP3    H259819   3.641   5.258   6.024 -1.4020  0.3175  0.9972
12802TIP3   OH259820   3.152   3.377  16.407  0.5362 -0.4940 -0.0456
12802TIP3    H159821   3.177   3.355  16.496 -0.6838 -1.9286 -0.0227
12802TIP3    H259822   3.184   3.304  16.354  1.8585  0.6597 -0.9336
12803TIP3   OH259823   4.485   4.956  17.084  0.2614  0.2959  0.1130
12803TIP3    H159824   4.518   5.038  17.120  1.4742 -0.1772  0.0978
12803TIP3    H259825   4.484   4.896  17.158 -0.5911  0.2896  0.1148
12804TIP3   OH259826   0.900   1.068  16.584  0.2200 -0.4345 -0.1272
12804TIP3    H159827   0.825   1.015  16.609 -1.0048  0.9828 -0.6235
12804TIP3    H259828   0.875   1.107  16.500  1.7323 -0.3323 -0.5643
12805TIP3   OH259829   5.891   4.740  12.707  0.4357 -0.7954 -0.0962
12805TIP3    H159830   5.897   4.731  12.612  0.5163 -1.2381 -0.0511
12805TIP3    H259831   5.823   4.805  12.721  0.0028 -1.1698 -0.4426
12806TIP3   OH259832   0.455   3.228  15.887 -0.3073  0.2505  0.0588
12806TIP3    H159833   0.534   3.228  15.833 -0.0764  1.1044  0.3897
12806TIP3    H259834   0.384   3.210  15.826 -0.0293  1.0188 -0.5017
12807TIP3   OH259835   4.220   6.174   4.629  0.2160  0.0254  0.2009
12807TIP3    H159836   4.293   6.230   4.605 -0.8702  1.1134 -0.7206
12807TIP3    H259837   4.148   6.235   4.645 -0.8676 -1.0709 -0.3492
12808TIP3   OH259838   5.988   2.444  14.778  0.1652 -0.5340 -0.1131
12808TIP3    H159839   5.968   2.355  14.747  0.1615 -1.0859  1.4027
12808TIP3    H259840   5.912   2.496  14.751 -0.2989 -1.2010 -0.1262
12809TIP3   OH259841   2.494   5.714   4.544  0.2671  0.3152  0.1569
12809TIP3    H159842   2.511   5.809   4.540 -1.0576  0.5390 -0.6513
12809TIP3    H259843   2.418   5.701   4.487  1.9024 -1.6077 -1.7404
12810TIP3   OH259844   0.260   4.669   0.043 -0.0060 -0.3773 -0.0132
12810TIP3    H159845   0.340   4.673   0.096  0.0660  0.2211 -0.1679
12810TIP3    H259846   0.290   4.638  -0.043  0.3097  1.2578 -0.5345
12811TIP3   OH259847   2.174   0.948   0.162 -0.3331  0.4701  0.5073
12811TIP3    H159848   2.170   0.965   0.068 -1.2432  1.4060  0.7003
12811TIP3    H259849   2.214   1.027   0.199  2.4182 -0.8919  0.6870
12812TIP3   OH259850   3.769   6.544  14.387  0.4918  0.0744 -0.0759
12812TIP3    H159851   3.827   6.573  14.316 -0.3600 -0.7948 -1.1690
12812TIP3    H259852   3.761   6.620  14.444  0.2605  1.2213 -1.5678
12813TIP3   OH259853   0.773   5.390  12.418  0.6617 -0.6598 -0.1178
12813TIP3    H159854   0.735   5.435  12.342  0.0337  0.1990  0.6879
12813TIP3    H259855   0.701   5.339  12.454  0.5819  0.0358  0.7202
12814TIP3   OH259856   2.821   6.083   1.522  0.0521  0.0751 -0.2119
12814TIP3    H159857   2.773   6.027   1.583 -1.4216  0.3060 -1.0936
12814TIP3    H259858   2.846   6.159   1.574  2.1477 -1.3721  1.0239
12815TIP3   OH259859   3.960   1.295  13.049 -0.4118 -0.2335 -0.0507
12815TIP3    H159860   4.033   1.278  13.108 -1.1685 -2.1585  0.4201
12815TIP3    H259861   3.997   1.282  12.961  0.1852  0.4496  0.0887
12816TIP3   OH259862   6.699   5.433   0.071 -0.1978  0.9734  0.1110
12816TIP3    H159863   6.723   5.396   0.156  1.9812 -0.7819 -1.1808
12816TIP3    H259864   6.620   5.384   0.045  2.2808 -2.7327 -1.2926
12817TIP3   OH259865   0.818   6.244  13.325  0.0631 -0.6070  0.1430
12817TIP3    H159866   0.893   6.255  13.266 -0.4281 -0.0504 -0.3956
12817TIP3    H259867   0.828   6.155  13.360  0.7051 -0.7176 -0.2976
12818TIP3   OH259868   6.614   0.335  13.970  0.5572  0.1975  0.2778
12818TIP3    H159869   6.617   0.430  13.982 -0.8534  0.0475  2.4226
12818TIP3    H259870   6.528   0.319  13.930  0.9533 -0.1754 -0.4498
12819TIP3   OH259871   4.389   4.429  15.894 -0.2255  0.5474 -0.4842
12819TIP3    H159872   4.407   4.389  15.809  1.7562 -0.0098  0.1567
12819TIP3    H259873   4.344   4.360  15.944  0.7122  0.0468 -0.3112
12820TIP3   OH259874   0.372   4.612  17.102 -0.3528 -0.5576 -0.5892
12820TIP3    H159875   0.406   4.701  17.114 -2.4259  0.4001 -1.3701
12820TIP3    H259876   0.372   4.599  17.007 -3.3946  0.0939 -0.7822
12821TIP3   OH259877   2.890   2.149  11.442  0.4067 -0.0811  0.2689
12821TIP3    H159878   2.827   2.204  11.394  1.6733  0.1692 -1.2100
12821TIP3    H259879   2.853   2.139  11.529 -3.2013 -2.4101 -1.3060
12822TIP3   OH259880   6.067   5.933  15.995 -0.4497  0.2302  0.6504
12822TIP3    H159881   6.131   5.923  16.066  0.2917  2.1627  0.3336
12822TIP3    H259882   6.119   5.922  15.915 -0.7164  0.7370  0.3997
12823TIP3   OH259883   6.373   2.231   2.584 -0.0010 -0.6695  0.3941
12823TIP3    H159884   6.343   2.321   2.593  0.7121 -0.6318  3.7528
12823TIP3    H259885   6.460   2.238   2.545 -0.6596 -0.1192 -1.0655
12824TIP3   OH259886   1.556   5.120  14.634  0.8909 -0.6311  0.1639
12824TIP3    H159887   1.631   5.061  14.622  0.5682 -0.7381 -1.7083
12824TIP3    H259888   1.496   5.071  14.690  1.0315 -1.7306 -0.5988
12825TIP3   OH259889   5.200   6.252   5.019  0.7476  0.0621  0.1490
12825TIP3    H159890   5.123   6.266   4.964  0.7214  1.1821  0.4521
12825TIP3    H259891   5.262   6.207   4.962 -0.0215 -0.6090 -0.1781
12826TIP3   OH259892   5.019   0.128  15.975 -0.1503 -0.7548  0.1226
12826TIP3    H159893   4.967   0.148  16.052 -0.0713 -0.0604 -0.0009
12826TIP3    H259894   4.955   0.104  15.908 -0.2920 -0.3046  0.0915
12827TIP3   OH259895   5.445   3.691  11.786  0.1706 -0.4864 -1.0693
12827TIP3    H159896   5.528   3.728  11.755 -0.2298  3.1292  1.4857
12827TIP3    H259897   5.381   3.714  11.719  0.6378  0.0247 -1.3496
12828TIP3   OH259898   1.819   5.851  11.765  0.1958 -0.3042  0.4075
12828TIP3    H159899   1.904   5.850  11.809  0.7675 -2.2461 -0.5751
12828TIP3    H259900   1.800   5.758  11.748 -0.1707  0.2469 -2.9448
12829TIP3   OH259901   6.060   0.335  13.957 -0.7147 -0.5064  0.1174
12829TIP3    H159902   6.012   0.416  13.975  0.6153  0.8612 -2.0323
12829TIP3    H259903   6.012   0.295  13.885 -0.1776 -0.5215 -0.2371
12830TIP3   OH259904   0.739   2.692  14.163 -0.0978 -0.0061 -0.1376
12830TIP3    H159905   0.670   2.756  14.183 -0.9997 -0.6593 -1.0085
12830TIP3    H259906   0.695   2.607  14.169  1.1307 -0.5805  1.1931
12831TIP3   OH259907   5.074   4.180   5.135  0.5178 -0.3232 -1.1866
12831TIP3    H159908   5.124   4.100   5.117  0.8343 -0.7076  1.0870
12831TIP3    H259909   5.139   4.251   5.128  1.5440 -0.8135  1.6963
12832TIP3   OH259910   6.510   2.864   5.475  0.0945 -0.0027  0.3944
12832TIP3    H159911   6.578   2.800   5.496  1.3540  1.3855  0.8118
12832TIP3    H259912   6.491   2.850   5.382  0.1321 -1.1383  0.5464
12833TIP3   OH259913   5.051   6.252  15.899 -0.1604 -0.3558 -0.0021
12833TIP3    H159914   4.997   6.330  15.908 -0.8448 -0.7500 -0.5587
12833TIP3    H259915   5.094   6.242  15.983  0.0679  0.7142  0.0145
12834TIP3   OH259916   0.533   4.870  10.694  0.2363  0.3114  0.1339
12834TIP3    H159917   0.535   4.861  10.599  0.3915 -0.9094  0.2352
12834TIP3    H259918   0.536   4.780  10.727 -0.9106  0.6599  1.2811
12835TIP3   OH259919   6.637   3.099  10.822 -0.2842 -0.0344  0.4902
12835TIP3    H159920   6.620   3.174  10.766  1.0982 -1.5394 -2.1935
12835TIP3    H259921   6.598   3.025  10.776  0.5603 -1.3091  1.7236
12836TIP3   OH259922   3.240   0.325   1.534 -0.6190  1.2092 -0.3605
12836TIP3    H159923   3.160   0.360   1.493 -1.0596  0.0403 -0.5302
12836TIP3    H259924   3.310   0.382   1.501 -1.1267  1.0751 -1.7568
12837TIP3   OH259925   2.142   3.676  12.781  0.2607  0.1425 -0.0169
12837TIP3    H159926   2.053   3.696  12.752  0.4888  2.4387  0.6216
12837TIP3    H259927   2.134   3.593  12.829 -1.3964 -0.0358 -0.5438
12838TIP3   OH259928   4.423   2.850   4.218  0.0287  0.0041 -0.3197
12838TIP3    H159929   4.330   2.844   4.242  0.0854  1.0523  0.2149
12838TIP3    H259930   4.469   2.823   4.297  0.1868 -0.3682 -0.5369
12839TIP3   OH259931   3.178   2.167  13.704  0.9817  0.2555 -0.7008
12839TIP3    H159932   3.164   2.261  13.716  0.8391  0.1597 -0.1287
12839TIP3    H259933   3.189   2.157  13.609 -2.2697  0.4258 -1.2123
12840TIP3   OH259934   0.981   2.110   3.075 -0.1258 -0.3033 -0.0036
12840TIP3    H159935   0.937   2.141   3.154 -1.2749  0.8740 -1.0612
12840TIP3    H259936   0.982   2.185   3.016  4.3844  0.1393  0.3029
12841TIP3   OH259937   4.055   0.237   3.792 -0.6550 -0.1168 -0.5925
12841TIP3    H159938   3.983   0.271   3.739 -1.7944 -0.7768  0.4777
12841TIP3    H259939   4.069   0.148   3.761  0.8475  0.5425 -1.9109
12842TIP3   OH259940   0.163   3.708   4.876 -0.5611 -0.0773 -0.1381
12842TIP3    H159941   0.180   3.770   4.805 -1.1855  1.7584  1.2410
12842TIP3    H259942   0.116   3.636   4.834 -3.1122  2.0780 -1.2438
12843TIP3   OH259943   5.483   4.878   0.824 -0.3324  0.0412 -0.9129
12843TIP3    H159944   5.420   4.940   0.789  0.6229  0.5061 -1.8395
12843TIP3    H259945   5.567   4.903   0.786  0.5197 -0.2800  0.6363
12844TIP3   OH259946   4.742   3.773  15.108 -1.0917 -0.0018 -0.4791
12844TIP3    H159947   4.707   3.684  15.109 -1.0173 -0.0714 -1.7839
12844TIP3    H259948   4.700   3.816  15.183 -2.1433 -0.7604 -0.5987
12845TIP3   OH259949   0.171   4.149   0.249  0.4840 -0.6063 -0.6160
12845TIP3    H159950   0.143   4.241   0.245  0.4707 -0.6407 -1.6761
12845TIP3    H259951   0.206   4.139   0.337  0.2812  0.3581 -0.4053
12846TIP3   OH259952   1.814   5.310   4.182 -0.4133  0.2312  0.6071
12846TIP3    H159953   1.750   5.309   4.253 -0.5111  0.5756  0.5270
12846TIP3    H259954   1.780   5.375   4.120  0.7274  1.4758  1.2298
12847TIP3   OH259955   2.942   1.085  12.687  0.4178  0.1101 -0.0690
12847TIP3    H159956   3.007   1.018  12.709  0.3671 -0.2412 -0.9713
12847TIP3    H259957   2.943   1.144  12.763  1.3706 -0.2068  0.1836
12848TIP3   OH259958   6.002   1.791  17.120 -0.2647 -0.0658 -0.9992
12848TIP3    H159959   5.945   1.753  17.053 -0.9984 -0.5200 -0.1491
12848TIP3    H259960   5.957   1.871  17.147  0.3092  0.4083 -1.4354
12849TIP3   OH259961   2.174   4.642  16.246 -0.2842  0.0519 -0.1697
12849TIP3    H159962   2.150   4.609  16.333  0.2104 -0.3435 -0.1785
12849TIP3    H259963   2.190   4.736  16.260 -1.4415  0.2495 -0.0915
12850TIP3   OH259964   4.278   1.652   1.223  0.5435  0.2156  0.3346
12850TIP3    H159965   4.244   1.605   1.299 -0.0756  0.8766  0.4755
12850TIP3    H259966   4.239   1.739   1.229  0.6115  0.3278 -0.6573
12851TIP3   OH259967   6.642   3.750   5.509 -0.9073 -0.3466  0.7711
12851TIP3    H159968   6.622   3.811   5.581  0.5321  0.3392  0.6186
12851TIP3    H259969   6.654   3.807   5.433  0.7008 -0.7913  0.6769
12852TIP3   OH259970   2.999   1.919   0.205 -0.0181 -0.6208 -0.2310
12852TIP3    H159971   2.965   1.926   0.294  0.9849  0.7842  0.0790
12852TIP3    H259972   2.922   1.900   0.151 -1.1009  1.1537  0.6004
12853TIP3   OH259973   3.905   1.480  12.020  0.4997 -0.7241  0.2691
12853TIP3    H159974   3.862   1.562  11.997  2.3322  0.9929  2.5141
12853TIP3    H259975   3.913   1.433  11.937 -0.4763  1.4035 -1.1202
12854TIP3   OH259976   0.208   2.825  11.805  0.0542 -0.1131 -0.1908
12854TIP3    H159977   0.254   2.820  11.888  1.6415  2.9550 -0.7462
12854TIP3    H259978   0.258   2.767  11.746  3.0534  2.6105 -0.5995
12855TIP3   OH259979   2.027   0.506   1.263  0.0806  0.1645  0.5829
12855TIP3    H159980   2.086   0.464   1.200  0.2363  2.7361 -1.1697
12855TIP3    H259981   1.964   0.438   1.287  0.7008 -1.2426 -1.5165
12856TIP3   OH259982   4.481   2.796   1.749 -0.4613 -0.0484  0.3268
12856TIP3    H159983   4.502   2.850   1.825  0.1147 -0.6279  0.5872
12856TIP3    H259984   4.429   2.724   1.785  0.8912 -1.0297  0.4092
12857TIP3   OH259985   0.045   0.166  12.604 -0.0814 -0.6266 -0.3406
12857TIP3    H159986   0.015   0.148  12.515  0.3483  1.7410 -1.0397
12857TIP3    H259987   0.125   0.113  12.614 -0.1300 -0.9149 -1.3565
12858TIP3   OH259988   0.207   4.852   1.377  0.6005 -0.0580  0.5999
12858TIP3    H159989   0.201   4.948   1.372 -0.0039 -0.1654 -1.4223
12858TIP3    H259990   0.297   4.836   1.407  1.1642  1.1337 -0.3564
12859TIP3   OH259991   5.394   3.612  15.891  0.1066 -0.4136  0.8816
12859TIP3    H159992   5.298   3.606  15.893  0.0913 -0.4024  0.3054
12859TIP3    H259993   5.421   3.536  15.840  0.3800 -0.1426  0.6215
12860TIP3   OH259994   6.535   2.040   5.938  0.5609  0.6113 -0.0255
12860TIP3    H159995   6.552   2.028   6.031 -2.0091  0.5859  0.5069
12860TIP3    H259996   6.577   1.965   5.896 -0.0053 -0.5030  1.3433
12861TIP3   OH259997   2.486   1.464   0.245  0.6314 -0.1084  0.1082
12861TIP3    H159998   2.542   1.537   0.219  0.6609 -0.1105  0.1648
12861TIP3    H259999   2.441   1.495   0.324  0.1536  0.0887 -0.2343
12862TIP3   OH260000   1.821   2.423   4.229 -0.1595  0.2788  0.0105
12862TIP3    H160001   1.890   2.468   4.277 -0.7708  1.6244 -0.3164
12862TIP3    H260002   1.825   2.459   4.140 -0.3782 -0.6594 -0.4041
12863TIP3   OH260003   4.017   0.360   4.049  0.5177 -0.0396 -0.2890
12863TIP3    H160004   4.057   0.331   3.967 -1.8056  0.4471 -1.6939
12863TIP3    H260005   3.940   0.304   4.058 -0.0682  0.9179  0.7802
12864TIP3   OH260006   4.754   0.831  11.781  0.2912  0.4957  0.6905
12864TIP3    H160007   4.821   0.771  11.814 -0.9792 -1.7706 -0.6160
12864TIP3    H260008   4.804   0.906  11.748  2.2135 -1.0067 -0.0197
12865TIP3   OH260009   4.047   1.962  12.827 -0.0892 -0.4616  0.2370
12865TIP3    H160010   4.098   2.031  12.869  0.4028  0.2210 -1.3734
12865TIP3    H260011   4.047   1.986  12.734 -1.6497 -1.5385 -0.0884
12866TIP3   OH260012   0.632   6.378   2.093  0.1232  0.3513 -0.0857
12866TIP3    H160013   0.583   6.437   2.036 -0.2132  0.2673  0.1126
12866TIP3    H260014   0.578   6.300   2.099 -0.0478  0.5208  0.6843
12867TIP3   OH260015   2.445   5.149   4.931 -0.2741  0.0787 -0.3339
12867TIP3    H160016   2.483   5.123   4.847 -0.0831 -2.0707  0.3745
12867TIP3    H260017   2.352   5.157   4.913 -0.2650 -0.5684 -0.7195
12868TIP3   OH260018   1.366   2.208   3.088  0.0033 -0.0172 -0.2024
12868TIP3    H160019   1.315   2.187   3.009  0.6223  0.0129 -0.6215
12868TIP3    H260020   1.445   2.250   3.054  1.0419 -1.4564  0.3205
12869TIP3   OH260021   1.996   4.226  15.695  0.6799 -0.3315 -0.1964
12869TIP3    H160022   1.988   4.321  15.685  0.8516 -0.1385  1.1817
12869TIP3    H260023   1.911   4.191  15.671  0.2913  0.2801  0.2628
12870TIP3   OH260024   3.729   5.272   4.448 -0.1126 -0.2628 -0.0737
12870TIP3    H160025   3.672   5.230   4.513  1.5352 -2.1989  0.2435
12870TIP3    H260026   3.800   5.310   4.500  0.5398 -0.6825 -0.6433
12871TIP3   OH260027   2.649   6.432   3.809 -0.3000 -0.5763  0.1525
12871TIP3    H160028   2.616   6.375   3.740  0.4232  1.3034 -1.8727
12871TIP3    H260029   2.743   6.439   3.793 -0.3520  1.0908  0.3551
12872TIP3   OH260030   3.702   2.821   0.043 -0.0095  0.0663  0.4434
12872TIP3    H160031   3.609   2.802   0.030 -0.0203 -0.1953  0.8690
12872TIP3    H260032   3.747   2.741   0.014  0.0224 -0.1561  1.0899
12873TIP3   OH260033   3.862   3.767   2.965  0.4345 -0.1102  0.1202
12873TIP3    H160034   3.887   3.749   2.874  1.8681  0.5632  0.3606
12873TIP3    H260035   3.810   3.847   2.960 -1.5189 -1.3436 -0.3465
12874TIP3   OH260036   0.814   3.916  12.172 -0.2571 -0.0076  0.5136
12874TIP3    H160037   0.780   4.003  12.196 -0.6795 -0.0081 -0.0410
12874TIP3    H260038   0.736   3.860  12.168 -0.2887  0.1072 -1.2630
12875TIP3   OH260039   1.032   3.214   0.772 -0.4180 -0.0124 -0.2506
12875TIP3    H160040   1.085   3.231   0.694  0.0707  0.5111  0.1855
12875TIP3    H260041   1.029   3.119   0.778  2.8460 -0.1724  1.2593
12876TIP3   OH260042   4.115   5.891  15.949 -0.9484  0.8260 -0.5961
12876TIP3    H160043   4.053   5.893  16.022 -2.1113 -0.1409 -1.5277
12876TIP3    H260044   4.101   5.973  15.902 -0.3156  1.3736  0.1367
12877TIP3   OH260045   4.362   4.190  16.516 -0.3256 -0.5394  0.0959
12877TIP3    H160046   4.417   4.266  16.536  0.2533 -0.0481 -2.8037
12877TIP3    H260047   4.423   4.126  16.479 -1.1656 -1.5303  0.3904
12878TIP3   OH260048   4.963   0.932   3.872  0.1860 -0.0387  0.1640
12878TIP3    H160049   4.913   0.852   3.855  1.3727 -1.6431  3.1694
12878TIP3    H260050   4.998   0.958   3.787 -0.4770 -2.6065 -0.9936
12879TIP3   OH260051   1.647   4.469   5.862 -0.4458 -0.3604  0.2987
12879TIP3    H160052   1.652   4.373   5.863 -1.1639 -0.4633 -1.5680
12879TIP3    H260053   1.738   4.498   5.865 -0.2052 -1.1067  0.3535
12880TIP3   OH260054   4.644   1.782  16.577 -0.2449  0.5050  0.2178
12880TIP3    H160055   4.682   1.798  16.663 -1.1059  4.1369  0.0957
12880TIP3    H260056   4.690   1.842  16.519 -1.0076 -0.4730 -1.4743
12881TIP3   OH260057   2.212   0.159   0.853  0.6004  0.1730 -0.1427
12881TIP3    H160058   2.298   0.148   0.813 -0.7149  2.5550 -4.2790
12881TIP3    H260059   2.153   0.109   0.797 -0.8640 -1.0080  2.3091
12882TIP3   OH260060   0.955   0.272  16.167  0.2222 -0.2874  0.3346
12882TIP3    H160061   0.908   0.189  16.158 -0.0828 -0.0626 -0.1563
12882TIP3    H260062   0.890   0.332  16.205 -0.2335  0.3173 -1.3355
12883TIP3   OH260063   1.908   0.087  11.886  0.3649 -0.0404 -0.1885
12883TIP3    H160064   1.835   0.078  11.948 -0.0265 -1.7136 -0.8335
12883TIP3    H260065   1.974   0.026  11.917  0.2261 -0.7915 -1.3129
12884TIP3   OH260066   3.039   0.127   1.266  0.2318  0.0441 -0.0688
12884TIP3    H160067   3.056   0.105   1.174  1.1647 -2.5886  0.6345
12884TIP3    H260068   2.983   0.056   1.297  0.3607  0.6055  1.5268
12885TIP3   OH260069   0.227   0.417  14.557  0.6255 -0.4285  0.4208
12885TIP3    H160070   0.305   0.470  14.541  1.2660 -1.8250 -1.6178
12885TIP3    H260071   0.254   0.353  14.623  0.7708 -0.0376  0.7392
12886TIP3   OH260072   4.063   2.124   5.627  0.1065  0.5726  0.6794
12886TIP3    H160073   4.051   2.082   5.542 -0.4494  1.0690  0.4992
12886TIP3    H260074   4.102   2.057   5.682 -0.4195 -0.0604  0.2959
12887TIP3   OH260075   0.227   0.919  13.091 -0.4900  0.5033  0.2688
12887TIP3    H160076   0.157   0.861  13.062  0.4055 -1.4967  1.8354
12887TIP3    H260077   0.246   0.891  13.180  4.4387 -1.3262 -1.0408
12888TIP3   OH260078   3.038   4.305  14.698 -0.9380 -0.2089  0.0629
12888TIP3    H160079   3.011   4.278  14.786 -1.7441  2.7492  0.8267
12888TIP3    H260080   2.961   4.287  14.644 -0.8549 -0.9448  0.1741
12889TIP3   OH260081   3.057   6.445   6.123  0.1467  0.2515  0.2614
12889TIP3    H160082   3.063   6.354   6.094  1.0948  0.2002  0.5685
12889TIP3    H260083   3.077   6.441   6.217  0.4442  0.8030  0.2252
12890TIP3   OH260084   5.876   3.030  14.867 -0.7373 -0.6434 -0.3234
12890TIP3    H160085   5.935   3.076  14.806 -1.7708 -0.5574 -1.2897
12890TIP3    H260086   5.911   3.051  14.953  0.2392 -0.0165 -0.8400
12891TIP3   OH260087   5.598   1.882   5.526 -0.7215  0.5450  0.3271
12891TIP3    H160088   5.508   1.863   5.499 -1.3352  2.5615  0.7504
12891TIP3    H260089   5.590   1.909   5.618  0.6170 -1.1830  1.0117
12892TIP3   OH260090   1.159   4.470  13.219 -0.8001  0.8013  0.2835
12892TIP3    H160091   1.139   4.383  13.184 -0.5753  0.4136  1.0962
12892TIP3    H260092   1.243   4.493  13.179 -0.5851  0.3950  0.4942
12893TIP3   OH260093   4.111   0.998  13.789  0.6670 -0.6284  0.0329
12893TIP3    H160094   4.134   1.006  13.696  1.8993  0.4373  0.3841
12893TIP3    H260095   4.196   0.990  13.833  0.2825  1.2291  1.2426
12894TIP3   OH260096   5.417   1.554   1.260  0.4285  0.0521  0.1774
12894TIP3    H160097   5.450   1.467   1.236  2.3243  1.0706 -1.2416
12894TIP3    H260098   5.351   1.574   1.194  0.0278 -0.2884  0.4747
12895TIP3   OH260099   4.455   5.370  14.999  0.2708  0.0573  0.0104
12895TIP3    H160100   4.523   5.374  14.932  0.1688  1.8220 -0.0245
12895TIP3    H260101   4.489   5.421  15.072  0.4444 -1.9723  1.4253
12896TIP3   OH260102   3.783   3.692   1.500  0.1763  0.1422 -0.3299
12896TIP3    H160103   3.695   3.664   1.527 -0.0485 -0.1565 -1.3450
12896TIP3    H260104   3.829   3.610   1.480  1.0203  0.2214  1.1225
12897TIP3   OH260105   4.122   3.831   5.543  0.2699 -0.1506 -0.8709
12897TIP3    H160106   4.181   3.895   5.584 -1.0956  0.4032  0.3188
12897TIP3    H260107   4.048   3.883   5.513 -0.1488 -0.9900 -1.3181
12898TIP3   OH260108   1.367   4.550  15.188 -0.1213 -0.3860  0.4580
12898TIP3    H160109   1.443   4.607  15.196  0.6361 -0.8048 -2.5606
12898TIP3    H260110   1.358   4.509  15.274  0.2286  2.9993  2.2752
12899TIP3   OH260111   1.172   4.543  14.241 -0.1031  0.0592 -0.3500
12899TIP3    H160112   1.166   4.459  14.197 -3.8293 -0.9549  1.6400
12899TIP3    H260113   1.209   4.523  14.327 -1.0490  0.3850  0.1540
12900TIP3   OH260114   5.078   1.183   5.425 -0.6279 -0.2848 -0.1611
12900TIP3    H160115   5.025   1.221   5.495  0.7948 -0.4054  1.0083
12900TIP3    H260116   5.070   1.089   5.438 -0.9156 -0.3246 -0.6004
12901TIP3   OH260117   3.114   1.272  16.997  0.4816  0.1575  0.7261
12901TIP3    H160118   3.187   1.285  16.935  0.6970 -0.2847  0.8858
12901TIP3    H260119   3.142   1.320  17.075 -0.2673  1.6372  0.1304
12902TIP3   OH260120   4.097   0.965  14.978  0.1174 -0.0218 -0.2444
12902TIP3    H160121   4.124   1.054  14.955 -0.4465  0.3372  0.4275
12902TIP3    H260122   4.015   0.952  14.930  1.0303 -0.8138 -1.6575
12903TIP3   OH260123   4.751   5.642   3.910 -0.0690 -0.0334 -0.3483
12903TIP3    H160124   4.667   5.682   3.889  0.2244  2.0557  2.0272
12903TIP3    H260125   4.814   5.714   3.907  1.0378 -0.8897  1.1477
12904TIP3   OH260126   4.743   0.129  11.821 -0.5918 -0.1485 -0.0617
12904TIP3    H160127   4.714   0.212  11.783 -2.5843 -0.7495  0.0638
12904TIP3    H260128   4.832   0.147  11.851  0.5504  0.8272 -3.5226
12905TIP3   OH260129   4.885   5.505   2.869 -0.3657 -0.3307  0.2337
12905TIP3    H160130   4.815   5.566   2.846 -0.0986  0.1209  0.5859
12905TIP3    H260131   4.848   5.452   2.940 -0.6733 -0.7259 -0.2208
12906TIP3   OH260132   0.602   3.232  14.108  0.0222  0.0661 -0.3968
12906TIP3    H160133   0.587   3.160  14.169 -0.0910 -0.4636 -1.0499
12906TIP3    H260134   0.555   3.306  14.147  1.5032  0.2547  1.1410
12907TIP3   OH260135   4.902   1.597  14.165 -0.1389 -0.1019 -0.5245
12907TIP3    H160136   4.836   1.631  14.225 -0.1969 -0.7186 -0.2304
12907TIP3    H260137   4.854   1.580  14.084  0.0973  1.5145 -1.0494
12908TIP3   OH260138   4.003   6.600  13.335 -0.2014 -0.3872  0.2686
12908TIP3    H160139   4.059   6.620  13.259 -1.2062 -1.6247 -0.8411
12908TIP3    H260140   4.046   6.645  13.408  1.6881 -0.4494 -0.7217
12909TIP3   OH260141   4.847   1.159   0.156  0.1000 -0.3338 -0.4876
12909TIP3    H160142   4.859   1.250   0.128  1.8384 -0.5565 -0.5672
12909TIP3    H260143   4.936   1.124   0.162 -0.3517 -1.2147  2.3122
12910TIP3   OH260144   0.213   0.212   5.901  0.3975  0.3447 -0.7148
12910TIP3    H160145   0.292   0.171   5.936  0.8483 -0.1391 -2.2076
12910TIP3    H260146   0.177   0.148   5.840 -1.2158  0.5275 -0.0076
12911TIP3   OH260147   1.833   3.100  13.504  0.2329 -0.0095  0.1957
12911TIP3    H160148   1.834   3.008  13.531 -1.0733  0.3157  1.4681
12911TIP3    H260149   1.752   3.109  13.455 -0.0179  0.6125  0.7111
12912TIP3   OH260150   6.296   0.401   1.682 -0.3710  0.4204  0.1777
12912TIP3    H160151   6.336   0.345   1.615 -1.2649  0.1824 -0.1766
12912TIP3    H260152   6.232   0.345   1.726 -1.5443  1.2298 -0.4287
12913TIP3   OH260153   0.999   6.049   2.351  0.5407  0.0913 -0.1990
12913TIP3    H160154   0.924   6.038   2.292 -0.4017 -0.1915  1.0136
12913TIP3    H260155   0.970   6.115   2.414  0.3067 -1.8572  1.8351
12914TIP3   OH260156   4.380   5.979  10.563  0.1070 -0.0341 -0.5254
12914TIP3    H160157   4.397   6.019  10.478 -0.5605  0.8355 -0.2663
12914TIP3    H260158   4.336   6.048  10.613  1.2287 -0.2414  0.8132
12915TIP3   OH260159   5.525   5.702   3.653  0.4272  0.4021 -0.4350
12915TIP3    H160160   5.498   5.748   3.574  0.8585  1.9751  0.2849
12915TIP3    H260161   5.445   5.666   3.690  0.2316 -0.3903 -1.5961
12916TIP3   OH260162   0.662   1.813   1.297 -0.3296 -0.4012  0.3227
12916TIP3    H160163   0.591   1.870   1.269 -0.1616 -0.8976 -1.2480
12916TIP3    H260164   0.739   1.845   1.249 -0.5905 -2.9638 -2.0734
12917TIP3   OH260165   0.813   4.233  14.633  0.0213 -0.3623  0.7006
12917TIP3    H160166   0.862   4.309  14.599 -1.2466  0.0546 -0.2686
12917TIP3    H260167   0.787   4.259  14.721  0.9982 -0.3382  0.9935
12918TIP3   OH260168   3.387   4.296  15.670 -0.4745  0.6802 -0.5020
12918TIP3    H160169   3.321   4.228  15.677  1.6779 -1.4912  0.1138
12918TIP3    H260170   3.433   4.293  15.754  1.2006  1.1868 -1.3648
12919TIP3   OH260171   3.908   3.328  14.067 -0.8164  0.2811 -0.4402
12919TIP3    H160172   3.851   3.272  14.013  0.7115 -2.1583  0.3278
12919TIP3    H260173   3.994   3.322  14.025  0.3867 -1.5696  2.0347
12920TIP3   OH260174   3.378   4.101  12.530  0.2720  0.1874 -0.2856
12920TIP3    H160175   3.349   4.157  12.602 -0.6991 -0.1851 -0.3665
12920TIP3    H260176   3.360   4.152  12.451  1.0027  0.4525 -0.2812
12921TIP3   OH260177   6.059   2.218  12.707 -0.1256  0.2382  0.0388
12921TIP3    H160178   5.969   2.222  12.738 -0.4499  1.4863 -0.9578
12921TIP3    H260179   6.057   2.262  12.622  0.9615 -1.9206 -1.1984
12922TIP3   OH260180   0.495   6.283  11.815 -0.0891 -0.2448 -0.2637
12922TIP3    H160181   0.493   6.230  11.895 -1.0386 -1.1315 -0.8456
12922TIP3    H260182   0.587   6.288  11.791  0.1672 -0.2751  0.6800
12923TIP3   OH260183   2.317   4.909   3.440 -0.1351  0.1920  0.0290
12923TIP3    H160184   2.285   4.951   3.520 -0.4260 -0.5628  0.3215
12923TIP3    H260185   2.270   4.953   3.370 -0.8651 -0.0194  0.3705
12924TIP3   OH260186   5.287   3.826   1.887  0.0099  0.2639  0.6018
12924TIP3    H160187   5.250   3.755   1.939  2.1280 -0.6474  0.9359
12924TIP3    H260188   5.337   3.879   1.950  0.0848  0.9167  0.0131
12925TIP3   OH260189   3.513   0.820  12.081  0.3638  0.5354 -0.4307
12925TIP3    H160190   3.575   0.748  12.092 -0.5957 -0.1878  0.3498
12925TIP3    H260191   3.436   0.794  12.131  0.3306  2.5097  0.6369
12926TIP3   OH260192   2.948   1.199  15.497  0.1956  0.6161  0.0993
12926TIP3    H160193   2.921   1.230  15.584  0.7619  0.2883  0.4007
12926TIP3    H260194   2.969   1.278  15.449 -1.9730  0.9596 -0.4043
12927TIP3   OH260195   0.048   4.624  12.772 -0.0147 -0.1143  0.2488
12927TIP3    H160196   0.101   4.691  12.728  1.9644  0.4625  3.2830
12927TIP3    H260197   0.083   4.541  12.740  0.6382  0.2806 -0.0918
12928TIP3   OH260198   0.179   0.744   0.472 -0.6090 -0.9177 -0.4322
12928TIP3    H160199   0.172   0.700   0.387 -1.5801  0.6519 -1.2062
12928TIP3    H260200   0.153   0.678   0.536  1.8748 -2.7260 -1.1197
12929TIP3   OH260201   6.087   3.240  12.752 -0.0303 -0.1070 -0.5714
12929TIP3    H160202   6.098   3.282  12.666 -1.1534 -1.3638 -1.3727
12929TIP3    H260203   6.014   3.287  12.792  2.0728  2.1676  0.8475
12930TIP3   OH260204   5.265   0.653  12.921 -0.7002  0.0248  0.2148
12930TIP3    H160205   5.358   0.676  12.926 -0.2013 -1.6783 -0.5291
12930TIP3    H260206   5.254   0.585  12.988 -1.7447  1.1559  1.2317
12931TIP3   OH260207   5.909   3.994  15.230  0.3811 -0.4968  0.2506
12931TIP3    H160208   5.841   3.985  15.296 -1.0756  1.3696 -0.8918
12931TIP3    H260209   5.948   3.907  15.224 -0.1104 -0.9817  2.7933
12932TIP3   OH260210   0.691   1.125   1.776  0.0260  0.1554 -0.2422
12932TIP3    H160211   0.703   1.101   1.868 -0.8599  1.0779  0.1311
12932TIP3    H260212   0.756   1.073   1.729  0.1734 -0.6773  0.8514
12933TIP3   OH260213   1.160   3.266  12.215 -0.3750 -0.7433 -0.0823
12933TIP3    H160214   1.229   3.202  12.196  0.3096 -0.5247  1.5831
12933TIP3    H260215   1.126   3.240  12.301 -3.0226 -1.3906 -1.2034
12934TIP3   OH260216   4.351   5.515   0.729  0.6873 -0.0348  0.2713
12934TIP3    H160217   4.419   5.449   0.717  0.9058  0.2847 -0.2627
12934TIP3    H260218   4.282   5.491   0.667  0.8492  0.3470 -0.0551
12935TIP3   OH260219   3.632   4.111   0.442  0.1254 -0.2282 -0.3456
12935TIP3    H160220   3.656   4.033   0.492 -1.5502 -0.8718 -0.4789
12935TIP3    H260221   3.715   4.147   0.412  0.9679 -1.6862  0.1441
12936TIP3   OH260222   2.982   0.896   5.299  0.3326 -0.0234  0.0860
12936TIP3    H160223   3.063   0.905   5.247  0.5440  1.0922  0.5667
12936TIP3    H260224   2.971   0.802   5.311  1.0111 -0.2383 -0.8502
12937TIP3   OH260225   0.022   1.705  11.358  0.5235 -0.1985  0.2345
12937TIP3    H160226   0.059   1.734  11.442  1.4711 -1.3788  0.2476
12937TIP3    H260227  -0.012   1.785  11.319  0.4041  0.4401  1.5798
12938TIP3   OH260228   2.490   3.135  14.515  0.0837  0.2134  0.2681
12938TIP3    H160229   2.568   3.132  14.460 -0.1332  0.6914 -0.0776
12938TIP3    H260230   2.418   3.146  14.454 -0.3684 -1.1748  0.5105
12939TIP3   OH260231   4.109   4.974  12.170  0.2533 -0.4117  0.4015
12939TIP3    H160232   4.039   4.967  12.235 -0.1002 -1.1686 -0.0422
12939TIP3    H260233   4.115   4.886  12.132 -2.6550  0.8617 -3.7705
12940TIP3   OH260234   0.665   1.740   2.697 -0.5616  0.2033  0.1085
12940TIP3    H160235   0.630   1.741   2.608  0.3780  2.4783 -0.3055
12940TIP3    H260236   0.589   1.756   2.753 -1.3556 -2.3465 -0.1244
12941TIP3   OH260237   6.499   4.159  10.457  0.0157  0.2268 -0.4528
12941TIP3    H160238   6.426   4.198  10.409  0.5015 -1.0647 -2.3644
12941TIP3    H260239   6.495   4.066  10.435  1.6109 -0.0364  0.2407
12942TIP3   OH260240   2.395   1.463  14.841 -0.2085 -0.2669  0.6988
12942TIP3    H160241   2.333   1.476  14.769  1.1299  2.2106 -0.1058
12942TIP3    H260242   2.419   1.370  14.835 -1.9468 -0.6897 -0.5066
12943TIP3   OH260243   3.526   1.669  12.402 -0.5138  0.1681 -0.5932
12943TIP3    H160244   3.543   1.678  12.309 -0.8055  0.5067 -0.6154
12943TIP3    H260245   3.446   1.616  12.407 -0.9158  0.7639 -0.5604
12944TIP3   OH260246   1.333   1.374   5.388 -0.5140 -0.4640 -0.3039
12944TIP3    H160247   1.262   1.417   5.341 -1.0713 -0.2146  0.7243
12944TIP3    H260248   1.317   1.281   5.376 -1.7321 -0.4456  0.8921
12945TIP3   OH260249   4.890   1.992   5.440  0.6529 -0.2281  0.0923
12945TIP3    H160250   4.948   2.064   5.465  1.2701 -0.6412 -0.1239
12945TIP3    H260251   4.923   1.963   5.354 -0.4549  0.1436 -0.4829
12946TIP3   OH260252   2.425   3.909   1.314 -0.1629 -0.0091  0.0744
12946TIP3    H160253   2.501   3.960   1.342 -1.1444 -0.0206  3.1538
12946TIP3    H260254   2.462   3.826   1.284  1.1380  0.5272  0.1163
12947TIP3   OH260255   5.437   1.201  14.091 -0.8876 -0.5649 -0.1104
12947TIP3    H160256   5.379   1.212  14.166 -1.8962 -1.6701 -0.6884
12947TIP3    H260257   5.423   1.111  14.063  2.1928 -1.3481  0.5671
12948TIP3   OH260258   5.222   0.163  17.149 -0.1776 -0.1445  0.4459
12948TIP3    H160259   5.129   0.142  17.154 -0.8211  2.4131  0.6377
12948TIP3    H260260   5.233   0.205  17.063  0.8991 -0.7755  0.2547
12949TIP3   OH260261   5.652   6.057  16.970  0.2421 -0.3252 -0.2297
12949TIP3    H160262   5.732   6.087  16.928 -1.5141  2.6695 -1.7430
12949TIP3    H260263   5.663   6.082  17.062  0.3868  1.7722 -0.7643
12950TIP3   OH260264   5.110   0.566  12.373  0.0632  0.5494  0.4329
12950TIP3    H160265   5.176   0.582  12.306 -0.5273 -1.3988 -0.7086
12950TIP3    H260266   5.159   0.560  12.455  1.2538 -0.3226 -0.3107
12951TIP3   OH260267   0.952   1.444  13.978  0.2329  0.1048  0.3264
12951TIP3    H160268   0.921   1.533  13.962  0.1861  0.0107 -0.1361
12951TIP3    H260269   0.900   1.412  14.051 -0.6237  0.0158 -0.3112
12952TIP3   OH260270   4.269   0.026  15.795 -0.4561  0.7908  0.2917
12952TIP3    H160271   4.306   0.110  15.768 -0.2754  0.8179  0.6090
12952TIP3    H260272   4.293  -0.035  15.725  2.5950  0.1765  1.6976
12953TIP3   OH260273   4.489   4.466   4.171  0.2297  0.4455  0.4262
12953TIP3    H160274   4.412   4.510   4.133 -0.2464 -0.1589  0.6662
12953TIP3    H260275   4.490   4.380   4.128 -0.9803 -0.6970  2.5508
12954TIP3   OH260276   1.984   4.192   2.328 -0.4878  0.6412  0.0469
12954TIP3    H160277   2.016   4.105   2.354 -2.3685  0.0159  0.4346
12954TIP3    H260278   1.989   4.244   2.408 -1.2863  0.2600  0.3627
12955TIP3   OH260279   2.617   2.304  16.985  0.4682 -0.5900 -0.1651
12955TIP3    H160280   2.537   2.292  16.934  0.3318  2.1960 -0.7213
12955TIP3    H260281   2.601   2.382  17.038  2.4385 -0.5879  0.5201
12956TIP3   OH260282   0.965   5.458  12.825  0.1641  0.1565  0.0246
12956TIP3    H160283   0.987   5.439  12.916  0.4542 -0.0625 -0.0902
12956TIP3    H260284   0.873   5.486  12.828  0.0560 -0.2228  0.3347
12957TIP3   OH260285   6.403   4.774   6.503 -0.7030  0.3202 -0.0440
12957TIP3    H160286   6.442   4.832   6.568 -2.1900 -1.3297  2.4834
12957TIP3    H260287   6.475   4.716   6.477 -0.1359  0.8570  0.2980
12958TIP3   OH260288   0.919   5.616  16.520 -0.5319  0.1087 -0.0192
12958TIP3    H160289   1.005   5.578  16.536 -0.2846  0.9168  0.6313
12958TIP3    H260290   0.934   5.685  16.456 -0.7927 -0.1302 -0.3420
12959TIP3   OH260291   4.863   3.722  12.824  0.5520 -0.1747 -0.1478
12959TIP3    H160292   4.878   3.814  12.805 -0.5008  0.1633  0.5589
12959TIP3    H260293   4.772   3.718  12.854  0.6603 -1.4043  0.0808
12960TIP3   OH260294   3.616   4.861   0.927  0.2778 -0.1270 -0.2586
12960TIP3    H160295   3.697   4.864   0.876 -0.5253 -1.7330 -1.7277
12960TIP3    H260296   3.592   4.952   0.940  0.8527  0.3522 -2.2322
12961TIP3   OH260297   4.663   0.876  12.465  0.1021 -0.1015  0.1825
12961TIP3    H160298   4.640   0.961  12.503  1.8291  0.8222 -0.7161
12961TIP3    H260299   4.758   0.877  12.459  0.0842 -1.5798 -1.0165
12962TIP3   OH260300   2.183   5.184   3.253 -0.1549 -0.4723  0.1750
12962TIP3    H160301   2.247   5.128   3.209 -0.5583 -0.4214 -0.4963
12962TIP3    H260302   2.122   5.122   3.293  0.2393 -0.5194  0.7198
12963TIP3   OH260303   4.591   6.657   1.832 -0.5339 -0.3496  0.0790
12963TIP3    H160304   4.562   6.570   1.804  0.3227 -0.4902 -0.3969
12963TIP3    H260305   4.633   6.694   1.754 -0.2801  0.2146  0.4809
12964TIP3   OH260306   3.345   1.398  16.986  0.4854 -0.0785  0.0053
12964TIP3    H160307   3.356   1.478  17.037 -0.6156  0.8543 -1.1603
12964TIP3    H260308   3.414   1.340  17.018 -0.4064  0.2670  2.8651
12965TIP3   OH260309   6.510   2.991  14.962  0.5521  0.5004 -0.3368
12965TIP3    H160310   6.445   2.923  14.980 -1.1856  1.8867 -1.0251
12965TIP3    H260311   6.478   3.034  14.883  1.3870  2.3182  0.2568
12966TIP3   OH260312   4.140   3.421   2.786  0.1194 -0.3705  0.0460
12966TIP3    H160313   4.185   3.378   2.860 -0.0616  1.3761  1.2242
12966TIP3    H260314   4.107   3.348   2.733  1.0293 -1.6862  1.1989
12967TIP3   OH260315   2.150   1.967   3.929 -0.1308 -0.0150  0.2364
12967TIP3    H160316   2.146   2.053   3.971 -1.8819  0.4904 -0.8583
12967TIP3    H260317   2.139   1.905   4.000 -2.7249  0.8144  0.6659
12968TIP3   OH260318   6.326   4.852   2.199  0.2889 -0.4171  0.1573
12968TIP3    H160319   6.233   4.837   2.182  0.6422 -0.8146 -1.5569
12968TIP3    H260320   6.346   4.796   2.275 -0.6197 -1.1857 -0.1557
12969TIP3   OH260321   0.247   1.973   3.085  0.2266  0.5317  0.2268
12969TIP3    H160322   0.217   1.997   2.997  1.1825 -0.3372 -0.3550
12969TIP3    H260323   0.289   2.052   3.118  3.0579 -0.1066 -1.5459
12970TIP3   OH260324   5.034   6.222  14.542  0.3221 -0.2612  0.5746
12970TIP3    H160325   5.084   6.287  14.494  0.0991 -1.0734 -0.8249
12970TIP3    H260326   5.099   6.158  14.571  0.4226  0.0898  1.1374
12971TIP3   OH260327   5.910   2.139   3.110 -0.1009  0.1761  0.4661
12971TIP3    H160328   5.930   2.227   3.141  2.4247 -0.3672  0.6258
12971TIP3    H260329   5.868   2.152   3.025  0.0812  1.5274  0.5640
12972TIP3   OH260330   4.280   1.997   3.902  0.0452 -0.0485 -0.1923
12972TIP3    H160331   4.372   1.992   3.928 -0.2343 -2.9051  0.6053
12972TIP3    H260332   4.237   1.930   3.955 -2.5993  1.4502 -0.2909
12973TIP3   OH260333   3.996   3.851   1.171  0.0094  0.3535  0.3486
12973TIP3    H160334   4.061   3.783   1.157  0.2554  0.5377  0.5868
12973TIP3    H260335   3.912   3.809   1.154  0.1854  0.0876  0.1428
12974TIP3   OH260336   1.595   3.665   3.375  0.0054 -0.2664  0.2687
12974TIP3    H160337   1.618   3.621   3.457 -1.5192 -0.1673  0.7804
12974TIP3    H260338   1.646   3.746   3.377  2.2994 -1.6067 -0.3539
12975TIP3   OH260339   5.357   5.871  12.166 -0.6616  0.3170  0.6848
12975TIP3    H160340   5.337   5.893  12.075 -2.2292  0.8436  1.1197
12975TIP3    H260341   5.335   5.779  12.173  1.2538 -0.2222  0.0857
12976TIP3   OH260342   3.623   3.220  14.025  0.2195  0.7038 -0.6672
12976TIP3    H160343   3.604   3.256  14.112  1.8600 -0.3541  0.1616
12976TIP3    H260344   3.568   3.272  13.966 -0.4930  1.8459  0.9196
12977TIP3   OH260345   1.878   0.775  12.644 -0.1497 -0.3617 -0.0882
12977TIP3    H160346   1.973   0.781  12.654 -0.2109 -0.0878  0.3572
12977TIP3    H260347   1.853   0.859  12.606 -0.0561 -0.9611 -1.5400
12978TIP3   OH260348   2.247   4.757  12.519  0.2569  0.0440 -0.7571
12978TIP3    H160349   2.181   4.821  12.549  0.2406 -0.1184 -0.4381
12978TIP3    H260350   2.203   4.709  12.448 -0.3904 -0.8195  0.1893
12979TIP3   OH260351   4.797   6.708   4.130  0.1420  0.7164  0.0110
12979TIP3    H160352   4.754   6.645   4.188 -2.3684  1.7777 -0.6029
12979TIP3    H260353   4.774   6.678   4.042  0.7408  1.2798 -0.3410
12980TIP3   OH260354   2.069   3.320  12.751 -0.3469 -0.1236 -0.2498
12980TIP3    H160355   2.051   3.410  12.724 -1.8426 -0.5813 -0.9127
12980TIP3    H260356   1.989   3.293  12.796  1.5662  0.1906  3.7593
12981TIP3   OH260357   4.362   5.283   0.033 -0.6491 -0.5147  0.0380
12981TIP3    H160358   4.399   5.196   0.046  1.1160  0.3414  1.2371
12981TIP3    H260359   4.438   5.339   0.015 -1.7601  0.7400 -0.9607
12982TIP3   OH260360   1.780   0.727  13.183 -0.2587 -0.7003  0.2515
12982TIP3    H160361   1.813   0.637  13.176 -0.0170 -0.5660 -0.4688
12982TIP3    H260362   1.754   0.749  13.093  0.6825  0.3163  0.2071
12983TIP3   OH260363   0.681   0.130   4.186  0.8167  0.4447 -0.3986
12983TIP3    H160364   0.741   0.156   4.116  0.3247  1.2069 -0.5562
12983TIP3    H260365   0.738   0.098   4.256  1.3264 -0.1444 -1.0634
12984TIP3   OH260366   1.092   2.546   0.043 -0.0179  0.4372  0.4166
12984TIP3    H160367   1.025   2.569   0.108  1.4658  1.2635  1.7106
12984TIP3    H260368   1.078   2.608  -0.029 -0.7070  0.5164  0.6100
12985TIP3   OH260369   2.938   6.569  10.782 -0.3042  0.1715 -0.3521
12985TIP3    H160370   2.846   6.563  10.756 -0.5658 -1.3645  0.8232
12985TIP3    H260371   2.948   6.658  10.815 -1.7167 -0.0515  0.7426
12986TIP3   OH260372   0.378   5.674  15.343 -0.5117  0.7017 -0.2964
12986TIP3    H160373   0.406   5.756  15.386 -0.1688  0.0178  0.8334
12986TIP3    H260374   0.450   5.652  15.284  0.8347 -0.3567  1.6362
12987TIP3   OH260375   2.781   0.987  14.352 -0.2875  0.1284 -0.1131
12987TIP3    H160376   2.805   0.966  14.442 -0.0303  1.5699  0.1790
12987TIP3    H260377   2.863   1.013  14.310 -0.2642 -1.2845 -1.0179
12988TIP3   OH260378   1.357   0.899   1.542 -0.1786  0.4340  0.1360
12988TIP3    H160379   1.370   0.806   1.560  2.7781  0.8020  0.4257
12988TIP3    H260380   1.337   0.903   1.449  0.2295 -0.4655  0.0007
12989TIP3   OH260381   5.992   2.829   3.467  0.2123 -0.1291 -0.8226
12989TIP3    H160382   5.901   2.797   3.466  0.3128 -0.7711  1.9233
12989TIP3    H260383   5.983   2.924   3.475 -0.2283 -0.1952 -0.4634
12990TIP3   OH260384   5.990   4.700  15.718 -0.4019 -0.2167 -0.0698
12990TIP3    H160385   5.974   4.609  15.742  1.5639 -0.2604  1.3077
12990TIP3    H260386   6.059   4.729  15.777  0.7531  1.4254 -2.0632
12991TIP3   OH260387   2.349   6.663  12.449 -0.3334  0.0436  0.1435
12991TIP3    H160388   2.293   6.600  12.495  0.3144 -0.3791  0.3614
12991TIP3    H260389   2.431   6.663  12.498  0.4851 -0.6435 -1.1769
12992TIP3   OH260390   1.027   6.593   4.487 -0.5569  0.0523  0.6356
12992TIP3    H160391   1.060   6.618   4.574  1.6512  0.5396 -0.2826
12992TIP3    H260392   1.091   6.529   4.455 -1.7562 -0.6912 -0.3372
12993TIP3   OH260393   3.518   3.641  13.654  0.1599 -0.0462  0.1143
12993TIP3    H160394   3.605   3.680  13.647 -0.4013  1.1579 -0.3598
12993TIP3    H260395   3.458   3.712  13.636 -0.9222 -1.0401 -0.3365
12994TIP3   OH260396   1.405   4.990  11.751  0.2299 -0.0250 -0.1229
12994TIP3    H160397   1.439   4.980  11.840 -0.7048  0.9552  0.3739
12994TIP3    H260398   1.449   5.068  11.717  1.8665 -1.3526 -1.1835
12995TIP3   OH260399   2.439   1.396  15.532 -0.3357  0.2710  0.0869
12995TIP3    H160400   2.379   1.466  15.508 -1.6394 -1.3171 -1.6387
12995TIP3    H260401   2.402   1.360  15.613 -0.3785  0.8046  0.3024
12996TIP3   OH260402   1.943   4.875  16.542 -0.0829 -0.8019  0.0362
12996TIP3    H160403   1.861   4.896  16.497  0.6055  3.2587  0.2671
12996TIP3    H260404   1.958   4.950  16.600  4.1722 -0.8947 -0.6026
12997TIP3   OH260405   5.182   2.981   2.294 -0.2144 -0.1096  0.0369
12997TIP3    H160406   5.103   2.966   2.345  0.2751 -0.6892  0.6483
12997TIP3    H260407   5.253   2.978   2.359  0.5081 -1.7385 -0.7725
12998TIP3   OH260408   2.223   5.186   6.899 -0.4104 -0.6078 -0.9471
12998TIP3    H160409   2.167   5.131   6.844  1.2239 -0.5307 -2.7996
12998TIP3    H260410   2.174   5.268   6.909 -1.0033 -0.8531 -1.7731
12999TIP3   OH260411   4.886   6.570   1.697 -0.0536 -0.1490 -0.0607
12999TIP3    H160412   4.852   6.654   1.666 -1.3738 -0.3625  0.7300
12999TIP3    H260413   4.846   6.557   1.783  0.7051 -1.2485  0.1567
13000TIP3   OH260414   1.002   4.832  11.675 -0.1015  0.5791  0.0958
13000TIP3    H160415   0.918   4.798  11.644 -0.2975  0.3910  0.7956
13000TIP3    H260416   0.978   4.904  11.734  0.2997  1.7086 -1.0672
13001TIP3   OH260417   1.676   3.783  13.037 -0.2607  0.6436 -0.1477
13001TIP3    H160418   1.621   3.741  13.103  0.2119 -1.2147 -0.8689
13001TIP3    H260419   1.765   3.760  13.063 -0.0527  0.2196 -1.1810
13002TIP3   OH260420   4.210   0.960   1.526  0.4172 -0.0385  0.1275
13002TIP3    H160421   4.303   0.976   1.510  0.6662 -2.2515 -1.0780
13002TIP3    H260422   4.208   0.893   1.595 -0.0823 -2.1158 -1.7657
13003TIP3   OH260423   1.776   1.684   4.990  0.1621  0.1799 -0.0007
13003TIP3    H160424   1.786   1.779   5.003 -0.5516  0.1970  0.4938
13003TIP3    H260425   1.693   1.663   5.034  0.5052 -0.7391  0.2197
13004TIP3   OH260426   5.094   4.085   1.498  0.2157  0.0256  0.3080
13004TIP3    H160427   5.185   4.088   1.466 -0.3811 -2.0167 -1.9075
13004TIP3    H260428   5.093   4.013   1.561  0.3031  0.7071  1.1087
13005TIP3   OH260429   3.954   4.907  15.896 -0.0934  0.9243  0.0615
13005TIP3    H160430   3.916   4.827  15.861 -0.3986  1.2391 -0.3388
13005TIP3    H260431   4.007   4.942  15.825  2.3367 -0.3510  1.1157
13006TIP3   OH260432   3.928   6.365   1.105 -0.0473 -0.2977  0.5289
13006TIP3    H160433   3.932   6.313   1.024  0.4945  0.3490  0.1301
13006TIP3    H260434   4.012   6.350   1.148  0.1203  0.2523  0.4028
13007TIP3   OH260435   6.473   4.510  14.566  0.0283  0.2148  0.2732
13007TIP3    H160436   6.549   4.533  14.512  1.1613  0.4435  1.9124
13007TIP3    H260437   6.404   4.569  14.536 -0.3181 -1.5478 -2.8745
13008TIP3   OH260438   0.743   2.400  14.316 -0.3359  0.0153 -0.2899
13008TIP3    H160439   0.800   2.356  14.253 -0.1509 -0.0232 -0.0967
13008TIP3    H260440   0.722   2.333  14.380  1.2525  0.5863  0.9053
13009TIP3   OH260441   6.589   4.879   5.621  0.4143  0.5502 -0.5615
13009TIP3    H160442   6.623   4.806   5.673  2.0713  0.9867 -0.9630
13009TIP3    H260443   6.621   4.957   5.667 -0.6418  1.0130 -0.5920
13010TIP3   OH260444   0.194   4.925   5.221 -0.3185  0.3299 -0.0462
13010TIP3    H160445   0.186   5.020   5.215 -0.3850  0.3005 -0.4700
13010TIP3    H260446   0.104   4.893   5.220 -0.2984  0.2657  0.1525
13011TIP3   OH260447   2.377   4.669   2.155  0.2510 -0.3050 -0.1137
13011TIP3    H160448   2.398   4.579   2.179  0.8251 -0.0783  0.2374
13011TIP3    H260449   2.420   4.723   2.221 -1.3810  0.1848  0.5851
13012TIP3   OH260450   5.669   0.369   2.688 -0.1664  0.2463 -0.1484
13012TIP3    H160451   5.589   0.316   2.693 -0.6939  1.0973  0.5970
13012TIP3    H260452   5.693   0.367   2.595  1.4096 -3.5674  0.1628
13013TIP3   OH260453   4.566   4.011  13.817  0.2374  0.3545 -0.5948
13013TIP3    H160454   4.587   3.937  13.873  2.7733  0.2350 -1.5601
13013TIP3    H260455   4.493   4.055  13.861 -0.7167 -2.1181  0.4938
13014TIP3   OH260456   4.302   3.754  14.027  0.1044 -0.8102  0.0870
13014TIP3    H160457   4.309   3.826  13.964  0.9744  1.5836  2.7385
13014TIP3    H260458   4.211   3.756  14.056  0.2302 -0.4694  0.4695
13015TIP3   OH260459   3.099   1.087   1.195 -0.0015  0.1739 -0.1952
13015TIP3    H160460   3.079   1.035   1.273  0.0962 -0.5610 -0.6510
13015TIP3    H260461   3.194   1.099   1.198 -0.0403  0.4297 -0.0234
13016TIP3   OH260462   1.995   2.584   5.264  0.2598 -0.2181  0.2132
13016TIP3    H160463   2.017   2.587   5.357 -0.5321  0.0926  0.3939
13016TIP3    H260464   1.908   2.545   5.260  0.7650 -1.3353 -0.4954
13017TIP3   OH260465   4.748   1.102   5.529  0.5381  0.4649  0.0037
13017TIP3    H160466   4.663   1.146   5.539  0.5020  0.5785 -0.7313
13017TIP3    H260467   4.773   1.078   5.618 -0.5454 -0.1070  0.1777
13018TIP3   OH260468   4.552   4.985  13.640 -0.6616  0.5046  0.2683
13018TIP3    H160469   4.537   4.892  13.621 -1.2443  0.9709 -1.8974
13018TIP3    H260470   4.482   5.009  13.700 -1.5400 -0.0920 -0.4811
13019TIP3   OH260471   5.103   6.470   0.035  0.0901 -0.7130 -0.1922
13019TIP3    H160472   5.151   6.458  -0.047 -1.3024  0.1860 -1.1787
13019TIP3    H260473   5.141   6.550   0.073  0.4248 -0.8726 -0.1899
13020TIP3   OH260474   0.072   1.298   3.636 -0.1916 -0.3066 -0.3158
13020TIP3    H160475   0.072   1.391   3.616 -0.0163 -0.5665 -1.5923
13020TIP3    H260476   0.131   1.259   3.572  0.0090 -1.2595  0.4160
13021TIP3   OH260477   0.306   3.584  12.801 -0.0670  0.7914  0.5378
13021TIP3    H160478   0.302   3.656  12.864 -1.6314  0.2989  1.0683
13021TIP3    H260479   0.370   3.523  12.839 -1.4850  0.1785  2.0750
13022TIP3   OH260480   6.158   4.034   5.848 -0.3569  0.0151  0.1767
13022TIP3    H160481   6.129   4.015   5.759  0.1695 -0.3807  0.0831
13022TIP3    H260482   6.138   3.954   5.897  0.0753 -0.0637  0.2312
13023TIP3   OH260483   4.589   1.181   2.443 -0.7178  0.3855 -0.2651
13023TIP3    H160484   4.663   1.165   2.501 -1.2285 -1.0888  0.0363
13023TIP3    H260485   4.607   1.266   2.403  0.2615  0.8512  1.1029
13024TIP3   OH260486   3.487   1.392   6.510  0.2768  0.5969  0.4164
13024TIP3    H160487   3.437   1.311   6.523 -0.4560  1.1215  0.9293
13024TIP3    H260488   3.564   1.381   6.566  1.7481 -1.0116 -1.7660
13025TIP3   OH260489   5.674   1.624  10.616  0.3350  0.3814  0.0105
13025TIP3    H160490   5.746   1.629  10.553  0.4708  0.8997  0.2046
13025TIP3    H260491   5.615   1.559  10.579  0.7987  0.1068 -0.2572
13026TIP3   OH260492   2.260   5.208   5.220 -0.8125 -0.2382  0.1032
13026TIP3    H160493   2.172   5.233   5.192  0.0102  0.9686 -1.5521
13026TIP3    H260494   2.284   5.137   5.161 -0.3173  0.0893 -0.0934
13027TIP3   OH260495   1.313   3.476   4.082 -0.2410 -0.0888  0.3649
13027TIP3    H160496   1.372   3.545   4.113 -1.0574  0.4852  0.7094
13027TIP3    H260497   1.229   3.498   4.123 -0.7426 -0.7445 -0.3005
13028TIP3   OH260498   2.407   3.241  17.097 -0.0030  0.0648 -0.4340
13028TIP3    H160499   2.482   3.217  17.043 -0.9474 -1.4548 -1.1177
13028TIP3    H260500   2.331   3.201  17.054 -0.8260 -1.0426  1.8273
13029TIP3   OH260501   0.259   4.605  14.982  0.1758  0.7374 -0.5173
13029TIP3    H160502   0.337   4.620  15.036  0.9897  1.9980 -1.9873
13029TIP3    H260503   0.285   4.537  14.920 -0.2840  0.3443 -0.2921
13030TIP3   OH260504   1.255   3.331   1.687  0.4557  0.3913 -0.2030
13030TIP3    H160505   1.280   3.277   1.612 -0.6717  0.1365 -0.4118
13030TIP3    H260506   1.185   3.387   1.653  0.3385  0.6786  0.5102
13031TIP3   OH260507   5.418   5.328   2.570  0.0899  0.0027  0.9017
13031TIP3    H160508   5.456   5.300   2.487 -0.8274  0.4228  0.3299
13031TIP3    H260509   5.331   5.288   2.572  0.3878 -0.6293  2.0153
13032TIP3   OH260510   4.451   0.606  13.080  0.7258  0.1044 -0.1597
13032TIP3    H160511   4.363   0.570  13.073  0.6525  0.4804 -1.6214
13032TIP3    H260512   4.502   0.537  13.121  0.3208 -1.2289 -1.7787
13033TIP3   OH260513   6.442   3.980  13.321 -0.0542 -0.8857  0.1086
13033TIP3    H160514   6.456   3.912  13.256  0.3502  0.0315 -0.7771
13033TIP3    H260515   6.371   4.034  13.285  1.0245  0.3703 -0.1898
13034TIP3   OH260516   0.002   1.452  12.186 -0.8429  0.5613 -0.3528
13034TIP3    H160517  -0.047   1.496  12.255 -0.9259 -1.4987  0.9945
13034TIP3    H260518   0.093   1.456  12.215 -0.9812 -1.1269  0.4085
13035TIP3   OH260519   2.094   3.066   0.718 -0.5802 -0.5816  0.4461
13035TIP3    H160520   2.111   3.160   0.708  0.0167 -0.4807  2.0310
13035TIP3    H260521   2.159   3.024   0.663  1.9933 -0.0832  2.8432
13036TIP3   OH260522   3.644   4.077  10.425 -0.1459  0.1026 -0.0441
13036TIP3    H160523   3.693   4.103  10.347 -1.5641  0.8581 -0.7337
13036TIP3    H260524   3.680   3.992  10.449  0.7537  0.1431 -1.1514
13037TIP3   OH260525   4.674   4.084  12.712 -0.5594 -0.2326 -0.3482
13037TIP3    H160526   4.629   4.140  12.776  0.2268 -0.3761  0.3488
13037TIP3    H260527   4.664   3.995  12.747  0.8494 -0.1988  0.2034
13038TIP3   OH260528   5.739   1.937  16.321 -0.0276 -0.8006  0.4200
13038TIP3    H160529   5.733   1.909  16.412 -2.0401  0.5054  0.7430
13038TIP3    H260530   5.833   1.946  16.305  0.4528 -2.8968  1.7426
13039TIP3   OH260531   4.296   0.432   5.294  0.0874  0.2766 -0.0052
13039TIP3    H160532   4.242   0.487   5.351 -2.1117 -1.7665  0.0326
13039TIP3    H260533   4.298   0.478   5.211 -1.4082  0.6121  0.1173
13040TIP3   OH260534   3.441   1.663  15.548 -0.2751 -0.3149  0.3244
13040TIP3    H160535   3.454   1.608  15.625  1.7862 -0.4474 -0.0676
13040TIP3    H260536   3.390   1.737  15.580 -1.0235 -1.2579  1.3966
13041TIP3   OH260537   5.179   1.003   1.151  0.5132 -0.4365 -0.0798
13041TIP3    H160538   5.269   0.981   1.125 -0.2050 -1.1838 -2.0893
13041TIP3    H260539   5.188   1.088   1.195  2.1934 -0.4828 -0.2440
13042TIP3   OH260540   0.732   6.234   5.707  0.2579 -0.2148 -0.0074
13042TIP3    H160541   0.688   6.160   5.750 -0.0929 -0.1801 -0.3061
13042TIP3    H260542   0.772   6.283   5.779  1.7051 -1.4584  0.1018
13043TIP3   OH260543   2.836   0.426   2.141  0.0537  0.0726 -0.1768
13043TIP3    H160544   2.911   0.370   2.119 -0.1225  0.0874 -0.8419
13043TIP3    H260545   2.870   0.489   2.204  0.6181  0.1146 -0.5169
13044TIP3   OH260546   5.142   1.694  13.406 -0.4370 -0.3107  0.1356
13044TIP3    H160547   5.103   1.610  13.426 -2.0917  1.1465  3.8110
13044TIP3    H260548   5.080   1.736  13.346  0.6868 -1.7837 -2.1928
13045TIP3   OH260549   2.222   3.985   3.965  0.0719 -0.4841 -0.1337
13045TIP3    H160550   2.174   3.903   3.956 -0.9003 -0.1860  1.9000
13045TIP3    H260551   2.161   4.052   3.933 -0.8758 -0.1414  2.1627
13046TIP3   OH260552   4.818   3.651   4.740 -0.4586  0.0339 -0.1187
13046TIP3    H160553   4.908   3.682   4.733 -0.8596  1.2088 -0.3214
13046TIP3    H260554   4.787   3.684   4.824 -0.8975  0.1733 -0.3320
13047TIP3   OH260555   1.192   0.329   4.471 -0.3076  0.6251 -0.0463
13047TIP3    H160556   1.268   0.309   4.525 -1.4339 -0.8874  1.0364
13047TIP3    H260557   1.170   0.420   4.493 -0.5330  0.1585  1.8202
13048TIP3   OH260558   1.407   3.593   5.660  0.5212  0.0723 -0.0131
13048TIP3    H160559   1.490   3.557   5.693  1.1204 -0.6738 -2.1288
13048TIP3    H260560   1.432   3.675   5.618  0.6398 -1.1724 -2.5486
13049TIP3   OH260561   2.527   6.122  12.572 -0.6117 -0.6943  0.1870
13049TIP3    H160562   2.532   6.217  12.564  0.8967 -0.6403  1.2845
13049TIP3    H260563   2.434   6.103  12.576 -0.9209  0.8549  1.2067
13050TIP3   OH260564   2.034   6.220   3.888 -0.2510 -0.0086 -0.1197
13050TIP3    H160565   2.009   6.157   3.955  2.4242 -0.8589  0.2021
13050TIP3    H260566   2.129   6.214   3.883 -0.1856  1.4277 -2.6439
13051TIP3   OH260567   1.545   1.280   3.479  0.0540  0.3119 -0.1629
13051TIP3    H160568   1.595   1.345   3.429 -0.2378  1.0586  0.4895
13051TIP3    H260569   1.567   1.197   3.438  2.6686  0.4589  0.7481
13052TIP3   OH260570   2.689   1.862  12.524 -0.6908  0.7992 -0.0908
13052TIP3    H160571   2.689   1.933  12.589  1.4452  0.8128 -0.0278
13052TIP3    H260572   2.722   1.786  12.572  1.6105  0.9778 -1.2488
13053TIP3   OH260573   1.416   5.895  14.019 -0.7015  0.0237  0.2378
13053TIP3    H160574   1.493   5.952  14.016 -0.6054 -0.1223 -0.1304
13053TIP3    H260575   1.364   5.928  14.092 -1.0119  1.0502 -0.4271
13054TIP3   OH260576   4.504   5.883  13.083 -0.0318 -0.2808  0.3685
13054TIP3    H160577   4.431   5.832  13.118 -0.1849 -0.8881 -0.7863
13054TIP3    H260578   4.494   5.970  13.122 -0.6228 -0.7103  1.2113
13055TIP3   OH260579   1.414   0.296   3.153 -0.0241 -0.4759 -0.7293
13055TIP3    H160580   1.478   0.283   3.083  1.4102  1.2384  0.1993
13055TIP3    H260581   1.330   0.273   3.112  0.8409 -0.2829 -2.7672
13056TIP3   OH260582   0.132   4.669  12.399  0.7165 -0.2512 -0.7119
13056TIP3    H160583   0.130   4.698  12.490 -0.2063 -0.8997 -0.5123
13056TIP3    H260584   0.200   4.723  12.359 -0.6672  1.9480 -0.2925
13057TIP3   OH260585   4.611   0.365   6.214 -0.1100  0.1996  0.2383
13057TIP3    H160586   4.650   0.308   6.280 -0.4258 -0.5677 -0.2204
13057TIP3    H260587   4.659   0.447   6.221  0.7988 -0.3391  0.4679
13058TIP3   OH260588   2.969   0.585   2.343 -0.0020 -0.2398  0.4339
13058TIP3    H160589   3.026   0.532   2.400 -0.1474  0.1932  0.9959
13058TIP3    H260590   2.977   0.674   2.378  0.0137  0.0609 -0.3194
13059TIP3   OH260591   3.447   2.501  15.880 -0.2598 -0.0267 -0.5204
13059TIP3    H160592   3.359   2.464  15.892  0.6894 -1.8008  1.5243
13059TIP3    H260593   3.501   2.426  15.855  0.7956  0.9532 -1.2686
13060TIP3   OH260594   0.937   5.847  12.186  0.3439  0.1022  0.1946
13060TIP3    H160595   0.970   5.927  12.227  0.0869  0.2119  0.1947
13060TIP3    H260596   0.842   5.853  12.197  0.3090 -0.0993  0.0027
13061TIP3   OH260597   6.082   4.667  15.453  0.0394 -0.1914  0.1744
13061TIP3    H160598   6.138   4.591  15.472 -1.6203 -1.7523 -0.8072
13061TIP3    H260599   6.074   4.712  15.536  1.7613 -0.6005  0.6016
13062TIP3   OH260600   0.218   5.861   4.545  0.1822 -0.6499  0.1382
13062TIP3    H160601   0.291   5.919   4.522 -1.2570  2.0807  1.9489
13062TIP3    H260602   0.140   5.912   4.524 -1.1717 -1.5720  2.6142
13063TIP3   OH260603   6.522   0.657   5.761  0.4394 -0.1828 -0.0392
13063TIP3    H160604   6.596   0.707   5.794 -0.5726  0.9953  0.5288
13063TIP3    H260605   6.492   0.606   5.836 -1.4412  1.9890  0.8241
13064TIP3   OH260606   2.966   3.748   1.152  0.2035 -0.0925 -0.0763
13064TIP3    H160607   3.032   3.749   1.221 -0.5045  0.1357  0.6130
13064TIP3    H260608   3.016   3.740   1.070  1.2164  2.0593  0.2592
13065TIP3   OH260609   0.204   1.279  16.301  0.1565 -0.5371 -0.5281
13065TIP3    H160610   0.146   1.217  16.345 -1.1235 -0.4590 -2.0241
13065TIP3    H260611   0.251   1.226  16.237  2.0649 -0.6670  0.8821
13066TIP3   OH260612   4.287   4.826   5.861  0.2948  0.1963 -0.8195
13066TIP3    H160613   4.379   4.802   5.866  0.2179  0.0944  0.5990
13066TIP3    H260614   4.287   4.914   5.824  1.1691  1.1774  1.3275
13067TIP3   OH260615   0.407   5.711   3.598  0.5465 -0.1749 -0.3473
13067TIP3    H160616   0.475   5.660   3.554  0.5061  1.0335 -1.8922
13067TIP3    H260617   0.325   5.667   3.576  0.5533  0.2632 -1.3196
13068TIP3   OH260618   3.859   5.839   1.916 -0.2830 -0.3217 -0.1889
13068TIP3    H160619   3.814   5.902   1.972 -0.1652 -1.4329  1.2195
13068TIP3    H260620   3.796   5.818   1.847 -0.7032  0.5434 -0.0819
13069TIP3   OH260621   5.475   3.495   0.221  0.2335 -0.5007  0.2408
13069TIP3    H160622   5.511   3.501   0.132  1.3782  0.8411  0.7463
13069TIP3    H260623   5.402   3.556   0.221  2.4979  2.4309  1.1624
13070TIP3   OH260624   2.354   3.638   2.597  0.0249  0.2316 -0.3190
13070TIP3    H160625   2.390   3.673   2.515  0.2673 -0.8011 -0.6624
13070TIP3    H260626   2.263   3.619   2.577  0.5317 -1.8123 -0.9676
13071TIP3   OH260627   3.553   3.043   4.680 -0.4039  0.3307  0.2682
13071TIP3    H160628   3.503   3.061   4.759 -1.3967  0.5587 -0.3824
13071TIP3    H260629   3.598   2.960   4.697 -2.9139 -1.1737  0.0215
13072TIP3   OH260630   6.036   3.352  12.014 -0.2178  0.6322  0.0391
13072TIP3    H160631   5.956   3.326  12.060  0.2592  2.6198  2.1615
13072TIP3    H260632   6.007   3.422  11.955 -0.4134 -0.3346 -1.0611
13073TIP3   OH260633   5.588   3.136  11.127  0.1901  0.2908 -0.4666
13073TIP3    H160634   5.645   3.210  11.107 -0.0306  0.3538 -0.8636
13073TIP3    H260635   5.643   3.059  11.112 -0.7234  0.1891 -4.0717
13074TIP3   OH260636   0.510   5.932  15.768 -0.1006 -0.1987  0.1216
13074TIP3    H160637   0.433   5.914  15.822  1.4873  0.3362  2.7942
13074TIP3    H260638   0.581   5.884  15.812  1.6899  1.9167 -0.2708
13075TIP3   OH260639   3.821   1.423  13.483  0.0921  0.5370 -0.2126
13075TIP3    H160640   3.859   1.444  13.568 -1.9248  1.5155  0.5035
13075TIP3    H260641   3.839   1.329  13.472  1.9670  0.7696  0.3973
13076TIP3   OH260642   4.687   0.625  12.660  0.0646 -0.2718 -0.3514
13076TIP3    H160643   4.716   0.678  12.586 -1.8923  0.8052 -0.4328
13076TIP3    H260644   4.764   0.575  12.687  1.0796  0.0671 -2.4622
13077TIP3   OH260645   2.335   1.262  14.143  0.1200  0.1566  0.0094
13077TIP3    H160646   2.350   1.354  14.121  0.6905  0.2716  0.8381
13077TIP3    H260647   2.305   1.264  14.234  2.6856 -0.6210  0.9598
13078TIP3   OH260648   0.070   3.503  14.110  0.0381 -0.1096 -0.0378
13078TIP3    H160649   0.113   3.465  14.033  0.2264  3.2657 -1.8065
13078TIP3    H260650  -0.015   3.460  14.114  0.5521 -1.3261 -1.2916
13079TIP3   OH260651   0.425   4.131  11.990  0.1853 -0.3703 -0.7828
13079TIP3    H160652   0.377   4.100  12.066  0.3169  0.7524 -0.2218
13079TIP3    H260653   0.386   4.216  11.970  1.6756  0.4244 -0.5139
13080TIP3   OH260654   0.695   5.772   5.433  0.2635  0.4100  0.6655
13080TIP3    H160655   0.639   5.697   5.457 -1.5503  1.5656  0.2258
13080TIP3    H260656   0.762   5.734   5.376 -0.2091 -0.9849  0.9871
13081TIP3   OH260657   0.752   2.897  11.654 -0.3215 -0.1144 -0.2202
13081TIP3    H160658   0.788   2.865  11.571  2.1441  0.9444  0.3863
13081TIP3    H260659   0.671   2.846  11.665 -0.8417 -0.1558 -3.3290
13082TIP3   OH260660   3.598   2.766   4.333 -0.4255 -0.2001 -0.0584
13082TIP3    H160661   3.650   2.771   4.414  2.0455 -1.2628 -1.4437
13082TIP3    H260662   3.607   2.853   4.294 -1.5994  0.3063  0.7448
13083TIP3   OH260663   2.149   2.945  15.038 -0.1208  0.1308  0.2287
13083TIP3    H160664   2.229   2.966  14.989 -0.0196 -4.0665 -1.8807
13083TIP3    H260665   2.181   2.900  15.116 -0.3369 -0.9525 -0.2853
13084TIP3   OH260666   5.055   6.144  15.654  0.1046  0.1991  0.0136
13084TIP3    H160667   5.030   6.184  15.737  0.6503 -0.4062  0.4756
13084TIP3    H260668   5.090   6.216  15.602  0.9860  0.3689  0.8036
13085TIP3   OH260669   6.677   2.639   2.295  0.1915 -0.1073 -0.4193
13085TIP3    H160670   6.599   2.667   2.247 -0.1851 -0.3568  0.0475
13085TIP3    H260671   6.720   2.721   2.320 -0.4791  0.0447  0.2352
13086TIP3   OH260672   0.350   0.968  11.468  0.3815 -0.1653  0.4303
13086TIP3    H160673   0.333   0.949  11.376 -0.7588  1.2582  0.3035
13086TIP3    H260674   0.435   1.011  11.468 -0.1727  0.9828 -0.1555
13087TIP3   OH260675   2.762   3.172  14.840 -0.6954  0.0314  0.2184
13087TIP3    H160676   2.668   3.174  14.827 -0.5127  1.2771 -1.2001
13087TIP3    H260677   2.778   3.237  14.909 -1.0821 -2.2376  2.6092
13088TIP3   OH260678   5.731   1.314   0.024  0.2526  0.6171  0.1767
13088TIP3    H160679   5.792   1.258  -0.025  1.7263  2.5664 -0.3464
13088TIP3    H260680   5.699   1.258   0.095  0.5758 -1.2816 -1.0805
13089TIP3   OH260681   0.041   4.597  15.746 -0.5335 -0.3525  0.3381
13089TIP3    H160682   0.132   4.626  15.751 -0.7826  1.2319 -2.3088
13089TIP3    H260683   0.019   4.572  15.836  2.5542 -1.0629  1.0184
13090TIP3   OH260684   2.717   3.522   0.092  0.4567 -0.1465  0.0385
13090TIP3    H160685   2.673   3.438   0.082  0.7902 -0.3254  0.0513
13090TIP3    H260686   2.783   3.507   0.160 -0.7435  0.6256  1.4430
13091TIP3   OH260687   1.337   3.760   5.935  0.1317 -0.1202 -0.3342
13091TIP3    H160688   1.420   3.712   5.928 -0.4407 -1.0934 -0.5343
13091TIP3    H260689   1.300   3.756   5.847  0.3552  1.2255 -0.5112
13092TIP3   OH260690   3.477   5.038   3.666  0.1711  0.6861 -0.1473
13092TIP3    H160691   3.479   4.974   3.594 -0.8885  0.3770  0.0818
13092TIP3    H260692   3.560   5.085   3.658  1.1877 -1.0044 -0.0686
13093TIP3   OH260693   5.670   5.075  15.813 -0.0200  0.3886  0.1272
13093TIP3    H160694   5.730   5.081  15.888 -1.1560  0.4367  1.0781
13093TIP3    H260695   5.715   5.119  15.742  0.4630  1.7619  1.2395
13094TIP3   OH260696   4.539   3.147  15.452 -0.9016 -0.1501  0.0848
13094TIP3    H160697   4.478   3.084  15.490 -1.3664 -0.4710 -1.1381
13094TIP3    H260698   4.625   3.120  15.486 -1.2088 -0.8766  0.3078
13095TIP3   OH260699   4.449   2.272   6.224  0.3470  0.0815 -0.4132
13095TIP3    H160700   4.453   2.251   6.317  0.3837 -0.4490 -0.5289
13095TIP3    H260701   4.420   2.191   6.183 -1.1349  0.7236 -0.7212
13096TIP3   OH260702   3.764   3.957   1.432 -0.5386  0.2476 -0.3372
13096TIP3    H160703   3.787   3.864   1.430  0.2332  0.3984  0.5148
13096TIP3    H260704   3.845   4.001   1.459 -1.3799  0.9619  1.1725
13097TIP3   OH260705   6.348   5.462   4.840 -0.3047 -0.1676 -0.7096
13097TIP3    H160706   6.358   5.395   4.773 -3.8745  0.5616 -2.1808
13097TIP3    H260707   6.437   5.497   4.852  0.9989 -2.4790 -2.6615
13098TIP3   OH260708   0.654   6.290   3.119  0.4820  0.3536  0.2797
13098TIP3    H160709   0.702   6.361   3.077 -0.3477  1.0351  0.4442
13098TIP3    H260710   0.631   6.230   3.048 -0.9597  1.5237 -0.2940
13099TIP3   OH260711   5.747   4.524  14.566  0.5011  0.3439  0.2285
13099TIP3    H160712   5.702   4.582  14.628 -0.0265 -0.4566  0.6222
13099TIP3    H260713   5.683   4.509  14.496 -1.0912 -3.0453  2.1376
13100TIP3   OH260714   2.231   2.362  13.290  0.1906 -0.2277 -0.2112
13100TIP3    H160715   2.175   2.291  13.260  0.7367 -0.8666  0.2526
13100TIP3    H260716   2.254   2.410  13.211 -1.2067  0.2065 -0.3899
13101TIP3   OH260717   1.279   4.663   5.663 -0.0651  0.2846 -0.2160
13101TIP3    H160718   1.305   4.744   5.621  1.4022 -0.5294 -0.9277
13101TIP3    H260719   1.199   4.686   5.712 -0.6947  1.7138 -1.8178
13102TIP3   OH260720   4.710   5.884  14.037 -0.0720  0.1733 -0.4247
13102TIP3    H160721   4.657   5.917  13.965  0.0117 -1.2563 -1.1644
13102TIP3    H260722   4.787   5.941  14.038  0.7080 -0.7377 -2.5434
13103TIP3   OH260723   2.833   1.966  17.048  0.1764  0.0055 -0.8757
13103TIP3    H160724   2.801   1.992  17.135  0.7217 -0.8966 -0.3957
13103TIP3    H260725   2.755   1.963  16.994 -0.1990  0.3744 -0.3677
13104TIP3   OH260726   2.196   2.445  12.749 -0.2652 -0.2576 -0.4600
13104TIP3    H160727   2.249   2.367  12.732  0.6512  0.0444  0.8971
13104TIP3    H260728   2.247   2.518  12.715 -0.0540 -0.0261  0.3329
13105TIP3   OH260729   5.585   1.531   1.514 -0.0852 -0.2807  0.2775
13105TIP3    H160730   5.525   1.571   1.452  0.3584 -1.2183 -0.7780
13105TIP3    H260731   5.540   1.452   1.545 -0.7703  0.7290  2.0142
13106TIP3   OH260732   1.738   0.840   4.369 -0.2782  0.1473 -0.2198
13106TIP3    H160733   1.673   0.780   4.331 -1.7517  1.3145  0.3555
13106TIP3    H260734   1.727   0.921   4.320 -0.3422  0.8427  0.9206
13107TIP3   OH260735   4.878   3.443  16.758 -0.1558 -0.4474 -0.1486
13107TIP3    H160736   4.824   3.412  16.831  0.1852 -1.3205 -0.2555
13107TIP3    H260737   4.959   3.473  16.799 -0.4663  0.2753 -0.0503
13108TIP3   OH260738   5.029   3.045   3.470 -0.3574 -0.4461 -0.0785
13108TIP3    H160739   5.124   3.039   3.469 -0.3375 -0.1020 -0.8657
13108TIP3    H260740   5.005   3.059   3.379 -1.1224  0.1675  0.2062
13109TIP3   OH260741   3.815   3.627  16.508 -0.2239  0.0391  0.4604
13109TIP3    H160742   3.814   3.532  16.523 -1.7068  0.1795  1.4933
13109TIP3    H260743   3.783   3.637  16.418  0.1994 -0.4406  0.2469
13110TIP3   OH260744   1.799   2.150   4.289 -0.4793 -0.3418 -0.3473
13110TIP3    H160745   1.783   2.230   4.238 -0.7735  0.4634  0.9550
13110TIP3    H260746   1.894   2.150   4.302 -0.5106 -0.0208 -0.0885
13111TIP3   OH260747   0.692   5.255  12.689  0.3074  0.1590 -0.1820
13111TIP3    H160748   0.761   5.190  12.676  0.9017  0.6578  0.4023
13111TIP3    H260749   0.615   5.217  12.647  1.1923  0.0597 -1.7841
13112TIP3   OH260750   4.319   5.689  10.593 -0.1477  0.1739  0.1986
13112TIP3    H160751   4.366   5.741  10.528  0.6880 -0.8939 -0.0776
13112TIP3    H260752   4.229   5.722  10.590 -0.2634 -0.2123 -1.8992
13113TIP3   OH260753   2.280   5.198  15.414 -0.5301 -0.2090 -0.4086
13113TIP3    H160754   2.349   5.258  15.387  0.3314 -0.5941  0.8521
13113TIP3    H260755   2.293   5.120  15.361  0.8505 -0.7792  0.7038
13114TIP3   OH260756   3.782   1.327  12.282 -0.0776  0.7278 -0.2207
13114TIP3    H160757   3.717   1.315  12.213  0.4423  0.1202 -0.6189
13114TIP3    H260758   3.733   1.366  12.355 -1.7349 -2.7962  0.7837
13115TIP3   OH260759   2.176   5.393  16.232 -0.5165  0.1098 -0.3958
13115TIP3    H160760   2.162   5.421  16.141  0.6689  2.0283 -0.0350
13115TIP3    H260761   2.131   5.309  16.238 -1.6712  0.5179 -2.4223
13116TIP3   OH260762   6.032   5.244  15.525 -0.2749 -0.1598  0.1274
13116TIP3    H160763   6.111   5.215  15.480  0.4365  0.9878  0.6039
13116TIP3    H260764   6.012   5.173  15.587  0.8174 -0.1260  0.5316
13117TIP3   OH260765   1.262   3.733  14.974 -0.2537 -0.2397  0.9212
13117TIP3    H160766   1.309   3.658  15.009 -2.4161 -3.0998 -1.6877
13117TIP3    H260767   1.183   3.740  15.028  1.1003  1.9757  2.7800
13118TIP3   OH260768   5.185   0.940   5.548 -0.0217 -0.1041 -0.3878
13118TIP3    H160769   5.196   0.848   5.525  1.2584 -0.1840  0.4838
13118TIP3    H260770   5.268   0.981   5.524 -0.5840  0.8404 -0.7706
13119TIP3   OH260771   6.196   1.801   1.579  0.5147 -0.4644 -0.0367
13119TIP3    H160772   6.245   1.719   1.583  0.4520 -0.5486 -0.8079
13119TIP3    H260773   6.184   1.817   1.485  1.7090  1.1241  0.0411
13120TIP3   OH260774   0.411   3.234  16.995  0.0970  0.3132 -0.1961
13120TIP3    H160775   0.455   3.168  16.942 -0.5827  0.2171 -0.6516
13120TIP3    H260776   0.318   3.213  16.988 -0.0049  0.1502  1.2260
13121TIP3   OH260777   3.813   2.094   0.983 -0.0138  0.3363  0.4858
13121TIP3    H160778   3.881   2.031   1.006 -0.8921 -0.1073  1.9648
13121TIP3    H260779   3.854   2.150   0.917  1.0284 -1.2946 -0.3162
13122TIP3   OH260780   0.819   0.938  10.906  0.1168  0.4088  0.4535
13122TIP3    H160781   0.865   1.019  10.885  0.1900  0.1052 -0.6247
13122TIP3    H260782   0.835   0.881  10.831 -3.5177  0.9014 -0.9080
13123TIP3   OH260783   3.666   6.318   4.699  0.5708 -0.1924  0.1918
13123TIP3    H160784   3.593   6.278   4.747 -0.4313  1.9698  0.6003
13123TIP3    H260785   3.637   6.407   4.681  2.4940  0.2477 -1.0839
13124TIP3   OH260786   2.462   1.118  15.127  0.2695 -0.0695  0.1198
13124TIP3    H160787   2.521   1.093  15.198 -0.8038 -1.6408  0.4984
13124TIP3    H260788   2.384   1.065  15.141 -1.0471  1.5886 -0.6658
13125TIP3   OH260789   3.825   1.213   0.212  0.5559  0.0435 -0.2620
13125TIP3    H160790   3.876   1.211   0.293 -1.3221 -0.6302  0.9629
13125TIP3    H260791   3.792   1.124   0.202 -0.3139  0.4365 -1.0586
13126TIP3   OH260792   6.228   0.600  16.607 -0.1435 -0.0638  0.3268
13126TIP3    H160793   6.152   0.643  16.646 -2.0946 -2.3272 -0.6713
13126TIP3    H260794   6.271   0.668  16.556 -0.2397  1.7986  2.5632
13127TIP3   OH260795   2.321   0.360  13.306  0.5774  0.6686 -0.3314
13127TIP3    H160796   2.299   0.277  13.265  1.0180  0.9936 -1.2625
13127TIP3    H260797   2.374   0.336  13.382 -1.6119 -0.0276  1.0452
13128TIP3   OH260798   5.539   6.383  15.946 -0.0072  0.0013 -0.1591
13128TIP3    H160799   5.541   6.467  15.901 -1.2701 -0.1576 -0.5515
13128TIP3    H260800   5.490   6.325  15.888  0.7611 -0.9920  0.1481
13129TIP3   OH260801   0.118   5.599   1.295  0.4926  0.0192 -0.1022
13129TIP3    H160802   0.047   5.589   1.232  0.2572  2.2070 -0.2611
13129TIP3    H260803   0.192   5.553   1.256 -0.1344 -0.1685 -1.0998
13130TIP3   OH260804   0.311   1.727  12.361  0.1168  0.3242 -0.2703
13130TIP3    H160805   0.262   1.807  12.379  2.3576  1.5534  0.8106
13130TIP3    H260806   0.330   1.691  12.448  0.6942 -0.3712 -0.6733
13131TIP3   OH260807   1.645   1.064  16.272 -0.1012 -0.2766  0.1188
13131TIP3    H160808   1.666   1.019  16.190 -0.2316 -1.8542  0.9088
13131TIP3    H260809   1.702   1.141  16.272 -0.9133  0.4153 -1.9776
13132TIP3   OH260810   2.301   6.204   0.873  0.3886  0.1084  0.0095
13132TIP3    H160811   2.332   6.203   0.963  0.1787 -1.3226  0.0862
13132TIP3    H260812   2.266   6.116   0.858 -0.0463  0.4744 -1.3067
13133TIP3   OH260813   1.329   5.723  15.445  1.3910  0.1709  0.0281
13133TIP3    H160814   1.286   5.652  15.398  0.5606  0.0887  0.8838
13133TIP3    H260815   1.377   5.772  15.377  0.1485  0.1199 -0.9164
13134TIP3   OH260816   3.524   0.315  13.190  0.1381 -0.5830 -0.1102
13134TIP3    H160817   3.449   0.374  13.194 -0.7642 -1.7367  2.6315
13134TIP3    H260818   3.514   0.269  13.107 -1.5040  0.1709 -0.3586
13135TIP3   OH260819   1.273   6.267  16.700  0.8396 -0.2842 -0.1555
13135TIP3    H160820   1.306   6.294  16.786  0.3769 -0.7090  0.1606
13135TIP3    H260821   1.184   6.303  16.697  1.3109  0.8581 -0.9984
13136TIP3   OH260822   1.055   0.404   5.811  0.2798  0.0074 -0.1228
13136TIP3    H160823   1.103   0.469   5.863  1.7091 -0.9270 -0.2235
13136TIP3    H260824   1.023   0.341   5.876  1.5422 -0.8274 -0.2693
13137TIP3   OH260825   0.003   0.618  15.777  0.7179 -0.6324  0.4854
13137TIP3    H160826  -0.083   0.575  15.781  0.6301 -0.4671  0.3693
13137TIP3    H260827   0.027   0.632  15.869 -0.6887  1.9195  0.5627
13138TIP3   OH260828   1.550   0.950  11.639 -0.0485 -0.1792  0.7099
13138TIP3    H160829   1.472   0.907  11.674 -1.5460  1.3962 -0.4986
13138TIP3    H260830   1.585   0.889  11.575 -1.2787 -0.2341  0.0616
13139TIP3   OH260831   1.598   4.847  16.185 -0.1394  0.7006  0.2293
13139TIP3    H160832   1.690   4.828  16.167 -0.2464 -2.6972  2.4606
13139TIP3    H260833   1.551   4.769  16.157 -1.8947  0.9957  2.1413
13140TIP3   OH260834   0.710   1.296  14.082 -0.3342 -0.2019  0.5752
13140TIP3    H160835   0.653   1.264  14.152 -3.1684 -0.7677 -1.8233
13140TIP3    H260836   0.676   1.383  14.061  0.7792  0.1562  0.1969
13141TIP3   OH260837   6.721   2.685   4.105 -0.5292  0.3201 -0.3639
13141TIP3    H160838   6.808   2.659   4.135 -1.5877 -2.3424  0.6963
13141TIP3    H260839   6.704   2.768   4.149  1.2077  0.5410 -0.0640
13142TIP3   OH260840   3.312   1.597   6.397  0.0723 -0.0033 -0.0929
13142TIP3    H160841   3.365   1.519   6.410 -0.0654 -0.1102 -0.1715
13142TIP3    H260842   3.227   1.576   6.436  0.6330  0.8282  1.6909
13143TIP3   OH260843   0.724   1.864  16.374 -0.3423  0.0319  0.2693
13143TIP3    H160844   0.667   1.917  16.431  0.4710  0.4728  0.6944
13143TIP3    H260845   0.811   1.870  16.415 -0.2237 -1.6361  0.3286
13144TIP3   OH260846   4.423   3.378   1.536 -0.0836  0.6295  0.8991
13144TIP3    H160847   4.385   3.414   1.616  0.3801  3.0575  0.1185
13144TIP3    H260848   4.478   3.449   1.501 -1.7104  0.4490 -2.5109
13145TIP3   OH260849   4.982   0.381   0.832 -0.2674 -0.4337 -0.0938
13145TIP3    H160850   5.077   0.365   0.834 -0.5692 -2.5534  1.1996
13145TIP3    H260851   4.973   0.475   0.821  2.0222 -0.0491  0.7839
13146TIP3   OH260852   6.475   6.003  12.856  0.6085  0.1686  0.8785
13146TIP3    H160853   6.505   6.029  12.944 -2.2526  1.0622  1.7055
13146TIP3    H260854   6.461   5.908  12.863 -0.1068  0.3144  1.5899
13147TIP3   OH260855   2.312   6.010  16.849  0.7994  0.1556  0.4147
13147TIP3    H160856   2.394   5.973  16.817  0.5014  0.0616 -0.2476
13147TIP3    H260857   2.271   5.939  16.898 -0.2658 -0.7816 -1.7205
13148TIP3   OH260858   4.585   4.999   3.166  0.4825 -0.1006 -0.2297
13148TIP3    H160859   4.546   4.975   3.082 -3.6693  0.1675  1.3818
13148TIP3    H260860   4.567   4.925   3.223  0.1255  1.0692  1.2464
13149TIP3   OH260861   4.988   3.785  12.456  0.1011 -0.1214 -0.6558
13149TIP3    H160862   4.937   3.715  12.497 -0.2090  0.4841  0.0043
13149TIP3    H260863   5.002   3.754  12.366 -1.2381 -0.4174 -0.7922
13150TIP3   OH260864   4.045   3.583   2.301 -0.3240  0.0826 -0.4845
13150TIP3    H160865   3.996   3.634   2.365 -0.9683 -1.7901  0.5826
13150TIP3    H260866   4.009   3.610   2.216 -1.8667  0.1566  0.1659
13151TIP3   OH260867   0.367   6.280  10.577  0.4203  0.6801 -0.4062
13151TIP3    H160868   0.298   6.345  10.590 -0.2999 -0.2342  0.4755
13151TIP3    H260869   0.351   6.214  10.644  1.3571 -0.2250 -1.0433
13152TIP3   OH260870   2.495   4.673   5.578  0.0861 -0.2956  0.1382
13152TIP3    H160871   2.543   4.603   5.622 -0.7373 -0.7415  0.3539
13152TIP3    H260872   2.415   4.682   5.629  0.7678  1.7500  0.9394
13153TIP3   OH260873   0.693   5.378   3.263  0.5239  0.5045 -0.3612
13153TIP3    H160874   0.643   5.303   3.296 -1.3548  1.2144 -1.4433
13153TIP3    H260875   0.784   5.358   3.287 -0.1633 -1.1349  1.1586
13154TIP3   OH260876   5.050   4.634   3.575 -0.6138  0.5034 -0.1735
13154TIP3    H160877   5.068   4.679   3.493 -0.1524 -1.3901 -1.1520
13154TIP3    H260878   4.960   4.658   3.597 -0.9152  0.6476 -1.4966
13155TIP3   OH260879   4.917   5.602   2.195 -0.0124  0.5184  0.1217
13155TIP3    H160880   4.904   5.613   2.101  0.5046 -0.5395 -0.0982
13155TIP3    H260881   4.880   5.681   2.235 -2.4677 -0.1001 -0.7733
13156TIP3   OH260882   2.405   3.425  13.797 -0.4957  0.4936  0.3652
13156TIP3    H160883   2.489   3.470  13.803 -0.4607  0.3458  1.1274
13156TIP3    H260884   2.420   3.354  13.735 -0.4603  1.3232 -0.5951
13157TIP3   OH260885   1.066   4.408   1.293  0.0053  0.2757 -0.0775
13157TIP3    H160886   0.971   4.398   1.292 -0.4233  3.2273 -0.1138
13157TIP3    H260887   1.095   4.372   1.210 -1.4969  1.8385 -1.3538
13158TIP3   OH260888   6.182   2.125  12.317 -0.2925  0.0885  0.4174
13158TIP3    H160889   6.264   2.100  12.361 -0.0949  2.0302  1.2633
13158TIP3    H260890   6.190   2.089  12.229  1.6503  0.5076  0.3769
13159TIP3   OH260891   3.948   2.397  13.123  0.0752  0.6764 -0.0754
13159TIP3    H160892   3.952   2.483  13.081  0.5938  1.1498  0.9258
13159TIP3    H260893   3.855   2.386  13.145 -0.1447  0.5811 -0.9753
13160TIP3   OH260894   2.049   2.518   0.731 -0.0637  0.0507 -0.1085
13160TIP3    H160895   2.052   2.613   0.719 -2.0312  0.3298  1.1776
13160TIP3    H260896   1.983   2.505   0.799  1.0677 -2.1746  0.6366
13161TIP3   OH260897   1.951   1.618  13.166  0.5012 -0.0951 -0.0609
13161TIP3    H160898   1.870   1.618  13.115 -0.1983  1.8455  0.9549
13161TIP3    H260899   2.005   1.686  13.126  1.5314 -1.1303 -0.5044
13162TIP3   OH260900   6.589   5.019  13.027  0.5738 -0.0273  0.3325
13162TIP3    H160901   6.506   5.022  13.076  0.8419  1.6936  0.7465
13162TIP3    H260902   6.655   5.049  13.089  1.5168 -1.2234 -0.0414
13163TIP3   OH260903   5.326   0.630  15.758 -0.3323 -0.2715 -0.0925
13163TIP3    H160904   5.350   0.723  15.760  0.1874 -0.2108 -3.3920
13163TIP3    H260905   5.235   0.629  15.728 -0.0931 -0.8049 -0.8470
13164TIP3   OH260906   3.711   3.310  15.680  0.3456 -0.0019  0.6496
13164TIP3    H160907   3.732   3.384  15.622  0.3924 -0.8669 -0.4528
13164TIP3    H260908   3.785   3.251  15.670 -1.2031 -1.7740 -1.0949
13165TIP3   OH260909   5.074   0.394  12.065 -0.0514  0.1218  0.5344
13165TIP3    H160910   5.166   0.378  12.046 -0.6292 -1.8335 -0.9914
13165TIP3    H260911   5.047   0.320  12.119 -0.3001  1.7496  2.7867
13166TIP3   OH260912   3.391   6.675  17.108 -0.1635 -0.4836 -0.2035
13166TIP3    H160913   3.459   6.662  17.042  0.5106  1.0831  0.1504
13166TIP3    H260914   3.356   6.587  17.124 -0.9701 -0.8275 -3.2695
13167TIP3   OH260915   3.725   6.221   5.844 -0.4276 -0.8483 -0.6864
13167TIP3    H160916   3.640   6.180   5.859 -0.5572 -0.8226 -1.3611
13167TIP3    H260917   3.709   6.286   5.776  0.0233 -0.4811 -0.4461
13168TIP3   OH260918   0.986   3.068   1.577  0.3666  0.2956  0.0835
13168TIP3    H160919   0.944   3.066   1.663  0.6516 -0.4335  0.2132
13168TIP3    H260920   0.918   3.101   1.518  0.2638  1.0961  0.6326
13169TIP3   OH260921   2.423   3.519   2.934  0.3403 -0.6228  0.4967
13169TIP3    H160922   2.387   3.461   3.001  0.8885 -1.4797  0.0565
13169TIP3    H260923   2.409   3.473   2.852  0.8584 -0.1674  0.1509
13170TIP3   OH260924   4.328   0.390   6.581  0.1839  0.0898  0.3920
13170TIP3    H160925   4.330   0.475   6.625 -0.5819  0.4622 -0.2823
13170TIP3    H260926   4.342   0.327   6.652  1.3179  0.7832  0.8283
13171TIP3   OH260927   4.022   1.998  12.154  0.2394 -0.0947  0.1460
13171TIP3    H160928   4.065   2.082  12.169  0.6837 -0.2341 -0.2981
13171TIP3    H260929   4.084   1.950  12.098  0.3963 -1.0560  1.1157
13172TIP3   OH260930   2.872   1.912  12.318 -0.0481 -0.0685 -0.2194
13172TIP3    H160931   2.944   1.849  12.314 -1.0666 -1.3113  0.2968
13172TIP3    H260932   2.803   1.868  12.368 -1.2171  1.0437 -0.7592
13173TIP3   OH260933   1.049   1.053  13.185  0.3834  0.2616 -0.3859
13173TIP3    H160934   0.963   1.031  13.220  0.7253 -0.2640  0.1189
13173TIP3    H260935   1.029   1.096  13.101 -0.3589 -0.0478 -0.3785
13174TIP3   OH260936   3.210   6.540   3.674  0.5750 -0.2458  0.1147
13174TIP3    H160937   3.259   6.619   3.696 -0.2212  0.1287  0.6039
13174TIP3    H260938   3.191   6.499   3.759 -1.8760  0.8089  0.1537
13175TIP3   OH260939   2.235   3.221  12.262  0.3095  0.1958 -0.0156
13175TIP3    H160940   2.253   3.275  12.339  1.9359 -0.4503  0.0893
13175TIP3    H260941   2.219   3.134  12.296 -0.7744  0.2688 -0.3000
13176TIP3   OH260942   3.441   5.212  13.434 -0.3474  0.4597 -0.5157
13176TIP3    H160943   3.445   5.213  13.529 -2.2572 -0.6305 -0.3571
13176TIP3    H260944   3.466   5.300  13.407 -2.5686  1.7111  1.2039
13177TIP3   OH260945   5.112   0.654   2.030  0.5527  0.8172  0.2574
13177TIP3    H160946   5.138   0.613   1.947  3.1129  2.0981  0.3086
13177TIP3    H260947   5.174   0.726   2.041  0.5120  0.5009  3.4578
13178TIP3   OH260948   5.754   0.924   4.994  0.0751 -0.3023  0.3544
13178TIP3    H160949   5.738   1.000   5.050  1.6029  0.4477 -0.1521
13178TIP3    H260950   5.675   0.916   4.941 -0.9495 -0.3674  1.8364
13179TIP3   OH260951   1.061   0.170  11.958  0.2827  0.3093  0.8575
13179TIP3    H160952   1.009   0.247  11.981 -2.6968 -1.2886  0.0620
13179TIP3    H260953   1.046   0.158  11.864 -1.3547 -2.4459  1.3220
13180TIP3   OH260954   4.659   2.749  14.881  0.0396 -0.1216 -0.4797
13180TIP3    H160955   4.747   2.734  14.847 -0.6921 -1.2747 -2.0060
13180TIP3    H260956   4.608   2.675  14.849 -0.8330 -1.1948  2.9850
13181TIP3   OH260957   6.585   3.496  13.923 -0.7240 -0.3621  0.0814
13181TIP3    H160958   6.494   3.502  13.953 -0.4127 -0.4024  1.0848
13181TIP3    H260959   6.617   3.413  13.959 -0.2062 -0.2085 -0.0132
13182TIP3   OH260960   5.974   2.953  15.941  0.1513  0.2159  0.5371
13182TIP3    H160961   5.980   2.892  15.868 -0.3148 -0.2493  0.8790
13182TIP3    H260962   6.049   2.933  15.997 -0.8299 -1.1102  1.4385
13183TIP3   OH260963   3.380   0.345   0.512  0.7031  0.1946  0.2359
13183TIP3    H160964   3.328   0.276   0.553  2.0984 -0.7924  0.3850
13183TIP3    H260965   3.320   0.420   0.509  0.7265  0.6967  4.9631
13184TIP3   OH260966   3.044   6.165   2.826 -0.9079  0.2108 -0.4889
13184TIP3    H160967   2.999   6.179   2.742 -2.1128  1.3794  0.3061
13184TIP3    H260968   2.988   6.105   2.874  0.1986 -1.1238 -0.7819
13185TIP3   OH260969   0.104   2.497   2.958 -0.4017  0.1253 -0.1316
13185TIP3    H160970   0.181   2.551   2.974 -0.3235  0.1380 -0.5249
13185TIP3    H260971   0.087   2.453   3.041 -0.9252  1.3440  0.4297
13186TIP3   OH260972   2.852   2.372  16.798 -0.2847  0.1287 -0.2492
13186TIP3    H160973   2.795   2.297  16.814 -0.8277  0.2410 -1.5283
13186TIP3    H260974   2.865   2.411  16.885 -1.5938 -0.3010  0.1648
13187TIP3   OH260975   4.393   5.069  15.166 -0.5933 -0.3724  0.3750
13187TIP3    H160976   4.415   5.004  15.233  2.5554 -0.1912 -0.2908
13187TIP3    H260977   4.438   5.148  15.195 -2.5213  0.9038  0.0256
13188TIP3   OH260978   3.849   5.896   4.944  0.6215 -0.6553 -0.7321
13188TIP3    H160979   3.910   5.968   4.925  1.4481 -1.2532 -0.4058
13188TIP3    H260980   3.763   5.930   4.919  0.7416  1.0637  1.0066
13189TIP3   OH260981   3.362   2.943  12.625  0.5984 -0.2206 -0.4941
13189TIP3    H160982   3.310   2.964  12.702 -0.0032 -0.8766 -0.7053
13189TIP3    H260983   3.361   2.847  12.621  0.9065 -0.2035 -1.1203
13190TIP3   OH260984   5.187   4.638  15.716  0.4994  0.1827  0.0320
13190TIP3    H160985   5.095   4.661  15.700 -0.3100 -0.2263  3.2972
13190TIP3    H260986   5.232   4.723  15.722 -0.3045  0.5426  1.3745
13191TIP3   OH260987   0.968   5.847   3.401  0.1499  0.0449  0.2297
13191TIP3    H160988   1.000   5.772   3.451 -2.1256 -1.7943 -0.8436
13191TIP3    H260989   0.889   5.876   3.448  1.0275  1.8742  0.6711
13192TIP3   OH260990   1.232   4.884  13.067 -0.1761  0.5787  0.0648
13192TIP3    H160991   1.279   4.909  13.146  0.6391 -0.8143  0.0545
13192TIP3    H260992   1.301   4.868  13.002 -0.5144 -2.1040  0.2173
13193TIP3   OH260993   3.125   3.174  15.698 -0.0651 -0.0567  0.1546
13193TIP3    H160994   3.185   3.154  15.770 -1.3881 -1.4701  0.9147
13193TIP3    H260995   3.051   3.217  15.739  0.1570  1.1990 -0.7043
13194TIP3   OH260996   5.899   3.476   3.254  0.4337  0.1661  0.3030
13194TIP3    H160997   5.914   3.447   3.344 -1.4787 -0.2387  0.5500
13194TIP3    H260998   5.943   3.411   3.200  2.3680  0.9041  0.9226
13195TIP3   OH260999   1.255   5.332   0.411 -0.2504  0.2559 -0.4859
13195TIP3    H161000   1.215   5.245   0.404 -2.0038  1.0355 -0.4896
13195TIP3    H261001   1.207   5.386   0.349  1.5146  1.0194 -1.2517
13196TIP3   OH261002   6.660   1.876  17.256 -0.2151 -0.1646 -0.0372
13196TIP3    H161003   6.593   1.941  17.278 -0.8565 -0.8768  0.1548
13196TIP3    H261004   6.715   1.870  17.334 -1.1209 -1.0116  0.5665
13197TIP3   OH261005   4.839   5.556   5.637 -0.0503  0.9828  0.6131
13197TIP3    H161006   4.834   5.649   5.613 -0.4968  0.5660 -1.1028
13197TIP3    H261007   4.932   5.540   5.652  0.3961  1.2038 -1.5431
13198TIP3   OH261008   5.908   5.421   5.564  0.4804  0.0612  0.7081
13198TIP3    H161009   5.888   5.423   5.658  1.9842  1.7296  1.0633
13198TIP3    H261010   5.980   5.358   5.557  1.1817  0.8260  0.8901
13199TIP3   OH261011   1.462   2.808  16.349 -1.0759 -0.1765  0.2142
13199TIP3    H161012   1.445   2.776  16.437  1.3627 -0.2539  0.7244
13199TIP3    H261013   1.529   2.749  16.315  0.3901  1.7718 -0.4495
13200TIP3   OH261014   2.280   0.636   5.682 -0.3921  0.4821  0.4200
13200TIP3    H161015   2.194   0.601   5.703  0.7806 -1.7808  1.9161
13200TIP3    H261016   2.299   0.697   5.754 -0.3560  0.2315  0.6249
13201TIP3   OH261017   2.110   5.363  12.581 -0.5673 -0.9338 -0.1443
13201TIP3    H161018   2.163   5.291  12.549  1.2931 -0.4137  1.5443
13201TIP3    H261019   2.135   5.438  12.527  0.7239 -0.6187  0.8454
13202TIP3   OH261020   4.248   6.032   5.112  0.6381  0.1840 -0.1202
13202TIP3    H161021   4.295   5.981   5.046  2.2720  0.3119  0.9075
13202TIP3    H261022   4.200   6.098   5.060  2.6337  0.8936 -1.1586
13203TIP3   OH261023   0.072   1.022   0.454 -0.7173  0.0753  0.4684
13203TIP3    H161024   0.093   0.932   0.428 -0.9425 -0.1709  1.1353
13203TIP3    H261025   0.100   1.075   0.379 -1.0651 -0.5937 -0.1418
13204TIP3   OH261026   0.172   4.361   2.025 -0.4547  0.0559 -0.1947
13204TIP3    H161027   0.106   4.364   1.957 -2.8265 -1.1780  1.8869
13204TIP3    H261028   0.195   4.268   2.033 -0.3274  0.1551  0.7455
13205TIP3   OH261029   2.280   3.085  16.119  0.3103 -0.2395 -0.2367
13205TIP3    H161030   2.293   3.139  16.041  1.4167  0.6375  0.5105
13205TIP3    H261031   2.198   3.116  16.156  1.4585  1.8298  0.7972
13206TIP3   OH261032   2.011   4.710   2.351  0.2799  0.2968 -0.5734
13206TIP3    H161033   2.082   4.730   2.412  0.8726 -1.6637 -0.5458
13206TIP3    H261034   2.024   4.770   2.278 -0.3130  2.5573  1.0833
13207TIP3   OH261035   0.900   2.807  15.854  0.1748  0.6078  0.2228
13207TIP3    H161036   0.962   2.875  15.829 -1.0970  1.8773  0.3941
13207TIP3    H261037   0.818   2.853  15.868 -0.7834 -0.9975  0.1688
13208TIP3   OH261038   1.256   6.339  11.911 -0.3550  0.4442  0.7374
13208TIP3    H161039   1.349   6.357  11.895 -0.0234  0.2483  2.2487
13208TIP3    H261040   1.238   6.381  11.995 -1.5741  0.2543  0.5895
13209TIP3   OH261041   0.901   6.502  14.046  0.2641  0.1769 -0.1350
13209TIP3    H161042   0.922   6.569  14.112  3.2642  0.1940 -0.9411
13209TIP3    H261043   0.850   6.437  14.094  0.4480  1.2358  1.6198
13210TIP3   OH261044   5.958   0.995  12.309 -0.0814 -0.2692  0.5813
13210TIP3    H161045   5.887   1.056  12.328 -0.0830 -0.3413  0.8164
13210TIP3    H261046   5.949   0.926  12.375  0.3299 -0.1727  0.7408
13211TIP3   OH261047   4.717   6.266   4.253  0.6814 -0.2203 -0.4200
13211TIP3    H161048   4.742   6.352   4.219 -2.3543  0.0833 -2.2634
13211TIP3    H261049   4.758   6.204   4.191  3.1808 -0.2489  1.1210
13212TIP3   OH261050   0.371   6.138   4.531 -0.3217  0.1244  0.3274
13212TIP3    H161051   0.438   6.082   4.492 -0.1122  0.0447  0.7974
13212TIP3    H261052   0.308   6.152   4.460 -0.3919 -0.7227  0.2056
13213TIP3   OH261053   1.638   2.215  11.062 -0.2108  0.1633  0.0377
13213TIP3    H161054   1.639   2.211  11.157 -0.0806  1.3274  0.1005
13213TIP3    H261055   1.699   2.147  11.034 -0.1713 -0.1145  0.7806
13214TIP3   OH261056   6.551   1.551   2.489  0.2284  0.4556  0.3609
13214TIP3    H161057   6.616   1.563   2.558  0.7096 -1.3092  0.2616
13214TIP3    H261058   6.603   1.549   2.408 -0.0114 -0.1835  0.2134
13215TIP3   OH261059   1.834   5.030   6.444  0.2481  0.3560 -0.5764
13215TIP3    H161060   1.773   4.981   6.389 -0.4569  2.2618 -1.5883
13215TIP3    H261061   1.859   4.968   6.513  0.7053 -1.9437 -2.6490
13216TIP3   OH261062   5.123   0.765   4.660 -0.2426  1.0132 -0.2999
13216TIP3    H161063   5.181   0.792   4.589  1.0378  0.0180  0.3314
13216TIP3    H261064   5.049   0.723   4.615 -0.2606  1.8514 -1.0913
13217TIP3   OH261065   1.869   1.294  14.211  0.0953  1.1308 -0.8026
13217TIP3    H161066   1.846   1.267  14.299  1.2154 -0.0306 -0.8464
13217TIP3    H261067   1.789   1.334  14.176  0.0389  2.9840  1.2271
13218TIP3   OH261068   1.028   0.112  11.694  0.2776 -0.5846  0.0832
13218TIP3    H161069   0.968   0.168  11.644  0.9885 -0.6964 -0.9246
13218TIP3    H261070   0.988   0.025  11.690  0.3598 -0.6021 -0.3354
13219TIP3   OH261071   1.938   3.777  13.097 -0.2805 -0.0089 -0.4694
13219TIP3    H161072   1.910   3.861  13.060  1.2380 -0.3603 -2.6323
13219TIP3    H261073   2.018   3.798  13.145 -0.7249 -0.0131  0.2930
13220TIP3   OH261074   6.476   1.897  11.614 -0.4553  0.0015  0.0696
13220TIP3    H161075   6.544   1.902  11.681 -0.5109  1.0100  0.0649
13220TIP3    H261076   6.414   1.833  11.648  1.0767 -1.8915 -0.4911
13221TIP3   OH261077   6.219   0.190  14.431 -0.0338 -0.0085  0.2039
13221TIP3    H161078   6.191   0.267  14.481 -1.7653  0.0393 -0.7434
13221TIP3    H261079   6.234   0.122  14.497 -1.9447  0.1425  0.8794
13222TIP3   OH261080   5.471   3.208  15.462 -0.3627  0.0705 -0.6464
13222TIP3    H161081   5.531   3.203  15.537 -0.0354  2.0300 -0.7382
13222TIP3    H261082   5.515   3.160  15.393  0.4613  0.2997 -0.2932
13223TIP3   OH261083   5.428   1.054  15.608 -0.3615  0.3043  0.1053
13223TIP3    H161084   5.374   1.132  15.599  1.3171  1.5706  0.3401
13223TIP3    H261085   5.499   1.068  15.545  2.4473  1.2539  3.1481
13224TIP3   OH261086   5.704   0.398  16.489  0.3412 -0.2118  0.3617
13224TIP3    H161087   5.732   0.356  16.570 -0.4046 -0.6751  0.3917
13224TIP3    H261088   5.726   0.335  16.420  0.6963  0.0487  0.2374
13225TIP3   OH261089   3.934   0.751   0.008  0.4147 -0.5300 -0.1590
13225TIP3    H161090   3.977   0.814  -0.050 -1.0452 -0.1495 -0.8618
13225TIP3    H261091   4.002   0.685   0.024  1.9557  1.1203  0.5220
13226TIP3   OH261092   0.784   4.846  11.330  0.1535  0.0340 -1.1278
13226TIP3    H161093   0.743   4.760  11.318 -0.6290  0.4804 -1.7276
13226TIP3    H261094   0.877   4.829  11.319  0.3839 -1.3092  1.9514
13227TIP3   OH261095   4.947   2.611  16.881  0.5228  0.3106 -0.3157
13227TIP3    H161096   4.985   2.523  16.889 -0.9774 -0.3602 -0.3377
13227TIP3    H261097   4.999   2.653  16.812  1.4433 -0.4468 -0.1076
13228TIP3   OH261098   4.361   1.130   5.074 -0.9456 -0.0380  0.3094
13228TIP3    H161099   4.410   1.069   5.130  0.6253  1.4950  0.6912
13228TIP3    H261100   4.400   1.215   5.092 -1.5437  0.7559 -1.8988
13229TIP3   OH261101   3.016   1.101  14.224 -0.1861  0.6918 -0.0103
13229TIP3    H161102   3.041   1.176  14.278  0.9144  0.6583 -0.4548
13229TIP3    H261103   3.004   1.138  14.136 -2.7436  0.8948  0.3307
13230TIP3   OH261104   0.606   0.906   0.599  0.2395 -0.1311 -0.1767
13230TIP3    H161105   0.673   0.972   0.620 -0.0667 -0.1958  1.1227
13230TIP3    H261106   0.527   0.956   0.584 -0.1317 -0.1778  1.3759
13231TIP3   OH261107   4.156   3.863   5.890  0.5876  0.4704 -0.3928
13231TIP3    H161108   4.140   3.933   5.825  0.7541  2.4344  1.5587
13231TIP3    H261109   4.069   3.832   5.913  0.5236 -0.1868 -1.4703
13232TIP3   OH261110   5.321   1.892   0.774 -0.0824 -0.2662 -0.1537
13232TIP3    H161111   5.360   1.979   0.764  1.0602 -0.7579 -0.1127
13232TIP3    H261112   5.373   1.850   0.842  0.1794 -1.4189 -1.0349
13233TIP3   OH261113   4.416   3.412   0.325  0.1858  0.2338  0.1031
13233TIP3    H161114   4.511   3.397   0.324  0.3754  1.0047  1.8737
13233TIP3    H261115   4.392   3.420   0.233  1.4938 -1.9175 -0.4906
13234TIP3   OH261116   5.729   4.920  14.560  0.4495  0.2645  0.4128
13234TIP3    H161117   5.815   4.878  14.569  0.7520  0.4687 -1.2299
13234TIP3    H261118   5.719   4.972  14.640  2.2214  0.8683  0.2813
13235TIP3   OH261119   5.977   3.546   0.966  0.0033  0.2294  0.0398
13235TIP3    H161120   5.916   3.538   1.040  0.0432  0.9888  0.1626
13235TIP3    H261121   6.062   3.522   1.004 -0.0561  0.1291  0.1121
13236TIP3   OH261122   4.208   6.695  13.482 -0.1276  0.0804  0.0957
13236TIP3    H161123   4.253   6.697  13.397  0.7586  1.8346  0.5520
13236TIP3    H261124   4.212   6.786  13.513 -2.6501 -0.0121  0.8993
13237TIP3   OH261125   4.480   5.862  11.626  0.0044 -0.3518  0.3433
13237TIP3    H161126   4.445   5.775  11.610 -0.5000  0.1678 -1.7059
13237TIP3    H261127   4.417   5.902  11.686 -1.4798 -0.3898 -1.1102
13238TIP3   OH261128   4.200   1.431   5.283 -0.4496  0.0259  0.3298
13238TIP3    H161129   4.210   1.383   5.200 -1.9598  1.8685 -1.0045
13238TIP3    H261130   4.264   1.501   5.278 -0.9790  0.5248  0.4103
13239TIP3   OH261131   2.413   4.919   5.460 -0.6514 -0.4805  0.1859
13239TIP3    H161132   2.451   4.846   5.509 -0.0893  0.8629  1.8340
13239TIP3    H261133   2.320   4.916   5.481 -0.2918  0.6366  2.2069
13240TIP3   OH261134   0.100   1.550  15.364 -0.0241  0.2153 -0.1933
13240TIP3    H161135   0.149   1.511  15.291 -0.1802  2.4110 -1.5592
13240TIP3    H261136   0.020   1.498  15.369 -0.6075  0.7912 -2.5014
13241TIP3   OH261137   4.821   3.395  12.214  0.0961 -0.8811 -0.2883
13241TIP3    H161138   4.870   3.361  12.289 -1.2109  0.8949  1.4887
13241TIP3    H261139   4.875   3.466  12.180 -0.2710 -0.2750  0.3679
13242TIP3   OH261140   1.887   0.573   3.958  0.0342  0.2691  0.8898
13242TIP3    H161141   1.976   0.588   3.925  0.3346  0.3581  1.7083
13242TIP3    H261142   1.883   0.622   4.040 -1.5634  2.2386 -0.2743
13243TIP3   OH261143   3.600   2.662  11.896 -0.1882 -0.0714 -0.5364
13243TIP3    H161144   3.543   2.674  11.820  1.5647 -0.0475 -1.9104
13243TIP3    H261145   3.671   2.725  11.883  0.3292 -0.3073  0.9626
13244TIP3   OH261146   0.368   5.721  11.034  0.3872 -0.1897  0.5831
13244TIP3    H161147   0.428   5.652  11.006 -0.2512 -0.8439  0.8067
13244TIP3    H261148   0.425   5.797  11.050  1.3467 -1.1631  2.0891
13245TIP3   OH261149   0.911   2.415   6.327 -0.1676  0.6830  0.5610
13245TIP3    H161150   0.983   2.382   6.381 -0.5225  1.0404  1.2631
13245TIP3    H261151   0.929   2.509   6.318 -1.8880  1.3207  2.9334
13246TIP3   OH261152   2.341   1.727   5.114 -0.2923  0.2895  0.3474
13246TIP3    H161153   2.422   1.776   5.130 -0.5052  0.7864 -0.0623
13246TIP3    H261154   2.370   1.639   5.090  0.0749 -0.0553  1.9555
13247TIP3   OH261155   1.749   4.768  11.668  0.8512 -0.2661 -0.4418
13247TIP3    H161156   1.839   4.735  11.679  0.6241 -0.5597  0.7421
13247TIP3    H261157   1.734   4.822  11.746 -0.2418 -0.8111 -0.2519
13248TIP3   OH261158   6.599   0.987  12.880  0.1106 -1.1202 -0.3142
13248TIP3    H161159   6.523   0.961  12.933 -0.0661 -1.4765 -0.7296
13248TIP3    H261160   6.672   0.938  12.917  0.3386 -0.0604  0.6898
13249TIP3   OH261161   4.185   0.190  14.172  0.1177  0.1458  0.2179
13249TIP3    H161162   4.143   0.201  14.086 -2.4371  1.0510  1.4627
13249TIP3    H261163   4.276   0.215  14.159  0.2313 -1.3144 -2.5601
13250TIP3   OH261164   0.970   3.015   4.747  0.6804 -0.0317  0.1900
13250TIP3    H161165   1.045   3.074   4.747 -1.3753  2.7809  0.9348
13250TIP3    H261166   0.981   2.962   4.826  1.5813  0.7465  0.5956
13251TIP3   OH261167   2.470   0.058   1.134  0.4717  0.4070 -0.1842
13251TIP3    H161168   2.379   0.059   1.104  0.2969 -1.2476  0.1634
13251TIP3    H261169   2.488  -0.035   1.151  1.5566  0.9109  1.7436
13252TIP3   OH261170   0.036   5.775   4.300  0.4970  0.7314 -0.1012
13252TIP3    H161171  -0.023   5.844   4.329 -0.3775  0.5007 -1.2699
13252TIP3    H261172  -0.004   5.741   4.220  0.6705 -1.3953  0.6474
13253TIP3   OH261173   4.756   0.026  11.410 -0.2228  0.4396 -0.2480
13253TIP3    H161174   4.735   0.006  11.501 -2.1703  1.6255 -0.3788
13253TIP3    H261175   4.781  -0.058  11.371 -0.7284 -0.3275  1.0362
13254TIP3   OH261176   4.310   3.337  16.126  0.1638  0.9428  0.2796
13254TIP3    H161177   4.295   3.269  16.061 -0.2941  0.8768  0.4514
13254TIP3    H261178   4.399   3.322  16.156 -0.0301  0.2481  0.5205
13255TIP3   OH261179   3.967   0.354   5.935  0.5947 -0.1531  0.8856
13255TIP3    H161180   3.952   0.264   5.964 -1.4671  0.1576  0.9002
13255TIP3    H261181   4.053   0.351   5.891  0.6145 -2.0837  0.9729
13256TIP3   OH261182   5.485   3.348   4.866 -0.4031  0.4960  0.1664
13256TIP3    H161183   5.567   3.352   4.815 -0.8291 -1.7237 -0.7902
13256TIP3    H261184   5.504   3.399   4.944  1.6108  0.7696 -0.4229
13257TIP3   OH261185   0.518   1.286   2.575  0.3243 -0.2513 -0.4705
13257TIP3    H161186   0.514   1.353   2.644  0.4024 -0.1488 -0.5662
13257TIP3    H261187   0.533   1.205   2.623  0.0332 -0.2289 -0.3388
13258TIP3   OH261188   6.126   3.801  13.304  0.6990  0.0650 -0.5018
13258TIP3    H161189   6.132   3.739  13.231  1.5705  1.2070 -1.4514
13258TIP3    H261190   6.123   3.887  13.261  0.7949  0.7422  0.8113
13259TIP3   OH261191   3.669   0.478  17.043  0.7792  0.5292 -0.2515
13259TIP3    H161192   3.625   0.417  17.102  0.5308  1.8027  0.9488
13259TIP3    H261193   3.744   0.429  17.008  0.1913 -0.6622  0.1090
13260TIP3   OH261194   0.674   0.741   2.096  0.0328  0.3626 -0.2442
13260TIP3    H161195   0.658   0.833   2.074 -0.2735  0.3489 -0.0721
13260TIP3    H261196   0.701   0.701   2.013 -1.6165  0.1998 -0.7249
13261TIP3   OH261197   5.306   4.067   2.340  0.5515  0.2493  0.2602
13261TIP3    H161198   5.238   4.000   2.331  1.7501 -0.7653 -2.4562
13261TIP3    H261199   5.259   4.150   2.335 -0.7204 -0.3956  1.1285
13262TIP3   OH261200   0.574   3.375   2.692  0.0323 -0.4147 -1.0101
13262TIP3    H161201   0.533   3.367   2.606  1.0336  0.8054 -1.6313
13262TIP3    H261202   0.612   3.289   2.709  0.5019 -0.4381 -2.1508
13263TIP3   OH261203   4.164   5.610   2.610 -0.3644 -0.4047 -0.4267
13263TIP3    H161204   4.249   5.613   2.566 -0.9385  0.6270 -1.5439
13263TIP3    H261205   4.149   5.700   2.639  0.3989 -1.1900  2.8199
13264TIP3   OH261206   1.474   3.305   0.603  0.4888 -0.4525 -0.6933
13264TIP3    H161207   1.507   3.218   0.625 -2.2606 -1.9951 -2.1455
13264TIP3    H261208   1.380   3.293   0.589 -0.0246  2.7898 -0.8882
13265TIP3   OH261209   4.032   4.697   2.561 -0.4816  0.0196 -0.1340
13265TIP3    H161210   4.083   4.739   2.630  1.9512  1.3892 -2.5739
13265TIP3    H261211   3.955   4.753   2.551 -0.2787  0.4602  0.6778
13266TIP3   OH261212   0.054   3.540  11.433 -0.2851  0.3193  0.1930
13266TIP3    H161213   0.087   3.468  11.379  0.0904  1.2341 -0.8317
13266TIP3    H261214   0.031   3.499  11.516 -0.7898 -1.1192 -0.6208
13267TIP3   OH261215   3.986   0.008   0.549  0.1349 -0.5116  0.0707
13267TIP3    H161216   3.980   0.085   0.491 -1.9881  1.0077  2.1190
13267TIP3    H261217   4.070   0.018   0.593 -1.0606  2.1148  2.0501
13268TIP3   OH261218   1.355   5.300  12.385 -0.1713 -0.0339  0.1955
13268TIP3    H161219   1.290   5.276  12.451 -0.1825  0.2894  0.3029
13268TIP3    H261220   1.326   5.386  12.352  0.8194  0.6523  1.0575
13269TIP3   OH261221   6.100   0.957   0.729  0.2703 -0.0900  0.1288
13269TIP3    H161222   6.073   0.953   0.820  0.9078 -1.6354  0.2792
13269TIP3    H261223   6.183   1.004   0.730  0.6015 -0.6848  0.4219
13270TIP3   OH261224   5.268   2.810   1.901 -0.0037 -0.4267 -0.0939
13270TIP3    H161225   5.183   2.844   1.930 -1.0909 -0.5242 -2.8233
13270TIP3    H261226   5.246   2.731   1.852  1.7789 -0.9938 -0.0156
13271TIP3   OH261227   0.016   5.962   2.216  0.6950  0.3260 -0.1281
13271TIP3    H161228  -0.064   5.952   2.268 -0.3153 -1.6487 -1.9194
13271TIP3    H261229   0.073   6.016   2.271 -0.8893 -0.3008  2.3215
13272TIP3   OH261230   2.557   0.527  15.217 -0.5469 -0.0369  0.1628
13272TIP3    H161231   2.540   0.616  15.185  0.0609 -0.5094 -1.6111
13272TIP3    H261232   2.569   0.475  15.137 -0.9798 -1.7386  1.1572
13273TIP3   OH261233   5.156   3.039  16.754 -0.2962 -0.2701 -0.1435
13273TIP3    H161234   5.082   3.053  16.695  0.9779  2.6483 -1.2465
13273TIP3    H261235   5.201   3.123  16.756  2.1495 -1.4945  1.7048
13274TIP3   OH261236   0.901   2.738  12.713 -0.1365  0.1068 -0.0340
13274TIP3    H161237   0.835   2.746  12.645 -2.0029 -0.0039  1.6840
13274TIP3    H261238   0.854   2.755  12.795  1.6239 -1.4423  1.3936
13275TIP3   OH261239   4.296   4.206  15.992  0.4720  0.2708 -0.1204
13275TIP3    H161240   4.342   4.140  15.940  0.4321  1.2935 -1.4937
13275TIP3    H261241   4.279   4.162  16.076  1.3079 -1.1229 -0.6425
13276TIP3   OH261242   3.503   1.344  11.566  0.0504  0.1700  0.4285
13276TIP3    H161243   3.533   1.290  11.639  1.0550  0.0836 -0.0350
13276TIP3    H261244   3.583   1.379  11.527 -0.5484  1.7017  0.4859
13277TIP3   OH261245   4.973   2.047  16.505  0.1829  0.4672 -0.3486
13277TIP3    H161246   4.986   2.012  16.416  1.0545 -2.4491  0.8207
13277TIP3    H261247   4.884   2.082  16.503 -0.2343 -0.5224 -2.0962
13278TIP3   OH261248   2.727   3.126  16.323  0.1007  0.0789  0.8159
13278TIP3    H161249   2.783   3.202  16.311  1.2236 -0.5438  1.8903
13278TIP3    H261250   2.784   3.051  16.306 -1.1493 -0.5406 -0.8700
13279TIP3   OH261251   4.185   1.483   3.213  0.0655 -0.2078  0.2246
13279TIP3    H161252   4.243   1.554   3.186  2.7043 -2.3828 -0.2072
13279TIP3    H261253   4.168   1.501   3.306  2.0714  0.1399  0.5756
13280TIP3   OH261254   3.162   0.801   3.674 -0.3094  0.4023 -0.2127
13280TIP3    H161255   3.090   0.798   3.736  1.5361 -0.9164  2.0197
13280TIP3    H261256   3.179   0.894   3.661 -0.7113  0.7141  1.3298
13281TIP3   OH261257   1.666   2.242   0.170 -0.4117  0.1127  0.2724
13281TIP3    H161258   1.650   2.152   0.140  2.5306  0.0367 -1.4868
13281TIP3    H261259   1.733   2.233   0.237  0.4630  1.0163 -0.4590
13282TIP3   OH261260   4.704   5.720  11.957  0.0204 -0.2561 -0.2874
13282TIP3    H161261   4.611   5.741  11.966 -0.2354 -1.1686 -0.6670
13282TIP3    H261262   4.705   5.628  11.932  1.0835 -0.6017  0.9487
13283TIP3   OH261263   3.073   6.546   4.828  0.6938 -0.6514  0.4446
13283TIP3    H161264   3.076   6.600   4.749  0.1806 -0.6235  0.4401
13283TIP3    H261265   3.163   6.546   4.861  0.9517 -0.8074 -0.2383
13284TIP3   OH261266   5.073   3.881  14.736  0.1244 -0.3624  0.2233
13284TIP3    H161267   4.996   3.850  14.783 -0.6723  1.4786  0.2245
13284TIP3    H261268   5.038   3.938  14.668  1.4432 -0.3995 -0.5084
13285TIP3   OH261269   4.474   3.683   3.520 -0.0709 -0.1318 -0.3877
13285TIP3    H161270   4.475   3.777   3.538  0.4770 -0.1287 -0.4151
13285TIP3    H261271   4.566   3.660   3.507 -0.2305 -0.6095 -0.7060
13286TIP3   OH261272   3.409   3.314   6.136 -0.0346  0.3173 -0.3194
13286TIP3    H161273   3.343   3.302   6.205 -0.9081  2.0789 -0.7723
13286TIP3    H261274   3.427   3.408   6.136  1.7195  0.0172 -0.9277
13287TIP3   OH261275   5.686   5.575   3.150  0.3549  1.1789 -0.6002
13287TIP3    H161276   5.760   5.620   3.109  0.8786  1.7097  0.8831
13287TIP3    H261277   5.705   5.482   3.139  2.2255  1.2696  1.3847
13288TIP3   OH261278   3.079   2.607   4.227  0.4219 -0.2335 -0.3434
13288TIP3    H161279   3.021   2.620   4.301  1.2374 -1.0950  0.4727
13288TIP3    H261280   3.166   2.598   4.266  0.8345 -0.9139 -1.3742
13289TIP3   OH261281   5.644   2.735  12.755 -0.3150  0.4774 -0.1962
13289TIP3    H161282   5.597   2.664  12.799 -1.8310  1.0116 -0.8724
13289TIP3    H261283   5.577   2.779  12.702  0.9920  1.2170 -1.3065
13290TIP3   OH261284   3.186   5.273  17.134 -0.4593 -0.4413  0.1558
13290TIP3    H161285   3.155   5.297  17.222  1.5067 -1.4047  1.1851
13290TIP3    H261286   3.107   5.252  17.086 -1.7512  1.9061  1.0967
13291TIP3   OH261287   0.684   6.557  14.670  0.5184  0.0082 -0.7757
13291TIP3    H161288   0.715   6.543  14.760 -0.9496  2.2281  0.1738
13291TIP3    H261289   0.691   6.652  14.658 -4.6851  0.6414 -0.8014
13292TIP3   OH261290   4.610   3.071   3.276  0.1883  1.0403 -0.1412
13292TIP3    H161291   4.671   2.998   3.274  1.0957  1.6542  2.0180
13292TIP3    H261292   4.525   3.031   3.257  0.8798 -0.2815 -0.6062
13293TIP3   OH261293   4.350   4.753  12.494  0.1624 -0.5447 -0.2382
13293TIP3    H161294   4.431   4.755  12.544  0.2340  1.9817 -0.3206
13293TIP3    H261295   4.281   4.772  12.559  0.0702  0.8976 -0.7051
13294TIP3   OH261296   0.258   4.799  16.419  0.1055 -0.1386 -0.6856
13294TIP3    H161297   0.242   4.756  16.335 -0.0564 -1.9161  0.2251
13294TIP3    H261298   0.347   4.775  16.443 -0.2898 -0.7376  0.2567
13295TIP3   OH261299   2.737   4.608  11.671 -0.1281  0.2994 -0.9201
13295TIP3    H161300   2.743   4.633  11.579 -1.5792  0.2508 -1.0563
13295TIP3    H261301   2.756   4.689  11.719  0.5441  0.3454 -1.2572
13296TIP3   OH261302   1.706   5.819  16.042  0.1029 -0.0751 -0.1908
13296TIP3    H161303   1.706   5.842  15.950 -1.5082  0.5433 -0.0748
13296TIP3    H261304   1.758   5.739  16.047  1.3386  0.6066 -1.4064
13297TIP3   OH261305   3.429   3.008  12.356 -0.2564  0.3886 -0.0139
13297TIP3    H161306   3.410   2.984  12.266  2.7386 -1.7704 -0.2390
13297TIP3    H261307   3.359   2.967  12.408 -1.5664  0.9990 -1.2404
13298TIP3   OH261308   1.559   4.234  14.670 -0.0984  0.0528  0.4176
13298TIP3    H161309   1.625   4.166  14.685 -0.4995  0.0709  2.6867
13298TIP3    H261310   1.520   4.212  14.586  0.0441 -2.3299  0.9020
13299TIP3   OH261311   5.607   6.241   3.458 -0.2174  0.3772 -0.1423
13299TIP3    H161312   5.580   6.330   3.481 -1.1480 -0.4581  2.2948
13299TIP3    H261313   5.702   6.246   3.449 -0.3823  1.8715 -1.4824
13300TIP3   OH261314   3.087   5.634   3.491  0.0884  0.0364 -0.6744
13300TIP3    H161315   3.143   5.651   3.415  0.8209  2.6216  0.3457
13300TIP3    H261316   3.009   5.687   3.476 -1.2975 -2.0221 -1.1370
13301TIP3   OH261317   1.652   5.195  14.367  0.3516 -0.1413 -0.1110
13301TIP3    H161318   1.746   5.201  14.384  0.7221 -2.2403 -1.0652
13301TIP3    H261319   1.612   5.195  14.454  1.2001  0.8025  0.3057
13302TIP3   OH261320   5.546   3.432  15.687  0.0601 -0.0571  0.1368
13302TIP3    H161321   5.455   3.420  15.661  0.0202  0.7101 -0.0987
13302TIP3    H261322   5.583   3.343  15.687 -0.6144 -0.3462 -0.0024
13303TIP3   OH261323   1.449   2.791  15.227  0.1534 -0.4355  0.0812
13303TIP3    H161324   1.433   2.700  15.252 -0.1191 -0.6789 -0.9474
13303TIP3    H261325   1.468   2.788  15.133  0.6899  0.5098  0.1438
13304TIP3   OH261326   2.645   2.220   4.083  0.2346  0.4714  0.2626
13304TIP3    H161327   2.711   2.256   4.023 -0.5128 -0.8088 -1.3848
13304TIP3    H261328   2.569   2.204   4.028 -0.2220 -1.4845  1.3816
13305TIP3   OH261329   2.404   6.032  11.685 -0.2962  0.2042 -0.0785
13305TIP3    H161330   2.456   5.953  11.675  0.4101  0.5606  0.6936
13305TIP3    H261331   2.465   6.104  11.668 -0.6428  0.6119  0.3505
13306TIP3   OH261332   2.856   6.060   2.392 -0.1631  0.3806 -0.3037
13306TIP3    H161333   2.865   5.969   2.421 -0.4124  0.9449  1.6772
13306TIP3    H261334   2.909   6.065   2.312 -1.9729 -2.0445 -1.7951
13307TIP3   OH261335   5.739   6.666   5.063 -0.3282 -0.3724 -0.1247
13307TIP3    H161336   5.723   6.665   4.969 -0.6545  1.6730 -0.1552
13307TIP3    H261337   5.810   6.603   5.076  0.4439  0.0600 -1.9061
13308TIP3   OH261338   4.645   1.201   0.992 -0.1955  0.0495 -0.4012
13308TIP3    H161339   4.582   1.273   0.979  0.2449  0.2464 -1.5610
13308TIP3    H261340   4.593   1.122   0.983 -0.2963  0.2127 -1.3655
13309TIP3   OH261341   5.051   2.915   2.037 -0.0150 -0.1891 -0.4707
13309TIP3    H161342   5.096   2.948   2.115  0.4744  1.7342 -1.4844
13309TIP3    H261343   4.963   2.952   2.043  0.2366  0.5740 -1.1266
13310TIP3   OH261344   3.821   3.518   3.072 -0.6250  0.3971  0.5215
13310TIP3    H161345   3.794   3.518   3.164 -1.4447  2.1462  0.3279
13310TIP3    H261346   3.802   3.607   3.042 -0.4367 -0.1591 -1.3607
13311TIP3   OH261347   4.891   0.500   0.491 -0.0735  0.2229  0.1279
13311TIP3    H161348   4.903   0.549   0.572 -1.0273  1.0029 -0.1810
13311TIP3    H261349   4.888   0.408   0.519 -2.2610  0.5753  1.2359
13312TIP3   OH261350   1.825   0.418   2.480 -0.0758  0.5252  0.2310
13312TIP3    H161351   1.783   0.426   2.395  1.0051 -0.2568 -0.4022
13312TIP3    H261352   1.918   0.404   2.460  0.2720  0.7781  1.5440
13313TIP3   OH261353   1.795   4.875  12.180  0.4546 -0.5581 -0.7647
13313TIP3    H161354   1.717   4.868  12.235  0.4105  0.4705 -0.6860
13313TIP3    H261355   1.849   4.943  12.221  0.7273 -0.2465 -1.6064
13314TIP3   OH261356   5.712   5.951   2.549 -0.0988  0.0418 -0.5755
13314TIP3    H161357   5.785   5.943   2.488 -0.0080  1.0682 -0.6148
13314TIP3    H261358   5.634   5.955   2.493 -0.0491  0.5692 -0.6104
13315TIP3   OH261359   1.663   5.112   1.669  0.0020  0.3871  0.0782
13315TIP3    H161360   1.706   5.195   1.649  3.2508 -1.1347  0.1624
13315TIP3    H261361   1.650   5.071   1.583 -0.1752  0.2842  0.1527
13316TIP3   OH261362   4.956   6.262  11.907  0.1055 -0.5680 -0.0525
13316TIP3    H161363   4.963   6.259  12.002 -0.1006 -2.0155 -0.0636
13316TIP3    H261364   4.867   6.231  11.888  0.4012 -1.0290 -0.7431
13317TIP3   OH261365   1.518   3.034   5.567  0.0669  0.0202 -0.2211
13317TIP3    H161366   1.613   3.049   5.573 -0.1743  2.2473 -0.8899
13317TIP3    H261367   1.499   2.972   5.637  1.6154  1.7594  1.8769
13318TIP3   OH261368   1.164   2.079   5.962  0.4629  0.4072 -0.1978
13318TIP3    H161369   1.216   2.072   6.042  0.7064 -2.7429 -0.5411
13318TIP3    H261370   1.087   2.129   5.989  2.1142  2.4480  1.0844
13319TIP3   OH261371   2.414   5.330  11.561  0.3393 -0.1221  0.4131
13319TIP3    H161372   2.393   5.331  11.654  2.3551 -0.6027  0.9339
13319TIP3    H261373   2.472   5.406  11.549  0.5337 -0.3743 -0.3201
13320TIP3   OH261374   4.030   6.741   4.642  0.0533 -0.8655 -0.4370
13320TIP3    H161375   4.071   6.774   4.562  1.7425  1.3426  1.2257
13320TIP3    H261376   3.938   6.768   4.634  0.5331  0.7628 -0.9729
13321TIP3   OH261377   0.862   5.224   6.440  0.0311 -0.1067  0.0827
13321TIP3    H161378   0.908   5.249   6.360 -0.5219  0.5586 -0.0422
13321TIP3    H261379   0.782   5.277   6.439  0.1514  0.1257  1.2232
13322TIP3   OH261380   0.133   0.496   0.624  0.5743  0.1910 -0.1265
13322TIP3    H161381   0.161   0.449   0.546 -1.4873 -0.7003 -0.3925
13322TIP3    H261382   0.044   0.465   0.640  0.0160  2.2293  1.1015
13323TIP3   OH261383   4.954   2.910   5.591  0.4386 -0.2542  0.0196
13323TIP3    H161384   4.966   2.893   5.685 -0.9432 -1.0256  0.0989
13323TIP3    H261385   5.031   2.961   5.565  1.5979 -1.3016  1.2423
13324TIP3   OH261386   4.013   4.697  10.529  0.1115  0.8120 -0.1470
13324TIP3    H161387   4.101   4.697  10.492 -0.2008 -1.0834 -1.0295
13324TIP3    H261388   3.974   4.614  10.499 -1.2067  0.5514  2.0313
13325TIP3   OH261389   3.434   6.577  16.299 -0.2017  0.4953  0.0392
13325TIP3    H161390   3.469   6.662  16.273  0.0234  0.7643  1.1555
13325TIP3    H261391   3.511   6.526  16.324 -0.5158  1.3033  3.1423
13326TIP3   OH261392   3.368   0.933   1.479  0.9243 -0.6766 -0.4928
13326TIP3    H161393   3.440   0.971   1.428 -1.2715  0.0428 -3.2817
13326TIP3    H261394   3.352   0.848   1.437 -0.8735 -0.1139 -1.0017
13327TIP3   OH261395   1.193   5.987   0.244 -0.5062  0.0752  0.8709
13327TIP3    H161396   1.124   6.036   0.199 -1.5920 -2.9659 -1.1064
13327TIP3    H261397   1.275   6.023   0.208 -1.0999  1.8519  1.1760
13328TIP3   OH261398   2.195   3.704  16.643  0.4424  0.2622 -0.1736
13328TIP3    H161399   2.192   3.703  16.547  0.6719 -1.1572 -0.2014
13328TIP3    H261400   2.221   3.793  16.666 -1.1689  1.0811 -1.3546
13329TIP3   OH261401   1.912   4.460   0.070  0.0245 -0.0882 -0.0735
13329TIP3    H161402   1.982   4.465   0.006  1.1244 -1.2017  0.9856
13329TIP3    H261403   1.946   4.504   0.148 -0.5844 -0.3336  0.3445
13330TIP3   OH261404   5.870   1.764   4.401 -0.2078  0.6368 -0.5527
13330TIP3    H161405   5.915   1.728   4.477  0.0306  1.9743 -0.0262
13330TIP3    H261406   5.809   1.695   4.375 -0.4607  0.2227  0.9946
13331TIP3   OH261407   3.392   1.881  14.222 -0.5667 -0.3679 -0.6725
13331TIP3    H161408   3.467   1.932  14.193  2.3124 -3.1907  1.1100
13331TIP3    H261409   3.355   1.843  14.142  0.3938  0.4692 -1.5309
13332TIP3   OH261410   6.397   3.373   5.733 -0.5068  0.1717  0.2074
13332TIP3    H161411   6.376   3.388   5.641 -1.2750  1.1532  0.5287
13332TIP3    H261412   6.319   3.403   5.780  0.9083  2.2824  1.3489
13333TIP3   OH261413   2.026   3.920  12.490 -0.2573 -0.0371  0.4951
13333TIP3    H161414   2.019   3.986  12.420  0.1905  0.5611  1.0043
13333TIP3    H261415   1.951   3.937  12.547 -0.0049  0.1977  0.7607
13334TIP3   OH261416   6.766   0.768  13.010  0.3858  0.3101  0.2788
13334TIP3    H161417   6.785   0.683  12.971  0.6622  0.6065 -0.2399
13334TIP3    H261418   6.760   0.751  13.104  0.8036 -0.2129  0.2096
13335TIP3   OH261419   6.709   6.488   2.723  0.2626  0.2783 -0.1224
13335TIP3    H161420   6.692   6.582   2.720 -1.7587  0.0671  2.2152
13335TIP3    H261421   6.764   6.475   2.800  0.2325 -0.4993 -0.2176
13336TIP3   OH261422   0.594   3.669  11.977 -1.2253  0.1989 -0.1235
13336TIP3    H161423   0.569   3.746  12.028 -0.0505  0.3893  0.1896
13336TIP3    H261424   0.578   3.595  12.036 -0.6524  0.3514  0.2255
13337TIP3   OH261425   4.054   2.736  14.877 -0.0993  0.0254  0.1765
13337TIP3    H161426   3.972   2.686  14.879  0.3660 -0.7794 -0.0666
13337TIP3    H261427   4.075   2.752  14.969 -0.2417 -0.2709  0.2624
13338TIP3   OH261428   2.948   4.354  11.654 -0.5363  0.1196  0.9225
13338TIP3    H161429   2.922   4.339  11.563 -0.3788  0.2606  0.8548
13338TIP3    H261430   2.991   4.439  11.653  0.4414 -0.3669  0.9416
13339TIP3   OH261431   3.926   2.737  16.334  0.0353  0.5230  0.2178
13339TIP3    H161432   4.008   2.778  16.306  0.2996  0.9025  1.5043
13339TIP3    H261433   3.858   2.786  16.286  0.5618 -0.1381 -1.2576
13340TIP3   OH261434   3.994   5.889  16.769 -0.2053  0.0123 -0.0738
13340TIP3    H161435   4.028   5.969  16.729 -0.7931  0.2508 -0.1148
13340TIP3    H261436   4.060   5.862  16.832 -0.4757  1.1207  0.7093
13341TIP3   OH261437   5.733   5.879  13.823  0.5044  0.8524  0.1256
13341TIP3    H161438   5.774   5.796  13.849 -0.4060  0.7320  1.2448
13341TIP3    H261439   5.788   5.911  13.752 -0.0403 -1.5288 -1.5330
13342TIP3   OH261440   3.483   2.682   1.128 -0.1449 -0.0082  0.1778
13342TIP3    H161441   3.524   2.597   1.145 -0.5421 -0.3147 -0.3980
13342TIP3    H261442   3.501   2.700   1.036 -2.0271 -0.5428 -0.3231
13343TIP3   OH261443   6.569   6.725   5.330 -0.2299  0.1737 -0.6940
13343TIP3    H161444   6.560   6.642   5.284 -1.2156 -1.2032  1.8248
13343TIP3    H261445   6.642   6.712   5.390 -0.8201  0.8535  0.2041
13344TIP3   OH261446   2.582   5.238   4.315  0.3050 -0.5027 -0.4837
13344TIP3    H161447   2.489   5.222   4.328  0.1869 -0.7613 -1.5365
13344TIP3    H261448   2.603   5.192   4.234  1.2137  0.0598 -0.5842
13345TIP3   OH261449   0.276   0.006  12.656  0.1081  0.1287 -0.0624
13345TIP3    H161450   0.369   0.028  12.652  0.2395 -0.4981 -0.5464
13345TIP3    H261451   0.261  -0.020  12.746 -0.9722  6.0550  1.9362
13346TIP3   OH261452   1.903   6.498   3.621 -0.1346  0.0764 -0.1514
13346TIP3    H161453   1.822   6.451   3.640  0.6545 -0.4438  2.4070
13346TIP3    H261454   1.877   6.590   3.616 -0.9105 -0.0989  0.4998
13347TIP3   OH261455   1.444   4.886   0.478 -0.2314  0.2968  0.1640
13347TIP3    H161456   1.522   4.837   0.504  0.5608  0.2952 -2.0295
13347TIP3    H261457   1.394   4.824   0.424 -0.7025  0.9568 -0.1674
13348TIP3   OH261458   5.227   1.893  15.337  0.6537 -0.3674  0.5503
13348TIP3    H161459   5.147   1.918  15.383  0.1364  0.1393 -0.5929
13348TIP3    H261460   5.206   1.807  15.299  0.1709  0.3281 -0.8200
13349TIP3   OH261461   3.306   6.065   2.107  0.6540  0.6408  0.1877
13349TIP3    H161462   3.388   6.093   2.146  1.1124 -0.9910  0.4536
13349TIP3    H261463   3.308   6.101   2.018  0.9851  1.7947  0.6459
13350TIP3   OH261464   0.522   5.302   0.393 -0.7638  0.7172  0.1630
13350TIP3    H161465   0.474   5.226   0.359  0.0585  0.4049 -0.3216
13350TIP3    H261466   0.488   5.376   0.342  0.2069  0.3049 -1.1337
13351TIP3   OH261467   4.609   4.766  12.623 -0.1508 -0.0156 -0.4886
13351TIP3    H161468   4.597   4.838  12.685 -0.6980 -1.1547  0.7660
13351TIP3    H261469   4.704   4.757  12.614 -0.0768  0.6831 -0.4546
13352TIP3   OH261470   6.201   0.049   1.737  0.6311  0.6511 -0.6834
13352TIP3    H161471   6.241  -0.014   1.677 -0.8198 -1.8370  0.8054
13352TIP3    H261472   6.246   0.035   1.820 -0.1814  1.0914 -0.1567
13353TIP3   OH261473   1.492   0.256  13.028  0.1299 -0.3259  0.2851
13353TIP3    H161474   1.444   0.300  13.098  0.1302  2.2681 -1.2048
13353TIP3    H261475   1.510   0.169  13.062 -0.5705  0.5458  3.1499
13354TIP3   OH261476   3.233   1.273   4.168  0.1615 -0.2565 -0.0434
13354TIP3    H161477   3.244   1.234   4.255 -0.3662  1.6665  0.9395
13354TIP3    H261478   3.190   1.205   4.116  0.3267 -1.3786  1.2425
13355TIP3   OH261479   3.075   1.314  16.653  0.2191  0.2214  0.0096
13355TIP3    H161480   2.988   1.277  16.672  0.6956 -0.5814  0.7080
13355TIP3    H261481   3.085   1.385  16.716  0.7367 -0.7750  1.0956
13356TIP3   OH261482   1.004   0.880  14.718 -0.5239  0.3233 -0.1991
13356TIP3    H161483   0.942   0.917  14.780  0.4295  1.4231  0.1497
13356TIP3    H261484   0.951   0.855  14.643 -1.6018 -0.3644  0.7656
13357TIP3   OH261485   4.277   5.822   4.576  0.3487 -0.7662  0.6798
13357TIP3    H161486   4.329   5.887   4.529 -2.1185  0.9950  0.2515
13357TIP3    H261487   4.245   5.868   4.653 -2.4361 -1.0081 -0.2488
13358TIP3   OH261488   0.234   3.965   1.160  0.1328 -0.4246 -0.1244
13358TIP3    H161489   0.327   3.979   1.175  0.3591 -0.2552 -1.5545
13358TIP3    H261490   0.194   3.971   1.247  1.4393 -0.4606  0.4968
13359TIP3   OH261491   4.040   5.323   0.078 -0.2530  0.5130  0.2112
13359TIP3    H161492   4.045   5.409   0.038 -2.4567 -0.0129 -1.3734
13359TIP3    H261493   4.132   5.297   0.091  0.4675  2.3629 -0.8277
13360TIP3   OH261494   1.772   3.226  10.756  0.1522  0.0426 -0.4453
13360TIP3    H161495   1.729   3.277  10.686 -1.2329 -0.1317  0.2484
13360TIP3    H261496   1.752   3.274  10.836 -0.8765 -1.3733  0.1873
13361TIP3   OH261497   5.683   0.903   0.409 -0.2187 -0.0179 -0.0125
13361TIP3    H161498   5.612   0.966   0.396  0.1475  0.4787  0.3614
13361TIP3    H261499   5.736   0.941   0.479 -0.2651 -0.9828  0.5533
13362TIP3   OH261500   5.272   6.519   4.979 -0.6343 -0.4966  0.6382
13362TIP3    H161501   5.296   6.503   4.888  0.8012 -0.8569  1.0614
13362TIP3    H261502   5.242   6.435   5.011  0.4110 -0.7702  0.9381
13363TIP3   OH261503   6.377   4.841   4.164 -0.7790  0.3610 -0.1789
13363TIP3    H161504   6.373   4.916   4.105  0.0579  0.1784 -0.4841
13363TIP3    H261505   6.468   4.811   4.159 -1.0291 -0.4958  0.1609
13364TIP3   OH261506   2.923   5.496   4.537  0.0396 -0.2119  0.0537
13364TIP3    H161507   2.996   5.549   4.504 -1.1317  0.2919 -1.8456
13364TIP3    H261508   2.918   5.519   4.630  1.8542  0.2519  0.0678
13365TIP3   OH261509   1.471   0.153  13.678 -0.5924 -0.2008 -0.3142
13365TIP3    H161510   1.438   0.113  13.598  0.0501  0.0957 -0.7366
13365TIP3    H261511   1.563   0.172  13.659 -1.0216  2.0948 -0.3881
13366TIP3   OH261512   4.739   6.655  14.600 -0.0606 -0.7737 -0.5273
13366TIP3    H161513   4.716   6.676  14.690  1.1477 -1.0173 -0.1419
13366TIP3    H261514   4.661   6.678  14.549 -0.8350 -0.8461  0.5979
13367TIP3   OH261515   0.484   5.572  16.831  0.2067  0.4166 -0.1887
13367TIP3    H161516   0.526   5.538  16.911 -0.8521 -0.8318 -0.1258
13367TIP3    H261517   0.390   5.570  16.852 -0.0267  0.8520 -1.1808
13368TIP3   OH261518   5.295   1.036   4.250 -0.4456 -0.5177  0.3879
13368TIP3    H161519   5.247   1.101   4.199  0.9546  0.9299  0.8245
13368TIP3    H261520   5.353   0.994   4.185  2.8340  2.7296  0.8942
13369TIP3   OH261521   4.627   6.396   1.205 -0.0270  0.3014 -0.2057
13369TIP3    H161522   4.678   6.335   1.257 -1.1347 -0.1539  0.3861
13369TIP3    H261523   4.665   6.391   1.117 -0.6068 -1.8917 -0.3771
13370TIP3   OH261524   1.689   5.185  16.416 -0.1377  0.3477 -0.4739
13370TIP3    H161525   1.708   5.203  16.508 -0.5175  0.3111 -0.3838
13370TIP3    H261526   1.727   5.259  16.368 -1.0468  1.0416 -0.1721
13371TIP3   OH261527   1.495   6.667   4.858 -0.4602 -0.1106 -0.3044
13371TIP3    H161528   1.476   6.642   4.767  0.0764  0.0603 -0.4680
13371TIP3    H261529   1.457   6.754   4.868  0.4048  0.3271 -0.6989
13372TIP3   OH261530   2.388   5.055  14.918 -0.6597 -0.6509  0.4892
13372TIP3    H161531   2.424   4.967  14.935  0.3614 -0.1264  1.1384
13372TIP3    H261532   2.457   5.115  14.947 -1.5571  0.3864  0.5283
13373TIP3   OH261533   6.509   1.444   3.697  0.2154  0.0917 -0.2426
13373TIP3    H161534   6.442   1.485   3.643 -0.2603 -0.9422 -0.4559
13373TIP3    H261535   6.519   1.356   3.661  0.4565 -0.3475  0.8473
13374TIP3   OH261536   4.601   5.262   3.239 -0.0575 -0.3756 -0.2129
13374TIP3    H161537   4.597   5.179   3.191 -1.9910 -0.4916  0.0871
13374TIP3    H261538   4.599   5.237   3.331  2.4538 -0.0925 -0.0014
13375TIP3   OH261539   1.497   6.139  13.613  0.0364 -0.1451  0.4869
13375TIP3    H161540   1.447   6.059  13.594  1.9613 -1.6316  1.4016
13375TIP3    H261541   1.547   6.118  13.692  0.8298  1.8807  0.5767
13376TIP3   OH261542   2.965   1.318  12.142  0.6690  0.0546  0.1003
13376TIP3    H161543   2.924   1.282  12.064  0.7622 -0.3205  0.2269
13376TIP3    H261544   2.987   1.242  12.195  0.4493  0.3151  0.5697
13377TIP3   OH261545   3.830   5.993  10.866  0.1869 -0.3082  0.2152
13377TIP3    H161546   3.881   6.035  10.797  2.0226 -1.0987  1.0256
13377TIP3    H261547   3.753   5.958  10.821  0.3962  0.8040 -1.0777
13378TIP3   OH261548   1.468   2.810  14.937  0.3830 -0.5301  0.2016
13378TIP3    H161549   1.488   2.726  14.895  0.0068 -0.6917  0.3330
13378TIP3    H261550   1.505   2.876  14.878 -1.9754 -0.6255 -1.5550
13379TIP3   OH261551   2.864   0.511  14.139  0.3619  0.1825 -0.5417
13379TIP3    H161552   2.818   0.527  14.221  0.4890 -1.4129 -0.1222
13379TIP3    H261553   2.854   0.592  14.089 -0.1572  0.9894  0.8302
13380TIP3   OH261554   6.383   2.867   3.557 -0.0348 -0.0415 -0.5001
13380TIP3    H161555   6.403   2.882   3.465  0.2894  1.3447 -0.2255
13380TIP3    H261556   6.352   2.952   3.589 -1.1091 -0.7563  0.4321
13381TIP3   OH261557   0.659   5.689   3.237 -0.0372  0.2496  0.0770
13381TIP3    H161558   0.749   5.659   3.225  0.0005 -0.3401  1.5888
13381TIP3    H261559   0.635   5.658   3.324 -1.2384  1.5954  0.2586
13382TIP3   OH261560   1.787   5.657   0.025  0.5065  0.4531 -0.4144
13382TIP3    H161561   1.788   5.745   0.063  0.4420  1.1723 -2.0100
13382TIP3    H261562   1.766   5.671  -0.067 -0.2481 -1.3054 -0.5490
13383TIP3   OH261563   6.172   5.964   2.353 -0.0838  0.0757  0.0476
13383TIP3    H161564   6.223   5.888   2.382 -1.1352 -0.8090 -0.3223
13383TIP3    H261565   6.192   6.032   2.417 -1.7340 -1.5652  2.4894
13384TIP3   OH261566   3.938   4.268  13.499 -0.2135 -0.0987 -0.4240
13384TIP3    H161567   3.889   4.301  13.424 -0.4856 -0.2463 -0.3140
13384TIP3    H261568   3.878   4.279  13.573  0.1579  0.3094 -0.1801
13385TIP3   OH261569   1.019   3.359   4.763 -0.4037 -0.2338  0.5486
13385TIP3    H161570   1.090   3.320   4.712 -0.2581  0.7826 -0.0378
13385TIP3    H261571   1.058   3.376   4.849 -0.5896 -1.7454  0.9726
13386TIP3   OH261572   0.442   3.715   5.033  0.3490  0.2731 -0.4478
13386TIP3    H161573   0.359   3.676   5.008 -0.4020  2.0860 -0.9024
13386TIP3    H261574   0.501   3.698   4.959 -0.5699  1.7280 -1.5657
13387TIP3   OH261575   2.084   1.681   1.615  0.4979 -0.1893  0.0188
13387TIP3    H161576   2.088   1.629   1.695  2.6562 -1.3320 -0.7563
13387TIP3    H261577   2.112   1.769   1.642 -1.9766  0.3447  1.0950
13388TIP3   OH261578   1.195   2.709   4.292  0.3608  0.5694 -0.1284
13388TIP3    H161579   1.101   2.693   4.301 -0.1859  1.9383 -2.4075
13388TIP3    H261580   1.222   2.744   4.377 -1.1345 -0.0218  0.6274
13389TIP3   OH261581   3.198   6.297  12.163  0.2802 -0.0063  0.1515
13389TIP3    H161582   3.178   6.355  12.236 -0.1805  0.8291 -0.6241
13389TIP3    H261583   3.210   6.355  12.088  1.7712 -0.7716 -0.2378
13390TIP3   OH261584   2.493   0.054  13.125 -0.1410  0.0661  0.1043
13390TIP3    H161585   2.585   0.054  13.100 -0.3234 -0.2181 -0.5688
13390TIP3    H261586   2.467  -0.038  13.123 -0.0825 -0.0110  1.6461
13391TIP3   OH261587   6.559   5.146   5.815  0.0407 -0.1595  0.0160
13391TIP3    H161588   6.626   5.130   5.881  0.7900 -2.3405 -1.1473
13391TIP3    H261589   6.480   5.105   5.850 -0.4977  1.6065  0.9780
13392TIP3   OH261590   2.714   5.078   4.110  0.1976 -0.3183  0.2606
13392TIP3    H161591   2.787   5.021   4.132  0.1563 -1.2219 -1.7349
13392TIP3    H261592   2.638   5.019   4.103 -0.1051  0.1510 -0.5848
13393TIP3   OH261593   6.660   0.035   3.186 -0.6793 -0.5286  0.1794
13393TIP3    H161594   6.678  -0.027   3.257  0.1041 -0.1203  0.3492
13393TIP3    H261595   6.613  -0.016   3.120 -1.0854 -1.0051  0.8306
13394TIP3   OH261596   3.969   4.602   6.041 -0.1835 -0.1071 -0.6557
13394TIP3    H161597   3.883   4.642   6.050  0.8659  1.8775  1.4494
13394TIP3    H261598   3.968   4.528   6.101 -0.5003 -0.2659 -0.8552
13395TIP3   OH261599   3.456   0.600  11.463  0.1731  0.5300  0.1880
13395TIP3    H161600   3.474   0.604  11.557  2.4985  0.8195 -0.2175
13395TIP3    H261601   3.541   0.610  11.421 -1.0711  2.8754 -2.0537
13396TIP3   OH261602   1.028   5.367   2.886 -0.5201  0.3443 -0.5438
13396TIP3    H161603   0.961   5.364   2.954 -0.0911  0.0388 -0.1334
13396TIP3    H261604   0.996   5.307   2.819 -0.7815  0.3985 -0.4714
13397TIP3   OH261605   0.544   4.527   0.805  0.0290  0.0922 -0.4825
13397TIP3    H161606   0.466   4.514   0.860  0.6236 -0.5175  0.2404
13397TIP3    H261607   0.552   4.622   0.797  1.3027  0.3780  2.5803
13398TIP3   OH261608   4.865   4.671   1.154 -0.0466 -0.5970  0.3063
13398TIP3    H161609   4.899   4.600   1.101  0.5810  0.6956 -1.1049
13398TIP3    H261610   4.941   4.727   1.170 -0.3939 -0.5383  1.9233
13399TIP3   OH261611   1.667   2.400   4.435  0.7968  0.3627 -0.6502
13399TIP3    H161612   1.716   2.359   4.506  0.4821 -0.5394 -0.9330
13399TIP3    H261613   1.730   2.407   4.363  0.8939  0.5106 -0.5500
13400TIP3   OH261614   6.108   3.783  14.192  0.4395 -0.2202  0.1307
13400TIP3    H161615   6.127   3.871  14.158 -0.3870 -0.8558 -2.1311
13400TIP3    H261616   6.094   3.730  14.114  0.8832 -2.3869  1.4500
13401TIP3   OH261617   1.808   3.011  11.902 -0.5933  0.3197  0.0462
13401TIP3    H161618   1.885   3.039  11.851  0.3216 -1.9339  0.0986
13401TIP3    H261619   1.734   3.054  11.858  0.4462  0.6715 -1.4540
13402TIP3   OH261620   2.881   5.802   3.563  0.2740  0.3531 -0.5190
13402TIP3    H161621   2.845   5.858   3.495  2.5862  1.3926 -0.9732
13402TIP3    H261622   2.898   5.860   3.637  1.6884  0.0878 -0.6019
13403TIP3   OH261623   6.138   6.575  15.576  0.6004  0.3517 -0.6618
13403TIP3    H161624   6.046   6.574  15.551 -0.0527  0.5998  1.4734
13403TIP3    H261625   6.153   6.489  15.614  0.5844  1.0490  1.0132
13404TIP3   OH261626   6.383   4.693   1.887 -0.2310 -0.1221  0.3677
13404TIP3    H161627   6.347   4.736   1.809 -0.9615 -2.0402 -0.4122
13404TIP3    H261628   6.330   4.726   1.959 -0.1998  0.9317 -0.0697
13405TIP3   OH261629   1.988   2.916   4.253 -0.1447  0.1983 -0.3097
13405TIP3    H161630   1.919   2.901   4.317  0.6211  1.1416  0.7655
13405TIP3    H261631   2.067   2.926   4.304  0.3112  2.1360 -1.2980
13406TIP3   OH261632   0.872   4.913   1.708 -0.1968 -0.0494  0.2255
13406TIP3    H161633   0.842   4.848   1.771 -1.0221 -1.3429 -1.4474
13406TIP3    H261634   0.792   4.950   1.671  0.1959 -1.3399 -2.0788
13407TIP3   OH261635   0.443   1.202   5.310 -0.3986  0.1179  0.1398
13407TIP3    H161636   0.418   1.291   5.337  1.2884  1.2384 -1.7209
13407TIP3    H261637   0.537   1.197   5.329 -0.0159 -0.4670 -1.7625
13408TIP3   OH261638   6.595   1.724   5.914  0.4509  0.4061 -0.0304
13408TIP3    H161639   6.610   1.757   6.003  1.0706  1.4698 -0.5000
13408TIP3    H261640   6.579   1.631   5.925  0.4198  0.5420  1.2107
13409TIP3   OH261641   6.694   6.152  14.742 -0.6524 -0.2043  0.2238
13409TIP3    H161642   6.742   6.219  14.693  0.7137 -0.1064  1.6180
13409TIP3    H261643   6.677   6.082  14.678 -0.1091  0.4928 -0.6985
13410TIP3   OH261644   1.823   4.120   6.347  0.0551 -0.3486 -0.1244
13410TIP3    H161645   1.835   4.036   6.302 -0.9156  0.5572 -2.2242
13410TIP3    H261646   1.839   4.186   6.279 -1.5731  1.0969  0.8148
13411TIP3   OH261647   0.833   2.388   4.390 -0.1091 -0.2055  0.7409
13411TIP3    H161648   0.888   2.452   4.345  2.2739 -1.0680  2.2798
13411TIP3    H261649   0.813   2.429   4.475 -0.4754 -0.6004  0.8504
13412TIP3   OH261650   5.957   5.137  16.662 -0.1785 -0.0169 -0.1223
13412TIP3    H161651   6.032   5.092  16.623  0.9304  0.1340  1.7013
13412TIP3    H261652   5.977   5.230  16.651  0.2559  0.0333  0.8853
13413TIP3   OH261653   5.797   1.998  16.805 -0.1205  0.2245 -0.6060
13413TIP3    H161654   5.765   2.087  16.822  1.1139  0.2513  2.0673
13413TIP3    H261655   5.879   2.011  16.757  1.1298  0.7260  1.5336
13414TIP3   OH261656   1.707   4.683  15.712 -0.1965 -0.1329  0.6175
13414TIP3    H161657   1.746   4.669  15.625 -1.2377 -1.4552  0.3230
13414TIP3    H261658   1.774   4.728  15.762 -0.0442  1.8970 -1.2782
13415TIP3   OH261659   6.081   3.305  14.196  0.6577  0.0831  0.1014
13415TIP3    H161660   6.059   3.398  14.200  0.9610  0.1687 -0.1577
13415TIP3    H261661   6.164   3.297  14.243  0.0720 -0.2438  1.0985
13416TIP3   OH261662   6.540   0.837   6.021 -0.2149 -0.6008  0.4519
13416TIP3    H161663   6.457   0.791   6.014  0.3795 -1.6013 -0.3538
13416TIP3    H261664   6.549   0.857   6.114 -0.8475 -1.4617  0.7128
13417TIP3   OH261665   0.917   4.912  17.235 -0.1207 -0.1903  0.4657
13417TIP3    H161666   1.005   4.939  17.208 -1.0979  0.5764 -2.3164
13417TIP3    H261667   0.901   4.831  17.187 -0.7497 -0.6260  1.3855
13418TIP3   OH261668   5.642   0.674  13.221 -0.0358  0.0777  0.2714
13418TIP3    H161669   5.669   0.656  13.311 -0.3827  0.2704  0.4168
13418TIP3    H261670   5.658   0.592  13.174  1.1465  0.3005  0.2665
13419TIP3   OH261671   5.545   5.109   4.990  0.1292 -0.9762  0.0373
13419TIP3    H161672   5.502   5.172   4.932 -1.7182 -1.1528  1.0946
13419TIP3    H261673   5.542   5.151   5.076 -0.0820 -2.0126  0.5517
13420TIP3   OH261674   5.849   1.760  13.303 -0.2807  0.3223  0.0570
13420TIP3    H161675   5.856   1.855  13.290  1.4310  0.1870 -0.2995
13420TIP3    H261676   5.928   1.725  13.262 -0.1612 -1.1343  1.4564
13421TIP3   OH261677   5.529   5.563   1.202  0.0338 -0.5999  0.1463
13421TIP3    H161678   5.607   5.612   1.177  0.7007 -0.7187  1.8440
13421TIP3    H261679   5.475   5.626   1.250 -1.0354 -0.4688 -1.1580
13422TIP3   OH261680   5.176   1.922  13.079 -0.6581 -0.1760 -0.1376
13422TIP3    H161681   5.120   1.881  13.013  0.4050 -0.4334 -0.9206
13422TIP3    H261682   5.261   1.879  13.068 -0.4100 -0.1138  1.3107
13423TIP3   OH261683   3.459   4.546  15.985  0.0777 -0.5149 -0.3681
13423TIP3    H161684   3.425   4.615  16.041 -2.4135 -2.1328  0.2776
13423TIP3    H261685   3.471   4.587  15.899 -1.2823  0.7438  0.0147
13424TIP3   OH261686   5.392   5.128  12.798  0.0106  0.1595  1.3028
13424TIP3    H161687   5.414   5.061  12.733 -1.9024  0.0488  0.6972
13424TIP3    H261688   5.388   5.209  12.747 -1.5767  0.0610  1.2040
13425TIP3   OH261689   3.412   5.768  15.473 -0.9184 -0.1129 -0.4548
13425TIP3    H161690   3.337   5.819  15.502  0.1425  0.4593  1.4894
13425TIP3    H261691   3.449   5.818  15.400 -0.1096  1.8038  1.1794
13426TIP3   OH261692   4.002   1.377  15.375 -0.6218  0.2901  0.3299
13426TIP3    H161693   4.002   1.366  15.279 -0.6586  1.3340  0.2056
13426TIP3    H261694   3.999   1.287  15.408 -0.9286 -0.0833 -0.6500
13427TIP3   OH261695   1.389   5.888   3.676 -0.2353  0.2315  0.1557
13427TIP3    H161696   1.342   5.900   3.593 -0.2384  1.2421  0.2905
13427TIP3    H261697   1.471   5.846   3.651 -0.7413 -0.5687 -0.2100
13428TIP3   OH261698   1.522   0.693   0.770  0.0810 -0.2465  0.1120
13428TIP3    H161699   1.559   0.770   0.726 -0.4306 -1.1429 -2.0327
13428TIP3    H261700   1.596   0.633   0.780  0.9682  1.1991  3.7095
13429TIP3   OH261701   4.384   5.637  14.713 -0.7453  0.2336 -0.2498
13429TIP3    H161702   4.372   5.663  14.804  0.6381 -3.1603  1.0674
13429TIP3    H261703   4.478   5.617  14.706 -0.6474  1.1794 -2.6998
13430TIP3   OH261704   4.889   0.300  11.468  0.0383 -0.2280 -0.1511
13430TIP3    H161705   4.881   0.206  11.452  0.5817 -0.4766  0.9402
13430TIP3    H261706   4.800   0.334  11.456 -0.0409 -0.7635 -1.2036
13431TIP3   OH261707   2.983   0.251  11.439  0.2181  0.0357 -0.3355
13431TIP3    H161708   2.974   0.234  11.345 -0.0043 -0.6526 -0.1912
13431TIP3    H261709   2.985   0.164  11.479  0.1724  0.3316  0.3118
13432TIP3   OH261710   2.887   4.268   4.078 -0.3699  0.4611  0.0328
13432TIP3    H161711   2.835   4.337   4.037  0.0035  1.4515  1.1908
13432TIP3    H261712   2.972   4.309   4.095  0.4901 -0.8429 -0.9328
13433TIP3   OH261713   5.827   5.862   0.182  0.0390 -0.6630  0.2898
13433TIP3    H161714   5.749   5.861   0.126 -1.6008  2.5124  2.2346
13433TIP3    H261715   5.900   5.876   0.122 -1.6390  2.7187 -1.2249
13434TIP3   OH261716   3.661   1.783  13.515 -0.2956 -0.0776  0.0690
13434TIP3    H161717   3.626   1.865  13.482  2.0800  0.3191 -1.7367
13434TIP3    H261718   3.645   1.720  13.444  1.5715 -0.1148 -0.3717
13435TIP3   OH261719   2.592   0.051  12.833 -0.3232 -0.3832 -0.3308
13435TIP3    H161720   2.515   0.088  12.876  0.1532  2.2298 -1.5428
13435TIP3    H261721   2.665   0.102  12.865  1.1636 -3.3109  1.3916
13436TIP3   OH261722   4.777   0.502   3.087 -0.8190 -0.9164  0.3251
13436TIP3    H161723   4.857   0.454   3.111  0.2713  1.0301  0.8548
13436TIP3    H261724   4.735   0.520   3.171 -2.1748 -2.4132  0.0132
13437TIP3   OH261725   0.592   0.467  14.843  0.6403 -0.0424  0.3345
13437TIP3    H161726   0.532   0.407  14.887  0.3870 -0.4135 -0.5013
13437TIP3    H261727   0.535   0.535  14.807  0.8420  0.2294  0.5214
13438TIP3   OH261728   5.937   2.323  15.306 -0.6341  0.0505  1.1542
13438TIP3    H161729   5.980   2.239  15.322 -1.3493 -0.6823 -0.5217
13438TIP3    H261730   5.955   2.375  15.385 -0.9254 -1.9721  2.6304
13439TIP3   OH261731   3.489   6.664   5.605 -0.7830 -0.2582  0.9124
13439TIP3    H161732   3.437   6.591   5.640 -0.7234  0.1343  1.8387
13439TIP3    H261733   3.458   6.741   5.653 -1.1064  0.4121 -0.3115
13440TIP3   OH261734   1.925   4.165  13.775  0.8171  0.1987  0.1479
13440TIP3    H161735   1.833   4.159  13.751  0.8965  0.1210 -0.1430
13440TIP3    H261736   1.950   4.075  13.796  1.2538 -0.0703 -1.3932
13441TIP3   OH261737   3.595   0.976  15.307  0.1951 -0.1616  0.1779
13441TIP3    H161738   3.581   1.051  15.365 -0.6336  0.5660 -0.9180
13441TIP3    H261739   3.670   1.001  15.252 -0.4154  0.1170 -0.5500
13442TIP3   OH261740   4.695   4.243   5.687 -0.3321  0.1427  0.1103
13442TIP3    H161741   4.625   4.206   5.633 -0.7493 -0.0781  0.7860
13442TIP3    H261742   4.699   4.184   5.763  1.4093 -0.5659 -0.4848
13443TIP3   OH261743   1.126   5.034   2.512 -0.1299 -0.4927  0.2287
13443TIP3    H161744   1.060   5.088   2.555 -0.8467 -1.8634  0.9323
13443TIP3    H261745   1.210   5.068   2.543 -0.5929 -0.2901  1.3037
13444TIP3   OH261746   2.757   2.427   0.466  0.5035 -0.0130 -0.2530
13444TIP3    H161747   2.735   2.518   0.487  0.3060  0.0535 -0.7391
13444TIP3    H261748   2.738   2.379   0.547  0.7288  0.3935  0.0459
13445TIP3   OH261749   2.117   2.858  10.841 -0.0787  0.0619 -0.4068
13445TIP3    H161750   2.191   2.830  10.896 -0.2267 -1.0823 -0.7865
13445TIP3    H261751   2.157   2.916  10.776  0.4003 -0.1303 -0.2908
13446TIP3   OH261752   0.567   5.305  11.517 -0.4992  0.3514 -0.3780
13446TIP3    H161753   0.662   5.294  11.511 -0.5373  0.5591 -1.8463
13446TIP3    H261754   0.532   5.217  11.505 -0.4813  0.1567  0.9419
13447TIP3   OH261755   3.319   1.525  16.499 -0.0901 -0.4164 -0.0981
13447TIP3    H161756   3.291   1.603  16.451 -1.0822 -1.0690 -0.6049
13447TIP3    H261757   3.363   1.560  16.577  0.0750  0.6458 -0.6402
13448TIP3   OH261758   0.479   3.099  11.520  0.4848  0.2139 -0.0375
13448TIP3    H161759   0.469   3.004  11.523 -1.5247  0.4165  1.2120
13448TIP3    H261760   0.518   3.116  11.434 -1.1577 -1.5848 -1.2260
13449TIP3   OH261761   1.418   5.579  12.183 -0.6759 -0.1746  0.0469
13449TIP3    H161762   1.444   5.530  12.105 -0.4804 -2.2867  1.3622
13449TIP3    H261763   1.325   5.600  12.168 -0.3282  0.5799 -1.2656
13450TIP3   OH261764   0.817   1.482  11.099  0.6944 -0.4132  0.6215
13450TIP3    H161765   0.824   1.425  11.175  2.4130 -0.5387  0.4123
13450TIP3    H261766   0.840   1.426  11.024  1.7563  0.3627  0.3414
13451TIP3   OH261767   0.847   2.557   5.657  0.0827 -0.0762  0.3280
13451TIP3    H161768   0.899   2.521   5.729 -1.7183 -0.3955  1.5331
13451TIP3    H261769   0.816   2.481   5.608  0.6803  0.1114 -0.3710
13452TIP3   OH261770   1.639   0.448   0.818  0.1093 -0.2350 -0.1764
13452TIP3    H161771   1.636   0.355   0.841 -0.7297  0.3996  2.5434
13452TIP3    H261772   1.709   0.453   0.752 -0.4516 -2.8908 -1.1307
13453TIP3   OH261773   2.298   1.667   6.179 -0.4534  0.3901  0.3362
13453TIP3    H161774   2.249   1.619   6.111 -0.1514 -1.0692  1.0980
13453TIP3    H261775   2.381   1.690   6.137  0.3188 -1.7227  0.5524
13454TIP3   OH261776   5.884   6.675   3.030  0.1737  0.0240  0.2672
13454TIP3    H161777   5.954   6.610   3.029  0.6020  0.4049  1.9568
13454TIP3    H261778   5.810   6.632   2.988  0.9989 -0.8759 -0.3083
13455TIP3   OH261779   3.308   6.408  14.651  1.2772  0.3548  0.3781
13455TIP3    H161780   3.283   6.466  14.579 -0.7529 -0.3721  0.4251
13455TIP3    H261781   3.226   6.363  14.675  1.6435  1.2088  3.7481
13456TIP3   OH261782   0.816   4.334   1.715 -0.6529 -0.2812 -0.3640
13456TIP3    H161783   0.784   4.423   1.730 -0.7658 -0.1574 -1.3016
13456TIP3    H261784   0.851   4.307   1.800 -1.5324  0.2805  0.1905
13457TIP3   OH261785   1.088   1.359   4.626  0.0636  0.6921  0.6824
13457TIP3    H161786   1.151   1.377   4.696  0.3522  0.0739  0.5893
13457TIP3    H261787   1.099   1.265   4.608 -2.1996  0.1128  1.9714
13458TIP3   OH261788   2.418   4.902  12.740 -0.4598 -0.5418  0.6032
13458TIP3    H161789   2.389   4.856  12.661 -0.9753  0.4996  0.1655
13458TIP3    H261790   2.513   4.890  12.740 -0.1653  1.2303 -1.3982
13459TIP3   OH261791   0.409   4.454   1.569  0.1554  0.2036 -0.4555
13459TIP3    H161792   0.476   4.506   1.612  0.2382 -0.8875  0.8102
13459TIP3    H261793   0.332   4.463   1.624  0.8763 -2.9737  1.3192
13460TIP3   OH261794   2.715   5.815   5.473  0.5527 -0.0694  0.7457
13460TIP3    H161795   2.803   5.778   5.481  0.8667  0.8699  2.0481
13460TIP3    H261796   2.710   5.880   5.544 -1.3725 -0.4646  1.0185
13461TIP3   OH261797   5.289   6.345   3.277  0.0308 -0.0989  0.4222
13461TIP3    H161798   5.359   6.390   3.323  0.9140 -0.7077 -0.2921
13461TIP3    H261799   5.271   6.400   3.201  1.0239 -0.8495 -0.3835
13462TIP3   OH261800   6.280   4.085  11.641 -0.5865 -0.3104 -0.1421
13462TIP3    H161801   6.329   4.140  11.703 -0.1304 -0.2696 -0.5372
13462TIP3    H261802   6.345   4.026  11.604 -1.2956 -2.0563  1.2516
13463TIP3   OH261803   3.017   5.360  12.708 -0.0651  0.2107  0.1815
13463TIP3    H161804   3.076   5.308  12.653 -1.1881 -0.9954  0.0680
13463TIP3    H261805   2.966   5.296  12.756 -0.9609  1.2344  0.6424
13464TIP3   OH261806   4.753   3.687  10.510  0.0141 -0.4263  0.6279
13464TIP3    H161807   4.657   3.690  10.520  0.0255 -1.5311  1.2160
13464TIP3    H261808   4.776   3.596  10.529  1.0749 -0.4291 -0.5764
13465TIP3   OH261809   0.491   6.171  12.608 -0.2036 -0.5888  0.2696
13465TIP3    H161810   0.523   6.257  12.582  1.1731 -0.9451  0.7201
13465TIP3    H261811   0.524   6.112  12.541 -0.3820 -0.8933  0.4486
13466TIP3   OH261812   5.313   4.400   2.858  0.0411  0.0848 -0.0856
13466TIP3    H161813   5.265   4.385   2.777 -0.8736  0.2861  0.4069
13466TIP3    H261814   5.248   4.389   2.927  0.3746  1.7991  0.5350
13467TIP3   OH261815   3.393   2.967   1.832  0.4076  0.3159 -0.3066
13467TIP3    H161816   3.417   2.995   1.921  1.1064  0.3103 -0.4826
13467TIP3    H261817   3.300   2.987   1.824 -0.3987 -2.2293  1.4304
13468TIP3   OH261818   4.950   0.259   1.782  0.0759 -0.4071  0.0258
13468TIP3    H161819   5.040   0.227   1.786  0.1338 -0.1200  2.2602
13468TIP3    H261820   4.909   0.225   1.861 -0.1655  3.8892  2.0687
13469TIP3   OH261821   2.251   5.580   4.173 -0.3589  0.3937 -0.2031
13469TIP3    H161822   2.192   5.510   4.144  0.6934 -1.1605  1.1549
13469TIP3    H261823   2.272   5.629   4.094 -0.4772 -1.3908 -1.3920
13470TIP3   OH261824   1.419   1.522  14.405 -0.2606 -0.0837 -0.2704
13470TIP3    H161825   1.391   1.594  14.348  1.1276  0.6333 -0.0982
13470TIP3    H261826   1.448   1.454  14.344  0.3843  0.3335 -0.4419
13471TIP3   OH261827   5.498   5.810   1.710 -0.4153 -0.2734 -0.2099
13471TIP3    H161828   5.479   5.723   1.745 -2.0724 -0.1345 -0.6668
13471TIP3    H261829   5.497   5.868   1.786  0.6989 -0.6306  0.0972
13472TIP3   OH261830   0.552   5.354  15.372 -0.1770  0.4852 -0.2848
13472TIP3    H161831   0.570   5.271  15.328  0.4220  0.9741 -1.0135
13472TIP3    H261832   0.465   5.345  15.408 -0.3704 -0.2371 -0.9142
13473TIP3   OH261833   4.452   4.169   0.267 -0.7843  0.0244 -0.5701
13473TIP3    H161834   4.388   4.235   0.294  1.0185  1.1158  1.3716
13473TIP3    H261835   4.421   4.139   0.182 -2.1246  2.8399 -1.2009
13474TIP3   OH261836   3.340   5.286   4.535 -0.0413  0.2472 -0.1517
13474TIP3    H161837   3.426   5.271   4.574 -0.4085 -0.7224  0.3099
13474TIP3    H261838   3.357   5.348   4.463  0.9509  0.4725  0.2586
13475TIP3   OH261839   5.658   5.587  13.506  0.0932 -0.2871 -0.0458
13475TIP3    H161840   5.595   5.599  13.577 -0.0146 -1.7875  0.1463
13475TIP3    H261841   5.611   5.618  13.428 -0.4543 -0.2935  0.2706
13476TIP3   OH261842   0.097   4.397  12.357  0.0146 -0.0099 -0.3215
13476TIP3    H161843   0.043   4.412  12.279  2.4198  1.0269 -1.9183
13476TIP3    H261844   0.126   4.485  12.383  2.8291 -0.5990 -1.0820
13477TIP3   OH261845   2.633   2.051  16.562  0.0366 -0.4206 -0.4862
13477TIP3    H161846   2.652   2.128  16.509  1.2437 -0.5881 -0.3331
13477TIP3    H261847   2.719   2.022  16.594 -0.5684 -0.8018  0.8799
13478TIP3   OH261848   2.636   1.529   4.217 -0.2434 -0.1350  0.4418
13478TIP3    H161849   2.585   1.498   4.142 -1.5265  0.2716  1.1111
13478TIP3    H261850   2.717   1.562   4.179 -0.3364 -1.0752 -0.6271
13479TIP3   OH261851   1.733   1.672   5.312 -0.0052 -0.0643 -0.3194
13479TIP3    H161852   1.734   1.603   5.379 -1.4665  0.6787  0.5113
13479TIP3    H261853   1.663   1.646   5.252 -1.3864  1.2346  0.6528
13480TIP3   OH261854   2.007   2.794  12.795  0.1116 -0.1387 -0.1848
13480TIP3    H161855   2.021   2.849  12.873  0.4172 -1.0078  0.3920
13480TIP3    H261856   2.081   2.813  12.739  0.3556 -0.1465  0.1301
13481TIP3   OH261857   6.312   3.829   4.828 -0.1070 -0.0571  0.5750
13481TIP3    H161858   6.407   3.826   4.817 -0.0411 -3.2895  1.0530
13481TIP3    H261859   6.277   3.833   4.739  0.5147 -1.7037  0.2188
13482TIP3   OH261860   2.912   5.608  11.782 -0.6746 -0.5407  0.1356
13482TIP3    H161861   2.898   5.701  11.763 -0.7854 -0.7634 -0.9526
13482TIP3    H261862   2.989   5.584  11.729 -0.9848 -1.1919 -0.0329
13483TIP3   OH261863   4.222   6.353  13.190  0.3402  0.1429  0.7723
13483TIP3    H161864   4.233   6.311  13.105  1.7056  0.7779  0.6043
13483TIP3    H261865   4.218   6.281  13.252  0.2242 -0.3058  0.2542
13484TIP3   OH261866   2.650   1.525   3.573  0.2459 -0.0455 -0.4730
13484TIP3    H161867   2.613   1.512   3.661 -0.2903  3.1495 -0.1001
13484TIP3    H261868   2.745   1.521   3.587  0.1881  1.3069  0.4677
13485TIP3   OH261869   3.658   0.019   0.461 -0.1109 -0.7073  0.7313
13485TIP3    H161870   3.619  -0.067   0.481  0.9403 -1.5659 -0.6958
13485TIP3    H261871   3.737  -0.002   0.411 -0.8855  1.1482 -1.4416
13486TIP3   OH261872   1.437   1.488  16.016 -0.0914 -0.5956 -0.2330
13486TIP3    H161873   1.505   1.426  15.992 -0.4903 -0.5489 -1.5538
13486TIP3    H261874   1.475   1.539  16.087  0.5009 -1.8740  0.4007
13487TIP3   OH261875   0.490   1.785  16.255  0.1761  0.1120  0.5742
13487TIP3    H161876   0.577   1.795  16.293  0.2534 -0.0761  0.4473
13487TIP3    H261877   0.433   1.838  16.310  0.4363  0.5514  0.4274
13488TIP3   OH261878   5.491   3.151   2.021 -0.1448  0.2816  0.0302
13488TIP3    H161879   5.435   3.202   2.080  0.4635 -0.4704  1.3227
13488TIP3    H261880   5.481   3.060   2.052  0.9504  0.0038 -0.4014
13489TIP3   OH261881   2.003   0.174  11.623 -1.0090 -0.1980 -0.1141
13489TIP3    H161882   1.969   0.116  11.691 -1.2281 -0.9371 -0.8343
13489TIP3    H261883   1.998   0.123  11.542 -0.7136  0.6405 -0.6880
13490TIP3   OH261884   2.566   2.266  16.401  0.0398  0.4668  0.2881
13490TIP3    H161885   2.612   2.337  16.357  3.2304 -0.8961  1.1505
13490TIP3    H261886   2.519   2.220  16.332  0.6097  1.4769 -0.7903
13491TIP3   OH261887   5.185   0.296  11.094  0.1425 -0.3632  1.0283
13491TIP3    H161888   5.256   0.301  11.159  1.8047 -0.7846 -0.6810
13491TIP3    H261889   5.166   0.387  11.072  1.7748 -0.2627 -0.1408
13492TIP3   OH261890   4.699   2.781   4.202  0.1078  0.2243 -0.1676
13492TIP3    H161891   4.614   2.815   4.230 -0.2084 -0.1030 -0.7118
13492TIP3    H261892   4.753   2.860   4.188  0.2757  0.3941  1.3155
13493TIP3   OH261893   5.530   6.595  15.108 -0.2177  0.1677  0.3953
13493TIP3    H161894   5.475   6.668  15.137 -0.5140 -0.1057  0.5312
13493TIP3    H261895   5.500   6.576  15.019 -0.5478 -0.1759  0.5792
13494TIP3   OH261896   0.201   4.101  16.723  0.6241 -0.4619  0.2130
13494TIP3    H161897   0.171   4.042  16.792 -0.6066  0.4788  0.4980
13494TIP3    H261898   0.141   4.084  16.650  0.7015 -0.0568  0.0559
13495TIP3   OH261899   0.113   4.401  16.822  0.4461 -0.3991  0.3654
13495TIP3    H161900   0.184   4.456  16.855  0.7633  0.9881 -2.3688
13495TIP3    H261901   0.137   4.313  16.849  0.5881  0.5351  3.7667
13496TIP3   OH261902   6.429   4.517   1.481 -0.4008  0.3585  0.5249
13496TIP3    H161903   6.440   4.486   1.571 -1.4814 -1.5234  0.0618
13496TIP3    H261904   6.393   4.605   1.490  3.7488  2.1318  1.9085
13497TIP3   OH261905   6.091   2.825  14.037  0.7175  0.2472  0.5999
13497TIP3    H161906   6.133   2.911  14.033  1.2975 -0.0775 -0.7665
13497TIP3    H261907   5.999   2.842  14.016  1.2741  0.2812 -2.1273
13498TIP3   OH261908   5.129   1.065  11.392 -0.5638 -0.2249 -0.2509
13498TIP3    H161909   5.168   0.979  11.379  0.4699  0.0232  1.0237
13498TIP3    H261910   5.143   1.111  11.309 -1.5762 -1.4178 -1.1262
13499TIP3   OH261911   3.759   0.699   3.462  0.0469  0.3805 -0.9374
13499TIP3    H161912   3.807   0.761   3.518 -1.7172  0.7816  0.1940
13499TIP3    H261913   3.750   0.745   3.378 -0.2598  1.2139 -0.4638
13500TIP3   OH261914   6.681   4.108  11.293 -0.0421 -0.0790 -0.4405
13500TIP3    H161915   6.731   4.091  11.372 -0.6614 -2.3156 -0.4654
13500TIP3    H261916   6.730   4.063  11.223 -1.6928 -1.8420 -0.5541
13501TIP3   OH261917   2.837   2.984  16.767 -0.1773 -0.3516 -0.3509
13501TIP3    H161918   2.747   3.015  16.766  0.1683  0.7794  1.0567
13501TIP3    H261919   2.841   2.919  16.697 -2.5656 -1.8172  0.7667
13502TIP3   OH261920   2.503   4.908  11.186  0.4427  0.6274 -0.1026
13502TIP3    H161921   2.488   4.843  11.255 -0.3785  0.5798 -0.3099
13502TIP3    H261922   2.543   4.982  11.231  0.4666  0.3647  0.3160
13503TIP3   OH261923   1.371   0.722  13.691  0.4082 -0.4995 -0.3673
13503TIP3    H161924   1.419   0.641  13.675  0.8521  0.0615 -2.0484
13503TIP3    H261925   1.294   0.694  13.740  0.4905 -1.9759 -1.0166
13504TIP3   OH261926   5.454   3.677  17.055  0.0383  0.1322  0.2902
13504TIP3    H161927   5.408   3.603  17.095 -0.5912  0.3950  0.0568
13504TIP3    H261928   5.399   3.753  17.074  0.3255  0.4350 -0.0726
13505TIP3   OH261929   3.097   1.008  13.675  0.1243  0.5956  0.0068
13505TIP3    H161930   3.189   1.009  13.701  1.3820 -1.9127 -3.5324
13505TIP3    H261931   3.070   1.099  13.677  3.5138  1.7856 -1.1971
13506TIP3   OH261932   0.116   5.086   5.756 -0.4091 -0.1467 -0.9167
13506TIP3    H161933   0.085   5.120   5.840  0.6530  0.9932 -0.9537
13506TIP3    H261934   0.131   4.993   5.771 -3.2672 -0.6894 -0.7608
13507TIP3   OH261935   0.747   4.257   6.205  0.6457  0.6432 -0.1856
13507TIP3    H161936   0.731   4.295   6.292  1.9129 -0.0426  0.3683
13507TIP3    H261937   0.688   4.182   6.200  0.9141  0.3994  0.2800
13508TIP3   OH261938   0.231   5.497   0.036 -0.2197  0.3512  0.0719
13508TIP3    H161939   0.303   5.462   0.087 -0.8422 -1.7291 -0.3879
13508TIP3    H261940   0.158   5.437   0.052 -1.1731  1.0726 -1.2874
13509TIP3   OH261941   0.730   4.605  16.886 -0.1913 -0.0211 -0.1418
13509TIP3    H161942   0.779   4.640  16.961 -1.4524 -0.0396  0.7266
13509TIP3    H261943   0.702   4.518  16.914 -0.1053 -0.3040 -0.9111
13510TIP3   OH261944   0.921   1.865   2.293 -0.2244  0.4591  0.1122
13510TIP3    H161945   0.916   1.946   2.243 -0.6907 -1.0135 -2.4142
13510TIP3    H261946   1.009   1.865   2.330  0.0227  1.7776 -0.4187
13511TIP3   OH261947   5.029   2.612  12.958 -0.4099 -0.3079 -0.1154
13511TIP3    H161948   5.012   2.533  12.907 -0.4181 -0.4644  0.1275
13511TIP3    H261949   4.952   2.620  13.015  0.2155 -0.8968  0.8335
13512TIP3   OH261950   5.329   4.805  16.689 -0.1521 -0.3786 -0.0854
13512TIP3    H161951   5.258   4.753  16.651  0.6418 -0.3441 -1.7165
13512TIP3    H261952   5.349   4.762  16.772 -1.5920 -0.8030  0.0714
13513TIP3   OH261953   0.696   1.537  11.715  0.5000  0.0593  0.1904
13513TIP3    H161954   0.703   1.451  11.755  0.3257 -0.3512 -0.6342
13513TIP3    H261955   0.734   1.597  11.779 -3.3046  0.0169  2.8019
13514TIP3   OH261956   0.064   4.333   5.471  0.7006  0.4685 -0.1598
13514TIP3    H161957   0.034   4.389   5.399 -1.4812 -0.7026 -0.2432
13514TIP3    H261958   0.041   4.381   5.550 -1.1899 -0.2577 -0.2304
13515TIP3   OH261959   1.642   4.929   4.378  0.5626 -0.2233 -0.1867
13515TIP3    H161960   1.610   4.958   4.293 -0.1912 -1.3742 -0.3141
13515TIP3    H261961   1.578   4.864   4.408 -0.1369  1.3687  2.0473
13516TIP3   OH261962   5.218   3.577   2.060 -0.6295 -0.6706  0.2572
13516TIP3    H161963   5.195   3.637   2.131  1.5095 -0.4270  0.7888
13516TIP3    H261964   5.295   3.530   2.091  2.7999  2.0725 -3.2059
13517TIP3   OH261965   2.155   1.839  11.716  0.5272 -0.4593 -0.1610
13517TIP3    H161966   2.232   1.815  11.663  0.0640 -0.0306 -1.0552
13517TIP3    H261967   2.081   1.826  11.656  0.0579  0.8316  0.1218
13518TIP3   OH261968   4.620   4.388   0.170 -0.6966  0.0161 -0.9545
13518TIP3    H161969   4.580   4.317   0.220  1.9148 -1.2883 -0.5208
13518TIP3    H261970   4.548   4.446   0.147 -2.6839 -1.8976  0.1484
13519TIP3   OH261971   0.433   0.564   0.802  0.2702 -0.2922  0.1667
13519TIP3    H161972   0.399   0.562   0.712  1.0005  0.0166 -0.1205
13519TIP3    H261973   0.471   0.651   0.811  4.2043 -1.7138 -0.7557
13520TIP3   OH261974   0.622   3.409  16.923 -0.2711  0.4829 -0.5111
13520TIP3    H161975   0.534   3.385  16.953 -0.8602  0.2069 -2.3324
13520TIP3    H261976   0.610   3.493  16.879  0.4206  0.5331 -0.6059
13521TIP3   OH261977   1.551   6.466  15.359 -0.0125 -0.0806 -0.6883
13521TIP3    H161978   1.555   6.472  15.263 -1.2475  0.5111 -0.7147
13521TIP3    H261979   1.636   6.500  15.388 -0.1989  1.1961 -1.5291
13522TIP3   OH261980   4.239   3.041  14.402  0.5913  0.5290  0.0985
13522TIP3    H161981   4.234   3.017  14.495  0.5405  2.0699  0.5131
13522TIP3    H261982   4.169   3.105  14.390 -0.2268 -0.5580 -1.3189
13523TIP3   OH261983   1.776   2.756   1.732 -0.2579  0.2845 -0.5000
13523TIP3    H161984   1.796   2.769   1.824  1.1104 -0.6455 -0.6411
13523TIP3    H261985   1.861   2.753   1.688 -0.7561 -1.7140 -1.4390
13524TIP3   OH261986   4.702   0.514  14.154 -0.5639 -0.2300  0.4507
13524TIP3    H161987   4.686   0.456  14.229 -1.4025 -0.2132  0.2939
13524TIP3    H261988   4.778   0.565  14.180  1.6708 -2.9211 -0.2908
13525TIP3   OH261989   1.549   4.304  15.653  0.4113 -0.0797 -0.0491
13525TIP3    H161990   1.574   4.214  15.672 -0.8897 -0.4590 -0.0611
13525TIP3    H261991   1.602   4.356  15.714  0.1973 -0.9414  0.9085
13526TIP3   OH261992   3.787   0.606  14.736  0.1660 -0.9279 -0.0061
13526TIP3    H161993   3.774   0.531  14.795  1.0705 -0.0110  1.4203
13526TIP3    H261994   3.831   0.569  14.660 -0.9741 -2.1378 -0.1140
13527TIP3   OH261995   0.686   0.270  14.143  0.3527 -0.0769  0.6896
13527TIP3    H161996   0.614   0.239  14.089  0.1628  0.4223  0.6511
13527TIP3    H261997   0.659   0.357  14.172  1.0419  0.2191  0.4791
13528TIP3   OH261998   5.648   1.136   5.183 -0.2348 -0.4045  0.4261
13528TIP3    H161999   5.608   1.148   5.097  0.8996  0.7806  0.0322
13528TIP3    H262000   5.626   1.215   5.231 -0.5921 -0.9212  1.1219
13529TIP3   OH262001   0.124   0.265   1.394 -0.2540 -0.0361 -0.3473
13529TIP3    H162002   0.156   0.305   1.475 -1.0305 -1.5594  0.7593
13529TIP3    H262003   0.193   0.204   1.369 -0.5061 -0.3775 -0.2113
13530TIP3   OH262004   3.212   4.094  14.083 -0.0415  0.1435  0.2223
13530TIP3    H162005   3.207   4.043  14.164  0.6838 -0.4876 -0.1159
13530TIP3    H262006   3.283   4.156  14.098  0.4143 -0.2950 -0.1004
13531TIP3   OH262007   0.197   5.432  14.080 -0.3310 -0.2142  0.3746
13531TIP3    H162008   0.168   5.370  14.012 -0.7710  0.6717 -0.2633
13531TIP3    H262009   0.234   5.505  14.031 -0.4925  0.3576  1.1006
13532TIP3   OH262010   2.733   2.773  15.988  0.0721  0.8801 -0.7348
13532TIP3    H162011   2.795   2.826  15.940  0.1265  0.8183 -0.7330
13532TIP3    H262012   2.758   2.784  16.080  0.4468  0.3958 -0.7737
13533TIP3   OH262013   2.865   5.752  17.008  0.5863 -0.7594 -0.0655
13533TIP3    H162014   2.816   5.693  17.066  0.0625  0.6624  0.9900
13533TIP3    H262015   2.937   5.698  16.975  0.0424 -2.0347  0.7344
13534TIP3   OH262016   3.758   0.434  15.693  0.7050  0.6992  0.3010
13534TIP3    H162017   3.851   0.452  15.706  1.0658  0.4403 -1.6354
13534TIP3    H262018   3.734   0.487  15.617 -0.4113 -0.1853  0.0133
13535TIP3   OH262019   0.149   4.508   5.982 -0.3346  0.4154  0.3085
13535TIP3    H162020   0.159   4.474   6.071 -0.4060 -0.4695 -0.0117
13535TIP3    H262021   0.238   4.529   5.954  0.1040 -2.1275 -0.4774
13536TIP3   OH262022   2.396   2.082   0.367 -0.1934 -0.2009  0.6273
13536TIP3    H162023   2.411   2.003   0.418  0.7485 -1.1438 -1.0059
13536TIP3    H262024   2.301   2.086   0.356 -0.2948 -0.7384  1.2710
13537TIP3   OH262025   0.488   3.499   2.918  0.2551 -0.1499 -0.2814
13537TIP3    H162026   0.534   3.443   2.855 -0.0765 -2.6123  1.5047
13537TIP3    H262027   0.481   3.445   2.997  0.0621  2.5393  1.6806
13538TIP3   OH262028   6.223   0.334  13.575  0.1808  0.6094 -0.4468
13538TIP3    H162029   6.297   0.273  13.573 -0.2882  0.0304 -0.6058
13538TIP3    H262030   6.155   0.286  13.623 -0.3871  0.7817 -1.0696
13539TIP3   OH262031   5.098   5.239   4.152  0.7772 -0.4618  0.2552
13539TIP3    H162032   5.191   5.238   4.129  0.6119  0.4070 -0.5150
13539TIP3    H262033   5.086   5.162   4.207  2.1437 -0.0828  1.1346
13540TIP3   OH262034   3.910   0.129  11.131 -0.1495  0.2309 -0.0921
13540TIP3    H162035   3.959   0.154  11.053 -1.2201 -1.1598 -1.2653
13540TIP3    H262036   3.960   0.057  11.169 -1.7161 -1.9657 -1.9234
13541TIP3   OH262037   3.635   0.210  15.162  0.3462  0.2688 -0.1774
13541TIP3    H162038   3.658   0.190  15.071 -0.9561 -1.0414 -0.2596
13541TIP3    H262039   3.561   0.153  15.181 -0.0757  1.2699  1.3937
13542TIP3   OH262040   2.508   4.589   1.332  0.0748 -0.3797 -0.1333
13542TIP3    H162041   2.415   4.566   1.328  0.1569 -0.4510 -2.1780
13542TIP3    H262042   2.541   4.540   1.408 -1.9863  1.4667  2.1156
13543TIP3   OH262043   2.899   6.763  11.445 -0.0757  0.3147  0.0223
13543TIP3    H162044   2.878   6.725  11.530  1.9691  3.1609  1.9935
13543TIP3    H262045   2.964   6.703  11.408  0.2798 -0.1024  1.2597
13544TIP3   OH262046   1.788   2.640   2.401  0.3407 -0.4457  0.2213
13544TIP3    H162047   1.728   2.579   2.443  1.2392 -1.6712 -0.1985
13544TIP3    H262048   1.735   2.716   2.380 -0.2737 -0.0156  3.0070
13545TIP3   OH262049   2.331   0.666   2.169  0.0158  0.1870  0.5055
13545TIP3    H162050   2.312   0.685   2.261 -0.0069 -0.7287  0.7013
13545TIP3    H262051   2.410   0.612   2.172 -0.4085 -0.4763  0.0429
13546TIP3   OH262052   0.644   5.345  16.974  0.6928 -0.5334 -0.0622
13546TIP3    H162053   0.708   5.394  17.025  1.7209 -1.8974  0.0224
13546TIP3    H262054   0.690   5.323  16.893  1.1121 -3.2318  0.7991
13547TIP3   OH262055   6.597   2.300   3.779  0.3698 -0.1882 -0.0949
13547TIP3    H162056   6.604   2.214   3.820 -1.4121 -0.4803 -0.3245
13547TIP3    H262057   6.625   2.285   3.688  1.4938 -0.1810  0.2398
13548TIP3   OH262058   0.606   5.779  16.163 -0.2683 -0.1883  0.3990
13548TIP3    H162059   0.675   5.713  16.177 -2.2690 -2.7173 -0.8589
13548TIP3    H262060   0.552   5.743  16.093 -0.8949  3.4050 -1.1893
13549TIP3   OH262061   6.191   2.677   3.578 -0.4785 -0.0157  0.1376
13549TIP3    H162062   6.117   2.725   3.540 -0.3391 -1.2876 -1.9287
13549TIP3    H262063   6.253   2.745   3.604 -0.7186  1.0060 -1.7563
13550TIP3   OH262064   2.407   0.112   4.306  0.4746 -0.0874 -0.3487
13550TIP3    H162065   2.403   0.017   4.296 -1.3362  0.0325 -1.0697
13550TIP3    H262066   2.316   0.140   4.310  0.9708  1.6421 -0.3003
13551TIP3   OH262067   5.858   1.144  11.852  0.1153  0.4707 -0.5129
13551TIP3    H162068   5.791   1.170  11.915  0.7339  0.6624  0.0770
13551TIP3    H262069   5.936   1.127  11.905  0.3054 -0.5777 -1.1053
13552TIP3   OH262070   2.167   4.898   3.889  0.3690 -0.1108 -0.6290
13552TIP3    H162071   2.093   4.852   3.928  0.9600 -2.1817 -1.7771
13552TIP3    H262072   2.244   4.866   3.936  0.6638  1.2732 -0.1074
13553TIP3   OH262073   2.465   4.929   5.832  0.1647 -0.1657 -0.0757
13553TIP3    H162074   2.551   4.890   5.814 -0.0903 -0.3538 -0.9359
13553TIP3    H262075   2.478   5.023   5.817  0.5748  0.0004  1.2101
13554TIP3   OH262076   4.045   5.243   2.045  0.0080 -0.0633  0.2157
13554TIP3    H162077   3.960   5.278   2.068 -1.1794 -3.1008  0.9375
13554TIP3    H262078   4.094   5.240   2.128 -0.3346 -1.0952  0.3983
13555TIP3   OH262079   2.614   0.584   4.674  0.6276 -0.2137  0.1670
13555TIP3    H162080   2.542   0.552   4.728  1.2318  0.5032  1.4442
13555TIP3    H262081   2.690   0.535   4.704  0.5493 -1.7134 -1.8779
13556TIP3   OH262082   5.820   3.497  12.197  0.2749 -0.0548  0.1436
13556TIP3    H162083   5.885   3.559  12.232  0.5382 -0.0865 -0.2796
13556TIP3    H262084   5.779   3.459  12.275  1.7546 -1.0765  0.4778
13557TIP3   OH262085   0.595   4.402  16.494  0.2986  0.4598 -0.0341
13557TIP3    H162086   0.586   4.440  16.406 -0.0431  1.4136  0.3967
13557TIP3    H262087   0.527   4.335  16.498  0.9303 -0.2623 -0.8242
13558TIP3   OH262088   4.064   1.880   5.758  0.4518 -0.1511  0.0237
13558TIP3    H162089   4.028   1.893   5.846 -1.0138 -1.4855 -0.3214
13558TIP3    H262090   4.086   1.787   5.755  0.6129 -0.0901 -0.9714
13559TIP3   OH262091   4.696   1.803   4.039 -0.1226  0.2298  0.1142
13559TIP3    H162092   4.661   1.892   4.032 -1.0349 -0.1125  0.2225
13559TIP3    H262093   4.786   1.811   4.007 -1.0387  0.6560 -2.6853
13560TIP3   OH262094   5.846   2.413  13.610 -0.2780  0.5646  0.5022
13560TIP3    H162095   5.939   2.438  13.615 -0.2437  0.5474 -0.0263
13560TIP3    H262096   5.800   2.480  13.660 -0.1220  1.3373 -0.3817
13561TIP3   OH262097   6.209   6.233  13.579  0.4537 -0.3621 -0.6762
13561TIP3    H162098   6.305   6.238  13.586  0.3813  2.7943 -0.5088
13561TIP3    H262099   6.177   6.291  13.648 -1.6096 -1.0498 -0.9790
13562TIP3   OH262100   1.891   6.423  15.436 -0.0215 -0.7211 -0.5631
13562TIP3    H162101   1.843   6.379  15.507 -0.1727  0.5053  0.1252
13562TIP3    H262102   1.983   6.419  15.463 -0.1972  0.9405  0.4357
13563TIP3   OH262103   5.083   0.070   0.904  0.2809 -0.3805 -0.0320
13563TIP3    H162104   4.991   0.083   0.882 -0.1388 -1.4296  1.0374
13563TIP3    H262105   5.128   0.069   0.819 -0.8959 -1.4018 -0.6698
13564TIP3   OH262106   1.441   3.492  16.557  0.3661 -0.5910 -0.2204
13564TIP3    H162107   1.349   3.485  16.531  0.5725  0.1851 -1.1807
13564TIP3    H262108   1.474   3.402  16.552 -0.7968 -1.2229  1.9776
13565TIP3   OH262109   5.014   2.377  12.844  0.5946  0.0468  0.0841
13565TIP3    H162110   5.076   2.327  12.896 -1.2768 -2.9978 -0.3285
13565TIP3    H262111   5.046   2.368  12.754  1.1643  1.0786  0.1761
13566TIP3   OH262112   6.327   1.082   4.058  0.1217  0.2954 -0.3302
13566TIP3    H162113   6.416   1.088   4.025  0.1949  0.6170 -0.0858
13566TIP3    H262114   6.336   1.089   4.153  0.1254 -2.8752  0.0147
13567TIP3   OH262115   6.625   0.773  13.283 -0.0347  0.1684  0.4374
13567TIP3    H162116   6.640   0.863  13.255  1.9666 -0.4179 -0.6070
13567TIP3    H262117   6.637   0.774  13.378 -0.6069  1.0851  0.5066
13568TIP3   OH262118   0.773   3.545   1.912  0.4128  0.3625 -0.1000
13568TIP3    H162119   0.720   3.472   1.945 -0.4176  0.7764 -0.4891
13568TIP3    H262120   0.817   3.580   1.989 -0.0134  0.1108  0.2616
13569TIP3   OH262121   5.033   3.139   0.187 -0.5997 -1.1497 -0.5987
13569TIP3    H162122   4.987   3.210   0.143  0.2790  0.1059  0.4418
13569TIP3    H262123   5.125   3.166   0.187 -0.7391  0.1752  4.0179
13570TIP3   OH262124   0.066   4.568   4.851 -0.0985  0.4460 -0.2247
13570TIP3    H162125   0.117   4.626   4.908 -1.3082  2.1477 -0.7883
13570TIP3    H262126   0.098   4.587   4.763 -0.7541  0.5072 -0.4490
13571TIP3   OH262127   5.881   0.340   3.633  0.2326  0.3090  0.2053
13571TIP3    H162128   5.962   0.293   3.615  0.2418  1.0947 -2.2875
13571TIP3    H262129   5.910   0.426   3.665  0.4109  0.5097 -0.4703
13572TIP3   OH262130   1.204   3.939   5.443 -0.0157  0.3008  0.0639
13572TIP3    H162131   1.117   3.976   5.459  0.3134  0.4916  1.5547
13572TIP3    H262132   1.210   3.933   5.348 -1.4017  0.8937 -0.0911
13573TIP3   OH262133   0.304   1.626   2.832 -0.2627 -0.1400  0.3498
13573TIP3    H162134   0.231   1.573   2.865 -0.0468 -0.3516  0.4880
13573TIP3    H262135   0.277   1.650   2.743  0.6134 -2.3711 -0.5842
13574TIP3   OH262136   4.660   0.825  12.141  0.7085 -0.5011  0.5612
13574TIP3    H162137   4.627   0.823  12.051  1.4704  0.7911  0.2225
13574TIP3    H262138   4.593   0.872  12.191  0.5994 -0.6188  0.5246
13575TIP3   OH262139   6.106   0.665  14.139 -0.0115 -0.8513  0.0344
13575TIP3    H162140   6.042   0.624  14.197 -1.0307  1.2052  0.4698
13575TIP3    H262141   6.089   0.759  14.147  0.5604 -0.4168 -2.7406
13576TIP3   OH262142   3.137   2.657   3.807  0.5676 -0.6881  0.1019
13576TIP3    H162143   3.130   2.568   3.842  0.3555 -0.9596 -0.6066
13576TIP3    H262144   3.230   2.668   3.788  0.9261 -0.0175  2.0339
13577TIP3   OH262145   2.670   3.063  16.576 -0.0920 -0.4987  0.4865
13577TIP3    H162146   2.697   3.090  16.488  1.8191 -1.4598  0.7240
13577TIP3    H262147   2.619   2.984  16.562  2.4631 -2.2466  0.2976
13578TIP3   OH262148   5.054   1.991   1.435 -0.0827 -0.4551 -0.6768
13578TIP3    H162149   5.108   1.912   1.440 -0.0442 -0.4367 -0.7931
13578TIP3    H262150   4.983   1.968   1.374 -0.8378 -0.8526  0.3283
13579TIP3   OH262151   0.845   0.080  13.589  0.4497 -0.4452 -0.0499
13579TIP3    H162152   0.822   0.144  13.656 -0.2706  0.0612 -0.7651
13579TIP3    H262153   0.783   0.008  13.603  0.4902 -0.4685  0.0103
13580TIP3   OH262154   1.129   0.781  15.721 -0.3488 -0.0785 -0.1573
13580TIP3    H162155   1.056   0.772  15.660 -0.0648  2.9554 -1.0931
13580TIP3    H262156   1.202   0.811  15.668  0.7270 -0.1424  1.2306
13581TIP3   OH262157   6.127   6.124  16.955  0.0828 -0.4222  0.6131
13581TIP3    H162158   6.039   6.129  16.918 -0.3184  0.6581  1.6623
13581TIP3    H262159   6.115   6.137  17.049  1.4054  0.3714  0.7015
13582TIP3   OH262160   1.223   5.791   6.263 -0.1236 -0.2206 -0.2819
13582TIP3    H162161   1.303   5.840   6.284 -0.4727  0.0585  0.4454
13582TIP3    H262162   1.211   5.732   6.338 -0.8373  0.0541 -0.1742
13583TIP3   OH262163   0.072   4.032  11.583  0.2849  0.0675  0.1076
13583TIP3    H162164   0.079   4.074  11.668 -0.0418 -1.3200  0.8546
13583TIP3    H262165   0.147   3.972  11.581  2.2344  2.3592 -1.9683
13584TIP3   OH262166   4.274   3.782   0.389  0.8787 -0.0966 -0.8100
13584TIP3    H162167   4.321   3.699   0.375 -0.7054 -0.9967 -1.0583
13584TIP3    H262168   4.327   3.830   0.452  0.7939 -2.1920  0.9417
13585TIP3   OH262169   6.747   2.585  15.235 -0.3517  0.3312  0.0877
13585TIP3    H162170   6.681   2.516  15.231  1.4591 -1.4363 -2.0017
13585TIP3    H262171   6.830   2.538  15.239  0.9272  2.4152 -0.5977
13586TIP3   OH262172   4.059   5.574  13.056 -0.8151  0.3801  0.5411
13586TIP3    H162173   3.979   5.580  13.003 -1.9085 -0.0201  2.0930
13586TIP3    H262174   4.040   5.506  13.120  0.5078  0.7993  1.4125
13587TIP3   OH262175   4.216   2.896  11.881 -0.4476  0.1500  0.3582
13587TIP3    H162176   4.287   2.883  11.818 -0.7723  1.1251 -0.2261
13587TIP3    H262177   4.189   2.987  11.869 -1.8284 -0.2103  0.5323
13588TIP3   OH262178   4.747   4.144  12.226  0.1797  0.1222  0.4770
13588TIP3    H162179   4.697   4.205  12.280 -0.2250  0.0435  0.2022
13588TIP3    H262180   4.779   4.078  12.287  0.4831  0.5198  0.7505
13589TIP3   OH262181   4.005   1.568   0.856  0.2496 -0.3848 -0.2579
13589TIP3    H162182   4.012   1.660   0.830 -0.5557 -0.6023 -1.3151
13589TIP3    H262183   3.911   1.552   0.865  0.2661 -1.4737 -1.5757
13590TIP3   OH262184   3.821   4.657  15.769  0.1734 -0.5881  0.2286
13590TIP3    H162185   3.819   4.585  15.831 -0.4354 -1.3649 -0.6493
13590TIP3    H262186   3.891   4.635  15.708 -1.3106 -1.5543 -1.2456
13591TIP3   OH262187   6.599   2.736  16.426 -0.5203 -0.0936 -0.1615
13591TIP3    H162188   6.602   2.812  16.367 -1.0196 -0.6703 -0.9578
13591TIP3    H262189   6.678   2.744  16.479 -1.0741  1.5382  0.4946
13592TIP3   OH262190   6.673   0.579   1.822 -0.0190 -0.0025  0.4302
13592TIP3    H162191   6.606   0.617   1.765  0.5834 -1.1282 -1.0829
13592TIP3    H262192   6.656   0.618   1.908 -1.7397  0.7778 -0.2227
13593TIP3   OH262193   4.403   1.999  15.882 -0.4729  0.2339  0.1661
13593TIP3    H162194   4.310   1.986  15.864 -0.2695  0.1725 -0.8807
13593TIP3    H262195   4.418   2.092  15.869 -0.2417  0.1224 -0.3906
13594TIP3   OH262196   3.527   2.503  16.146 -0.3350 -0.0469  0.5949
13594TIP3    H162197   3.596   2.437  16.146 -1.0643 -0.8312 -0.3151
13594TIP3    H262198   3.515   2.525  16.053 -2.1178 -0.8108  0.6115
13595TIP3   OH262199   5.460   3.832  14.353 -0.2465 -0.0703 -0.3200
13595TIP3    H162200   5.404   3.782  14.292  0.1754 -0.8529 -0.0795
13595TIP3    H262201   5.541   3.846  14.304  0.6409 -1.9350  0.5159
13596TIP3   OH262202   3.232   5.218   6.744  0.0987  0.3340 -0.6601
13596TIP3    H162203   3.287   5.151   6.703  1.1165  1.3365 -0.9668
13596TIP3    H262204   3.145   5.204   6.706  0.4869 -0.2689 -1.3585
13597TIP3   OH262205   1.701   4.532   5.154 -0.2091  0.0224 -0.0214
13597TIP3    H162206   1.649   4.538   5.073 -0.9557 -1.3608  0.3181
13597TIP3    H262207   1.713   4.438   5.167 -0.2240  0.2180  1.5603
13598TIP3   OH262208   3.799   0.074   1.188  0.0854 -0.0233  0.0157
13598TIP3    H162209   3.824   0.095   1.098  0.2052  0.1827  0.0971
13598TIP3    H262210   3.857   0.127   1.243 -0.1105 -0.0083  0.2131
13599TIP3   OH262211   1.793   1.752  14.683  0.2161  0.1462  0.3269
13599TIP3    H162212   1.735   1.682  14.655  0.4384  0.3954 -0.8161
13599TIP3    H262213   1.859   1.709  14.738 -2.3060  0.1891  3.7094
13600TIP3   OH262214   6.609   0.405   4.886 -0.3033  0.2496  0.2435
13600TIP3    H162215   6.694   0.376   4.918 -1.3812 -1.0233  2.1418
13600TIP3    H262216   6.619   0.499   4.873  0.9855  0.3845  1.8780
13601TIP3   OH262217   4.195   1.398  12.038  0.5244 -0.3087 -0.2772
13601TIP3    H162218   4.215   1.448  11.959  2.0027 -0.2453  0.1043
13601TIP3    H262219   4.209   1.307  12.012  2.1656 -0.2148  0.2015
13602TIP3   OH262220   3.898   4.210   3.357 -0.2577 -0.4961 -0.3657
13602TIP3    H162221   3.921   4.221   3.265  0.1803 -2.0131 -0.4580
13602TIP3    H262222   3.811   4.250   3.365  0.3894  1.1142 -1.0540
13603TIP3   OH262223   4.966   4.587   6.789  0.0790 -0.0764  0.3577
13603TIP3    H162224   4.922   4.628   6.864 -0.3546  1.1473 -0.5290
13603TIP3    H262225   4.896   4.561   6.730  0.4424 -0.0987 -0.0766
13604TIP3   OH262226   2.678   0.221   5.668 -0.1131  0.5022 -0.3192
13604TIP3    H162227   2.766   0.258   5.674 -0.2253  0.9325 -1.1644
13604TIP3    H262228   2.649   0.242   5.579 -0.1883 -1.6076 -0.8509
13605TIP3   OH262229   5.296   2.223  14.994  0.1448 -0.3694 -0.1670
13605TIP3    H162230   5.375   2.202  14.945  1.7290  1.0463  1.6424
13605TIP3    H262231   5.292   2.319  14.994 -2.0752 -0.4013 -0.9319
13606TIP3   OH262232   4.465   4.702  17.217 -0.2036 -0.1529 -0.1629
13606TIP3    H162233   4.431   4.617  17.247 -1.2518 -0.5763 -2.3783
13606TIP3    H262234   4.560   4.690  17.215 -0.2164 -0.6569  1.2494
13607TIP3   OH262235   3.091   3.299   4.820  0.4015  0.1343  0.1437
13607TIP3    H162236   3.159   3.251   4.773  0.3040  0.2375 -0.1018
13607TIP3    H262237   3.024   3.233   4.838  1.3025 -0.3763  1.8818
13608TIP3   OH262238   6.386   1.728   2.220  0.1769  0.1005 -0.5354
13608TIP3    H162239   6.440   1.724   2.141  0.3568 -1.4031 -0.3782
13608TIP3    H262240   6.430   1.792   2.276 -0.0920  1.3684 -1.7198
13609TIP3   OH262241   6.461   0.887  10.780 -0.0604 -0.4372  0.3878
13609TIP3    H162242   6.554   0.879  10.798 -0.1524 -1.6263  0.3945
13609TIP3    H262243   6.457   0.915  10.689  0.3019 -1.1419  0.1471
13610TIP3   OH262244   2.286   1.670  15.448 -0.0563  0.0102  0.0281
13610TIP3    H162245   2.381   1.678  15.440 -0.1728  0.3955 -1.0743
13610TIP3    H262246   2.267   1.702  15.536  0.9073 -0.7839  0.5427
13611TIP3   OH262247   1.915   2.405  11.304  0.4619 -0.2029  0.7508
13611TIP3    H162248   1.982   2.473  11.300  1.0896 -0.6863  2.2806
13611TIP3    H262249   1.956   2.328  11.265 -1.0490  0.7712 -3.2626
13612TIP3   OH262250   3.085   2.248  15.639 -0.3370  0.2527  0.5388
13612TIP3    H162251   3.157   2.311  15.633 -1.7462  1.7976 -2.3757
13612TIP3    H262252   3.123   2.164  15.616  1.1779  0.3320  2.5092
13613TIP3   OH262253   1.740   1.641  12.955 -0.0002  0.1590 -0.2931
13613TIP3    H162254   1.659   1.594  12.973  0.1544 -0.3902 -0.9810
13613TIP3    H262255   1.714   1.712  12.898 -0.0242  0.0927 -0.3651
13614TIP3   OH262256   1.957   3.093   0.991  0.0706 -0.0883  0.4514
13614TIP3    H162257   1.987   3.094   0.900  0.8217 -1.1603  0.6574
13614TIP3    H262258   1.913   3.008   1.000 -1.6365  0.7618  0.6184
13615TIP3   OH262259   0.639   5.038   2.009 -0.6462 -0.1135 -0.1267
13615TIP3    H162260   0.643   4.993   2.093 -0.5493 -0.0946 -0.1208
13615TIP3    H262261   0.729   5.066   1.992 -0.7400  0.2379 -0.0431
13616TIP3   OH262262   4.174   6.205   6.487  0.2919 -0.0065 -0.0568
13616TIP3    H162263   4.111   6.250   6.544 -0.7828 -3.7541  2.0548
13616TIP3    H262264   4.256   6.251   6.502 -1.1136  2.6985  0.0044
13617TIP3   OH262265   5.506   0.440   4.976 -0.0513  0.1525 -0.1157
13617TIP3    H162266   5.544   0.524   5.000 -1.2179  0.3949  1.0264
13617TIP3    H262267   5.458   0.458   4.895 -0.3596  0.6121  0.1625
13618TIP3   OH262268   0.339   0.651  11.056  0.1966  0.3801 -0.2654
13618TIP3    H162269   0.380   0.570  11.026  1.7688  0.3421  1.7328
13618TIP3    H262270   0.300   0.689  10.977  2.9466 -0.2796 -2.0886
13619TIP3   OH262271   4.425   4.675   3.770  0.6361  0.1900 -0.1858
13619TIP3    H162272   4.387   4.591   3.742 -0.9195  0.8863 -0.2816
13619TIP3    H262273   4.412   4.733   3.696  0.5849  0.8406  0.3217
13620TIP3   OH262274   5.170   4.652   0.632  0.2363 -0.3477 -0.2687
13620TIP3    H162275   5.231   4.590   0.673  0.0175 -1.1164 -1.0581
13620TIP3    H262276   5.218   4.734   0.627  0.3623 -0.3071  1.2627
13621TIP3   OH262277   0.227   3.301   0.404  0.0787 -0.0304 -0.0432
13621TIP3    H162278   0.140   3.333   0.426 -0.0963 -0.8630  0.5001
13621TIP3    H262279   0.248   3.342   0.320 -1.7380 -1.5470 -1.3029
13622TIP3   OH262280   5.429   4.890  15.587  0.2165 -0.2731  0.2270
13622TIP3    H162281   5.363   4.923  15.648 -0.1728 -0.6992  0.0297
13622TIP3    H262282   5.380   4.864  15.510  0.7705  0.8967 -0.5571
13623TIP3   OH262283   5.802   5.598  12.689  0.0997 -0.0206  0.7212
13623TIP3    H162284   5.852   5.677  12.672 -0.0030  0.1359  1.1593
13623TIP3    H262285   5.834   5.535  12.624 -0.7147  0.7628 -0.4949
13624TIP3   OH262286   2.860   2.507  14.802  0.5495 -0.3828  0.0531
13624TIP3    H162287   2.866   2.521  14.896  3.5027 -0.0262 -0.0974
13624TIP3    H262288   2.895   2.588  14.764  0.4101 -0.9513 -1.3348
13625TIP3   OH262289   6.205   3.063   6.595  0.3381  0.0343 -0.3243
13625TIP3    H162290   6.293   3.028   6.589  0.5799 -0.0198  2.3044
13625TIP3    H262291   6.198   3.097   6.684 -1.2428  3.0131 -1.4218
13626TIP3   OH262292   4.536   6.266   5.863 -0.3062 -0.2662  0.4358
13626TIP3    H162293   4.610   6.280   5.922 -0.6137 -2.4331  1.4102
13626TIP3    H262294   4.507   6.177   5.882 -2.6664  0.2505 -0.4994
13627TIP3   OH262295   0.941   1.879  17.166 -0.2180 -0.5592  0.0302
13627TIP3    H162296   1.003   1.843  17.103  0.9806 -0.7712  1.2923
13627TIP3    H262297   0.995   1.915  17.236 -1.4905  0.6574  0.4345
13628TIP3   OH262298   5.528   4.690   3.873 -0.3381 -0.3540  0.0986
13628TIP3    H162299   5.621   4.696   3.891 -0.4801  2.7866  0.2587
13628TIP3    H262300   5.522   4.686   3.777 -0.0558  0.7847  0.0267
13629TIP3   OH262301   4.802   1.186  13.489 -0.0759 -0.3670 -0.4110
13629TIP3    H162302   4.775   1.110  13.439  0.3938 -1.4798  0.9479
13629TIP3    H262303   4.740   1.191  13.562  0.5628 -0.1452  0.1403
13630TIP3   OH262304   1.124   5.881   2.871 -0.1420  0.0497 -0.8139
13630TIP3    H162305   1.091   5.798   2.837 -0.6356 -0.0240 -0.1694
13630TIP3    H262306   1.051   5.941   2.864 -0.3137 -0.0090  0.2496
13631TIP3   OH262307   3.294   0.859  15.268 -0.4100 -0.3344  0.2188
13631TIP3    H162308   3.283   0.945  15.228  2.2044 -0.2558 -0.5233
13631TIP3    H262309   3.259   0.798  15.204  0.5333  0.0186 -0.6665
13632TIP3   OH262310   3.528   3.795   6.500  0.1553 -0.2656 -0.1339
13632TIP3    H162311   3.455   3.852   6.526  0.7100  0.5041 -0.2303
13632TIP3    H262312   3.577   3.782   6.581  0.1963 -0.3641 -0.1750
13633TIP3   OH262313   6.352   6.741  15.911  0.0099  0.6771 -0.3314
13633TIP3    H162314   6.338   6.654  15.946 -0.8375  0.1789 -1.7951
13633TIP3    H262315   6.275   6.791  15.938 -0.7208  0.2487 -1.5418
13634TIP3   OH262316   2.110   1.926  15.544 -0.6733  0.2000  0.1048
13634TIP3    H162317   2.142   1.886  15.464 -2.5065 -2.4120  0.5337
13634TIP3    H262318   2.142   2.016  15.541  2.1170 -0.7207 -1.8890
13635TIP3   OH262319   3.200   4.583   0.958  0.5769  0.1508  0.3361
13635TIP3    H162320   3.135   4.594   1.028 -1.4018 -2.3049 -0.9271
13635TIP3    H262321   3.262   4.520   0.993 -1.3100 -2.3366 -0.5314
13636TIP3   OH262322   5.527   3.412  13.659 -0.3098  0.2600  0.2372
13636TIP3    H162323   5.563   3.327  13.683  1.1930  1.2217  1.5209
13636TIP3    H262324   5.599   3.458  13.616 -0.7621  1.3099  0.5800
13637TIP3   OH262325   3.843   2.637  13.301  0.5480  0.0137  0.0385
13637TIP3    H162326   3.921   2.680  13.335  0.8456 -0.9517  0.6195
13637TIP3    H262327   3.784   2.708  13.277 -0.0171  0.8269  3.2967
13638TIP3   OH262328   6.104   5.315  12.860  0.2702  0.1930  0.9290
13638TIP3    H162329   6.108   5.222  12.837 -0.5033 -0.2578  2.4772
13638TIP3    H262330   6.071   5.358  12.780  2.1227 -0.6044 -0.3255
13639TIP3   OH262331   4.310   2.623   5.034  0.6275  0.1402 -0.0061
13639TIP3    H162332   4.304   2.632   4.939  1.8926 -0.1651 -0.1315
13639TIP3    H262333   4.219   2.624   5.064  0.1267 -1.1773 -1.3525
13640TIP3   OH262334   2.017   6.749  14.441  0.5543  0.3688  0.5818
13640TIP3    H162335   2.014   6.671  14.497  1.0134 -0.7086 -0.8070
13640TIP3    H262336   1.930   6.752  14.400  0.4059  0.8184  0.9336
13641TIP3   OH262337   2.741   5.352  13.370  0.2615 -0.1696  0.2390
13641TIP3    H162338   2.693   5.293  13.427 -1.9901 -1.3400 -2.6193
13641TIP3    H262339   2.806   5.394  13.427 -1.3911 -1.6446  3.4240
13642TIP3   OH262340   4.953   5.711   1.111  0.4679  0.1463  0.2291
13642TIP3    H162341   4.890   5.697   1.039  1.6148  0.1264 -0.8011
13642TIP3    H262342   4.913   5.668   1.186 -0.1005 -1.1245 -0.7588
13643TIP3   OH262343   6.329   1.606   2.924 -0.6528 -0.1950 -0.5505
13643TIP3    H162344   6.264   1.582   2.990 -1.2828  0.3760 -0.9399
13643TIP3    H262345   6.413   1.604   2.969 -1.1322  0.7459  0.4274
13644TIP3   OH262346   6.695   1.231   1.562  0.6244 -0.1459  0.4353
13644TIP3    H162347   6.694   1.233   1.658  1.6107 -2.7119  0.5807
13644TIP3    H262348   6.762   1.295   1.538 -1.1494  2.1621  1.2649
13645TIP3   OH262349   3.408   5.499  14.021  0.3241 -0.3015 -0.1021
13645TIP3    H162350   3.313   5.502  14.013  0.2669 -0.3426  0.4616
13645TIP3    H262351   3.441   5.520  13.934 -0.2299 -2.7308 -0.9914
13646TIP3   OH262352   5.773   6.057  14.340  0.4006 -0.0117 -0.5569
13646TIP3    H162353   5.742   6.070  14.251  0.4774 -0.4631 -0.6543
13646TIP3    H262354   5.739   5.971  14.365 -1.3104  0.9462  0.5793
13647TIP3   OH262355   4.276   2.955   2.649  0.4764 -0.3718  0.0095
13647TIP3    H162356   4.242   2.976   2.735 -0.2548  2.0033 -0.7638
13647TIP3    H262357   4.216   2.890   2.614 -0.4245  0.1694  0.5218
13648TIP3   OH262358   1.565   1.640   0.066  0.3517  0.1965  0.2435
13648TIP3    H162359   1.553   1.735   0.072  1.0105  0.3891 -1.0304
13648TIP3    H262360   1.591   1.625  -0.025  1.8977 -1.0162  0.8425
13649TIP3   OH262361   1.111   0.013  13.547  0.2676 -0.5621  0.4781
13649TIP3    H162362   1.030   0.064  13.551  0.2308 -0.6485  0.8940
13649TIP3    H262363   1.083  -0.078  13.560  0.5383 -0.4890  1.6993
13650TIP3   OH262364   3.069   5.845   5.774  0.2582  0.4499 -0.6570
13650TIP3    H162365   3.128   5.769   5.774  1.1672  1.1405 -1.0785
13650TIP3    H262366   3.089   5.891   5.855 -2.2903 -1.2116  1.0708
13651TIP3   OH262367   3.105   2.005   3.003  0.0343 -0.4492  0.4741
13651TIP3    H162368   3.058   2.079   2.966  1.9005  1.3759  1.5418
13651TIP3    H262369   3.050   1.975   3.075 -2.6515 -2.7553 -2.2818
13652TIP3   OH262370   1.397   2.845   1.456  0.6525 -0.0102 -0.1614
13652TIP3    H162371   1.425   2.754   1.452  1.2088  0.1226  0.5513
13652TIP3    H262372   1.396   2.874   1.365  0.6949 -0.6572 -0.3717
13653TIP3   OH262373   6.186   5.129   4.835  0.3834  0.0614  0.6567
13653TIP3    H162374   6.139   5.158   4.757 -0.5448 -0.8214  0.8654
13653TIP3    H262375   6.275   5.164   4.824  0.4556 -0.5483 -1.1032
13654TIP3   OH262376   3.056   1.352   4.573  0.2028  0.5778 -0.2740
13654TIP3    H162377   3.137   1.393   4.541  0.2319  0.5874 -0.1890
13654TIP3    H262378   3.014   1.318   4.494  0.4439  0.2971 -0.2833
13655TIP3   OH262379   3.189   4.485   3.092  0.1047  0.4639  0.4609
13655TIP3    H162380   3.155   4.466   3.180 -2.2169  1.8388 -0.0549
13655TIP3    H262381   3.214   4.577   3.095  2.2628 -0.0749  0.2909
13656TIP3   OH262382   1.399   4.023   2.457 -0.1310 -0.0262  0.2357
13656TIP3    H162383   1.387   3.929   2.462  0.8344 -0.4338 -2.9045
13656TIP3    H262384   1.330   4.054   2.398  0.6746  0.9234 -0.2477
13657TIP3   OH262385   2.770   6.019   4.816  0.1965 -0.1824 -0.7085
13657TIP3    H162386   2.677   6.019   4.835  0.3875 -0.9026  0.2618
13657TIP3    H262387   2.798   5.928   4.828  1.2818  0.2624  0.3535
13658TIP3   OH262388   3.705   1.393  16.392  0.1878 -0.9001  0.1396
13658TIP3    H162389   3.793   1.383  16.354  0.1089 -0.6221 -0.1156
13658TIP3    H262390   3.717   1.457  16.462  0.2739 -1.1899  0.3941
13659TIP3   OH262391   5.789   4.722  17.244  0.7195  0.9034  0.3224
13659TIP3    H162392   5.824   4.685  17.163  0.6717 -0.0282  0.7212
13659TIP3    H262393   5.864   4.767  17.283  1.3347 -0.5474  0.8588
13660TIP3   OH262394   4.907   2.670   1.863  0.0801 -0.4324  0.4268
13660TIP3    H162395   4.822   2.640   1.894 -1.8845  1.2439 -2.7368
13660TIP3    H262396   4.927   2.747   1.917 -0.7969 -0.4253  0.7587
13661TIP3   OH262397   5.814   5.265  11.753 -0.4763 -0.2068  0.8184
13661TIP3    H162398   5.814   5.233  11.663  3.4343  2.8932 -0.5707
13661TIP3    H262399   5.851   5.193  11.804 -0.2250 -1.0671 -0.5301
13662TIP3   OH262400   2.897   0.608  11.763  0.4834  0.1596 -0.1372
13662TIP3    H162401   2.821   0.655  11.730 -0.0334 -0.7033 -0.1974
13662TIP3    H262402   2.939   0.668  11.824 -0.6573  0.3689  0.4577
13663TIP3   OH262403   5.057   1.862  14.386  0.2590 -0.3557 -0.1367
13663TIP3    H162404   5.086   1.943  14.343 -1.1079 -0.5877 -1.6117
13663TIP3    H262405   5.138   1.814  14.403  1.3017  2.0733  2.5645
13664TIP3   OH262406   6.398   3.893   3.163  0.5259  0.6925  1.1169
13664TIP3    H162407   6.457   3.820   3.181  1.1623 -0.1505 -3.1890
13664TIP3    H262408   6.316   3.852   3.136  1.2424  1.2801 -2.5105
13665TIP3   OH262409   2.558   2.771  15.490  0.2845  0.3411 -0.0022
13665TIP3    H162410   2.542   2.813  15.405  0.8588 -0.9650 -0.7825
13665TIP3    H262411   2.500   2.817  15.551  0.9830  2.3335 -0.7829
13666TIP3   OH262412   2.763   6.468   1.973 -0.0918 -0.2085 -0.4307
13666TIP3    H162413   2.676   6.484   1.936  0.6645  1.2685 -1.7062
13666TIP3    H262414   2.756   6.498   2.064 -0.6875  0.7760 -0.7828
13667TIP3   OH262415   0.019   1.274   5.427 -0.2310 -0.5597  0.4058
13667TIP3    H162416  -0.031   1.215   5.483 -0.6321 -0.2731  0.3529
13667TIP3    H262417   0.006   1.360   5.466  0.2290 -0.4799  0.3944
13668TIP3   OH262418   5.765   1.808   0.043  0.0819 -0.0141  0.4930
13668TIP3    H162419   5.821   1.738   0.011 -1.6911 -1.2289 -0.1157
13668TIP3    H262420   5.779   1.880  -0.018  0.8794 -0.3289  0.2960
13669TIP3   OH262421   3.327   6.510   0.936 -0.1350 -0.5935 -0.4567
13669TIP3    H162422   3.255   6.560   0.976  0.6451  1.3407 -1.3186
13669TIP3    H262423   3.283   6.440   0.887 -1.3835  0.0234 -0.2633
13670TIP3   OH262424   2.625   5.357  17.255 -0.1229 -0.2680 -0.1344
13670TIP3    H162425   2.617   5.288  17.189 -0.1014 -0.6722  0.2874
13670TIP3    H262426   2.537   5.366  17.292  0.0050 -0.4754  0.2197
13671TIP3   OH262427   1.892   0.294  14.775 -0.0642 -0.7608 -0.2793
13671TIP3    H162428   1.983   0.293  14.746 -0.6570 -0.9242 -2.2476
13671TIP3    H262429   1.842   0.257  14.703 -1.9660  1.4213 -0.2258
13672TIP3   OH262430   5.439   6.165   6.133 -0.0814  1.2998  0.6490
13672TIP3    H162431   5.462   6.076   6.106  2.3154  1.9541  0.2688
13672TIP3    H262432   5.456   6.219   6.056 -3.1784  1.9637  0.2904
13673TIP3   OH262433   5.945   2.820   1.478  0.0493  0.5103 -0.5398
13673TIP3    H162434   6.026   2.861   1.508  0.1477 -0.2763  0.3170
13673TIP3    H262435   5.896   2.891   1.437  0.9133  1.1228 -0.5428
13674TIP3   OH262436   0.530   2.658   3.166  0.0996 -0.1359  0.3292
13674TIP3    H162437   0.524   2.575   3.213  2.2363 -0.4171  0.2131
13674TIP3    H262438   0.612   2.697   3.197  0.2123  0.9243 -1.1945
13675TIP3   OH262439   1.170   6.393  15.978 -0.1107 -0.7760  0.0592
13675TIP3    H162440   1.151   6.319  15.920  0.4648 -1.2221  0.4209
13675TIP3    H262441   1.265   6.403  15.972 -0.2489  0.3164 -0.4359
13676TIP3   OH262442   6.378   0.128  13.671  0.2682  0.1537 -0.0352
13676TIP3    H162443   6.362   0.033  13.669 -1.9979  0.4569  0.3735
13676TIP3    H262444   6.325   0.159  13.745  0.3696  1.8307 -0.6319
13677TIP3   OH262445   5.143   2.137  15.799  0.4522 -0.0869 -0.4628
13677TIP3    H162446   5.188   2.180  15.872  2.3437  1.2725 -2.3231
13677TIP3    H262447   5.053   2.169  15.804  0.6608  0.3459  0.9638
13678TIP3   OH262448   6.121   2.943  13.300  0.1657 -0.1125  0.6937
13678TIP3    H162449   6.150   3.027  13.265 -1.6872  1.1389  1.9888
13678TIP3    H262450   6.189   2.918  13.362  1.2314 -0.1131 -0.4384
13679TIP3   OH262451   1.316   0.005   6.605  0.1321  0.1416 -0.3345
13679TIP3    H162452   1.293  -0.059   6.673 -0.9756  0.2029 -0.6269
13679TIP3    H262453   1.411   0.009   6.607  0.2671 -1.9420 -0.6975
13680TIP3   OH262454   1.264   3.602   4.475  0.2577 -0.5081  0.1166
13680TIP3    H162455   1.310   3.651   4.407  0.7627 -0.3220  0.5876
13680TIP3    H262456   1.175   3.638   4.475  0.3014 -0.3903 -0.3186
13681TIP3   OH262457   1.586   4.128   0.504 -0.5832 -0.4175 -0.6333
13681TIP3    H162458   1.544   4.111   0.588 -1.8944 -1.2978 -1.4410
13681TIP3    H262459   1.627   4.214   0.515  0.6347 -1.1942  1.4015
13682TIP3   OH262460   1.561   1.715   0.590  0.1218  0.2166 -0.2024
13682TIP3    H162461   1.615   1.793   0.602 -1.2739  1.3058 -0.6599
13682TIP3    H262462   1.613   1.658   0.533  1.2467  0.7087  0.3047
13683TIP3   OH262463   3.979   5.488   2.439  0.4189  0.6249  0.0454
13683TIP3    H162464   4.042   5.537   2.492 -0.0443  1.2154  0.0699
13683TIP3    H262465   3.907   5.468   2.499  0.5509  0.0208  0.0001
13684TIP3   OH262466   0.988   1.695   3.095  0.6640 -0.4195  0.1915
13684TIP3    H162467   1.083   1.697   3.104  0.5354  0.9899  1.7393
13684TIP3    H262468   0.967   1.766   3.035  0.4838  0.7841  1.6188
13685TIP3   OH262469   2.314   4.682  16.478 -0.2405 -0.1323  0.1175
13685TIP3    H162470   2.369   4.743  16.526 -1.1367  1.2456 -0.5306
13685TIP3    H262471   2.371   4.646  16.410 -0.1062  1.2767 -0.5497
13686TIP3   OH262472   4.180   3.612  16.893  0.1632  0.2088  0.5201
13686TIP3    H162473   4.169   3.522  16.925  0.0205  0.4962  1.2995
13686TIP3    H262474   4.092   3.638  16.864 -0.3651  0.9501  2.6152
13687TIP3   OH262475   6.003   2.536  12.123  0.6117 -0.0227 -0.5766
13687TIP3    H162476   6.069   2.489  12.174 -0.7350 -0.4569  0.8320
13687TIP3    H262477   6.013   2.627  12.149  1.7178  0.1779 -1.6103
13688TIP3   OH262478   1.884   4.407   3.007  0.7641  0.0902 -0.2385
13688TIP3    H162479   1.913   4.428   2.918  0.2941  1.4789 -0.0889
13688TIP3    H262480   1.789   4.417   3.004  0.7340  0.0043  0.3924
13689TIP3   OH262481   4.323   0.780  11.603 -0.1629  0.0415 -0.5709
13689TIP3    H162482   4.373   0.855  11.634 -0.5650  0.0286  0.1274
13689TIP3    H262483   4.261   0.817  11.540 -0.5194  0.3333 -0.0504
13690TIP3   OH262484   2.126   0.696   3.852  0.5479  0.1953 -0.0750
13690TIP3    H162485   2.090   0.721   3.767 -0.4296  1.1620  0.5986
13690TIP3    H262486   2.212   0.658   3.831  0.1266 -0.0403 -1.5225
13691TIP3   OH262487   4.363   2.742  16.112  0.0480  0.0089  0.0248
13691TIP3    H162488   4.355   2.825  16.064 -0.0920 -0.5282 -0.9196
13691TIP3    H262489   4.285   2.692  16.087 -0.4865  0.0453  1.5360
13692TIP3   OH262490   4.342   4.080  13.077  0.0131 -0.3397 -0.3954
13692TIP3    H162491   4.320   4.171  13.054 -0.5113 -0.4491 -0.3389
13692TIP3    H262492   4.387   4.046  13.000  2.0013  0.5741  0.3108
13693TIP3   OH262493   5.661   2.392   3.032  0.1655  0.3984 -0.5767
13693TIP3    H162494   5.619   2.455   2.974 -1.3937 -0.3330 -0.2899
13693TIP3    H262495   5.647   2.307   2.989  0.1351 -0.0040  0.2156
13694TIP3   OH262496   6.237   6.112   4.213  0.1664  0.3415 -0.2158
13694TIP3    H162497   6.259   6.023   4.241 -0.3950 -0.3336 -1.7761
13694TIP3    H262498   6.322   6.154   4.201  0.4620 -0.2113 -0.1276
13695TIP3   OH262499   1.416   0.263   2.864  0.2158  0.5587  0.2859
13695TIP3    H162500   1.485   0.270   2.798 -1.4748  0.7824 -1.5407
13695TIP3    H262501   1.375   0.350   2.866 -0.7742  0.1051  0.4640
13696TIP3   OH262502   5.411   4.239  12.322  0.0037  0.1612 -0.4070
13696TIP3    H162503   5.446   4.260  12.235 -1.6667 -0.2384 -1.2204
13696TIP3    H262504   5.424   4.145  12.331 -2.0340 -0.2751 -1.3453
13697TIP3   OH262505   4.610   2.651   0.521 -0.3177 -0.1830  0.0555
13697TIP3    H162506   4.597   2.712   0.449  0.2311 -1.8431 -1.5423
13697TIP3    H262507   4.693   2.677   0.561 -0.0966  0.1249 -0.6033
13698TIP3   OH262508   0.608   2.713  14.505  0.1395  0.0833  0.1603
13698TIP3    H162509   0.563   2.759  14.576  0.9653  0.3745  0.5080
13698TIP3    H262510   0.681   2.770  14.482 -0.8814  0.6677 -1.8853
13699TIP3   OH262511   2.470   5.001  17.171 -0.0841 -0.3079  0.8972
13699TIP3    H162512   2.547   5.016  17.116 -0.7051 -0.5680 -0.0496
13699TIP3    H262513   2.494   4.926  17.225  0.3808 -0.2939  0.7180
13700TIP3   OH262514   1.113   4.272  16.286  0.0424 -0.2605 -0.4533
13700TIP3    H162515   1.083   4.318  16.207 -0.0235 -0.4565 -0.5432
13700TIP3    H262516   1.064   4.190  16.286  0.6118 -0.6050 -0.6239
13701TIP3   OH262517   5.338   0.844  12.405 -0.1727 -0.0777 -0.2664
13701TIP3    H162518   5.301   0.917  12.455  0.7757  1.1908 -1.3400
13701TIP3    H262519   5.319   0.866  12.314 -0.7595 -1.7100 -0.5582
13702TIP3   OH262520   6.566   3.500  12.438  0.2417 -0.0031  0.3245
13702TIP3    H162521   6.607   3.586  12.432 -0.0319  0.1748  0.9266
13702TIP3    H262522   6.578   3.461  12.351 -2.3861  1.8830 -0.9986
13703TIP3   OH262523   4.680   0.372  13.640  0.5904  0.5135  0.2398
13703TIP3    H162524   4.621   0.442  13.669 -2.2906 -1.9414  0.7170
13703TIP3    H262525   4.736   0.356  13.716  0.0885  1.0918  0.7503
13704TIP3   OH262526   2.302   2.204  10.304 -0.3432 -0.4802  0.3148
13704TIP3    H162527   2.384   2.243  10.334 -0.1668 -0.0022 -0.7589
13704TIP3    H262528   2.328   2.125  10.258 -0.4010  0.0525 -0.6718
13705TIP3   OH262529   0.571   2.380   2.677 -0.0774  0.3481  0.6911
13705TIP3    H162530   0.576   2.292   2.715 -2.8862 -0.5718 -0.7498
13705TIP3    H262531   0.477   2.394   2.663  0.5072  2.1749 -2.2008
13706TIP3   OH262532   4.816   6.696  15.127  0.1714  0.2654 -0.4889
13706TIP3    H162533   4.764   6.751  15.069 -0.0494  0.4608 -0.1112
13706TIP3    H262534   4.754   6.633  15.163  0.4368 -0.2649 -0.9649
13707TIP3   OH262535   1.887   3.454   5.471  0.1527  0.0498 -0.9742
13707TIP3    H162536   1.977   3.481   5.488  0.0790 -0.1778 -0.1868
13707TIP3    H262537   1.895   3.365   5.438  0.1278 -0.7313  0.9776
13708TIP3   OH262538   0.748   0.346   4.992 -0.2548  0.0027 -0.1497
13708TIP3    H162539   0.824   0.401   4.975  0.1593 -0.2638  0.7928
13708TIP3    H262540   0.740   0.344   5.087 -0.4074 -1.3718 -0.1689
13709TIP3   OH262541   1.946   4.467   5.337 -0.1546 -0.0981  0.1308
13709TIP3    H162542   1.883   4.506   5.276 -0.9005  0.8404  1.4485
13709TIP3    H262543   1.898   4.462   5.420  0.4148 -2.4804  0.3760
13710TIP3   OH262544   1.393   2.090   5.761 -0.2518  0.1084 -0.6798
13710TIP3    H162545   1.368   2.180   5.782  1.0626  0.6517 -1.3249
13710TIP3    H262546   1.310   2.042   5.760 -0.8612  1.0658  0.7968
13711TIP3   OH262547   0.459   1.297   4.067  0.6319 -0.1871  0.1340
13711TIP3    H162548   0.528   1.363   4.074 -0.6554  1.2098  0.0881
13711TIP3    H262549   0.442   1.270   4.157 -0.7961  1.6927  0.4903
13712TIP3   OH262550   5.039   2.731  12.478 -0.4429  0.5192 -0.1848
13712TIP3    H162551   4.986   2.728  12.558  0.0981  3.1000  0.3719
13712TIP3    H262552   5.127   2.753  12.509 -0.0716  0.8241 -1.4315
13713TIP3   OH262553   5.252   2.613  15.430  0.9075 -0.4360 -0.0318
13713TIP3    H162554   5.275   2.529  15.391 -2.3663 -0.6404 -1.8230
13713TIP3    H262555   5.191   2.591  15.501 -1.2839  0.3993 -1.5637
13714TIP3   OH262556   5.709   0.587  15.757 -0.1728  0.0342 -0.0047
13714TIP3    H162557   5.715   0.667  15.704  0.4070  1.7671  2.5339
13714TIP3    H262558   5.785   0.535  15.730  0.0651  0.8221 -0.9087
13715TIP3   OH262559   0.320   1.343  11.435  0.1134 -0.2663  0.6128
13715TIP3    H162560   0.256   1.381  11.374  0.3695 -0.6361  0.1043
13715TIP3    H262561   0.405   1.366  11.398  0.3187 -2.8879 -0.7913
13716TIP3   OH262562   0.997   6.445   0.428  0.1365 -0.0244 -0.7433
13716TIP3    H162563   1.024   6.527   0.387 -0.9620  0.2168 -1.0217
13716TIP3    H262564   0.912   6.464   0.466  0.9367 -0.3717  1.3290
13717TIP3   OH262565   2.904   0.119  15.644  0.1016 -0.1446 -0.6602
13717TIP3    H162566   2.823   0.163  15.621  0.7409  1.1883 -0.4591
13717TIP3    H262567   2.902   0.111  15.739  0.8146  1.1817 -0.5109
13718TIP3   OH262568   0.087   3.228   1.183 -0.4782  0.4083 -0.2848
13718TIP3    H162569   0.180   3.246   1.190 -0.3837 -0.5311  2.0104
13718TIP3    H262570   0.046   3.314   1.171  0.6511  0.8129 -1.4593
13719TIP3   OH262571   0.802   4.340   0.160  0.3304  1.1488 -0.8273
13719TIP3    H162572   0.890   4.321   0.128  0.5937  0.4667  0.2650
13719TIP3    H262573   0.749   4.347   0.080  1.3108  1.2957 -1.4831
13720TIP3   OH262574   5.980   6.166   2.502 -0.2259 -0.1074  0.2099
13720TIP3    H162575   5.979   6.256   2.536 -0.7358  0.1220 -0.3885
13720TIP3    H262576   6.056   6.126   2.544  0.5606  0.8830 -0.2028
13721TIP3   OH262577   1.590   1.448   5.421 -0.1051 -0.3524 -0.1203
13721TIP3    H162578   1.503   1.411   5.411  1.0014 -3.7366  1.3239
13721TIP3    H262579   1.586   1.498   5.502 -0.7340 -0.3647 -0.1390
13722TIP3   OH262580   4.385   6.612   5.583  0.4689  0.2096  0.3573
13722TIP3    H162581   4.399   6.591   5.676  0.0262  0.8224  0.5722
13722TIP3    H262582   4.426   6.697   5.571  0.7795 -0.0004 -0.0857
13723TIP3   OH262583   3.431   0.288  11.418 -0.1789 -0.2356  0.1479
13723TIP3    H162584   3.520   0.258  11.439  0.2875 -0.0816 -1.4241
13723TIP3    H262585   3.428   0.378  11.450 -0.1007 -0.5499  1.0566
13724TIP3   OH262586   3.261   3.166  17.100  0.4093  0.1982 -0.0929
13724TIP3    H162587   3.269   3.258  17.076  0.5016  0.2531  0.1472
13724TIP3    H262588   3.261   3.120  17.016 -1.4629  0.5321 -0.3264
13725TIP3   OH262589   5.812   3.281   4.946  0.6322 -0.3285  0.2451
13725TIP3    H162590   5.831   3.297   4.854  1.4596 -2.0624  0.0796
13725TIP3    H262591   5.786   3.189   4.950  1.5514 -0.5605  1.8473
13726TIP3   OH262592   1.055   1.263   2.888  0.6039 -0.5223 -0.6216
13726TIP3    H162593   0.988   1.328   2.906  1.1211 -0.7877  2.8211
13726TIP3    H262594   1.006   1.183   2.867 -0.1062 -0.1938 -0.2291
13727TIP3   OH262595   2.747   1.826  14.217 -0.3436 -0.2817  0.0971
13727TIP3    H162596   2.768   1.765  14.146  1.8112 -1.2456  1.4758
13727TIP3    H262597   2.781   1.910  14.187  0.7369 -0.7242  0.0392
13728TIP3   OH262598   4.698   3.197  11.173  0.3172  0.5915 -0.1624
13728TIP3    H162599   4.685   3.257  11.247 -0.7151  0.1174  0.0611
13728TIP3    H262600   4.611   3.189  11.134  0.8565  0.8926 -1.4843
13729TIP3   OH262601   6.310   6.480  14.262  0.3998 -0.1043 -0.1545
13729TIP3    H162602   6.297   6.517  14.349 -0.3177 -2.4971  0.8272
13729TIP3    H262603   6.400   6.447  14.263  0.2456 -0.5288 -0.1550
13730TIP3   OH262604   4.547   5.099  12.712 -0.0388 -0.2338  0.0545
13730TIP3    H162605   4.558   5.129  12.802 -0.3697  1.7652 -0.5043
13730TIP3    H262606   4.597   5.162  12.660  0.7544 -1.7634 -1.1326
13731TIP3   OH262607   1.397   2.123   3.583 -0.2216  0.6803  0.3366
13731TIP3    H162608   1.380   2.038   3.624  0.6625  0.3485  0.0377
13731TIP3    H262609   1.465   2.163   3.638  0.6343  0.4346 -0.5165
13732TIP3   OH262610   4.693   4.387   3.538 -0.0007  0.4311 -0.5497
13732TIP3    H162611   4.782   4.395   3.573  0.2178  0.8848 -1.1955
13732TIP3    H262612   4.668   4.296   3.558  0.0974  0.6739  0.8058
13733TIP3   OH262613   4.329   4.346  11.505  0.2051 -0.1900  0.1015
13733TIP3    H162614   4.374   4.412  11.453 -0.7005  1.1155  0.8893
13733TIP3    H262615   4.247   4.389  11.532  0.5821 -0.8166  2.4750
13734TIP3   OH262616   6.316   3.755  16.849  0.2144  0.1239  0.3723
13734TIP3    H162617   6.326   3.782  16.940 -2.2271  0.5361  0.6067
13734TIP3    H262618   6.377   3.810  16.801  1.2178  0.2163  1.7028
13735TIP3   OH262619   4.149   0.210   1.748 -0.0380 -0.5790 -0.2953
13735TIP3    H162620   4.243   0.216   1.731 -0.1433  3.0149 -0.5672
13735TIP3    H262621   4.111   0.186   1.664  0.5267  0.6601 -0.9450
13736TIP3   OH262622   3.742   1.936  11.831 -0.0785  0.2578 -0.8044
13736TIP3    H162623   3.762   2.027  11.807 -1.6731  0.8846  0.0554
13736TIP3    H262624   3.704   1.898  11.751 -4.2568  1.9780  0.0934
13737TIP3   OH262625   1.165   1.027  13.458  0.3045 -0.3066  0.7350
13737TIP3    H162626   1.098   1.065  13.402 -0.0711 -2.8639 -0.7203
13737TIP3    H262627   1.196   1.100  13.512 -1.8700  1.4791 -0.2758
13738TIP3   OH262628   1.495   0.284  17.198  0.1524 -0.3127  0.0427
13738TIP3    H162629   1.587   0.260  17.194 -0.1673 -1.7589  0.6687
13738TIP3    H262630   1.448   0.203  17.179 -0.9978  0.3739 -0.1541
13739TIP3   OH262631   6.696   5.664  16.835  0.1332  0.2959 -0.2527
13739TIP3    H162632   6.608   5.662  16.799  0.0542 -1.1730 -0.0095
13739TIP3    H262633   6.692   5.613  16.916  0.9595  1.1547  0.3685
13740TIP3   OH262634   4.941   4.461  14.843  0.3616 -0.5978  0.2370
13740TIP3    H162635   4.847   4.466  14.862  0.1437 -2.2448 -0.3077
13740TIP3    H262636   4.983   4.486  14.925 -0.4837  2.1457 -0.0325
13741TIP3   OH262637   4.285   4.197  12.281 -0.1803 -0.2810 -0.0844
13741TIP3    H162638   4.322   4.216  12.195 -0.0745 -1.0631 -0.2190
13741TIP3    H262639   4.349   4.138  12.321 -0.4075 -0.2074  0.3920
13742TIP3   OH262640   2.667   4.724   3.837  0.2440  0.0857  0.2823
13742TIP3    H162641   2.613   4.703   3.760 -0.4207 -0.4867  0.8904
13742TIP3    H262642   2.625   4.802   3.875 -1.2317 -1.3370  1.7226
13743TIP3   OH262643   6.204   2.903  16.434  0.1006 -0.4733  0.3433
13743TIP3    H162644   6.153   2.867  16.506 -0.1851  0.5039  0.6462
13743TIP3    H262645   6.210   2.831  16.370  0.2889 -1.3164  1.2889
13744TIP3   OH262646   3.266   0.246   3.274  0.3600 -0.4040  0.0931
13744TIP3    H162647   3.328   0.303   3.229  0.5103 -0.5534  0.1076
13744TIP3    H262648   3.252   0.173   3.214 -1.0069  0.3750 -0.5924
13745TIP3   OH262649   1.758   2.712  14.237 -0.2298 -0.7984  0.3955
13745TIP3    H162650   1.754   2.772  14.163 -0.7303  1.9486  2.4595
13745TIP3    H262651   1.845   2.672  14.230  0.3656  0.5862 -0.8290
13746TIP3   OH262652   6.041   2.831  11.821  0.3607 -0.4621 -0.5172
13746TIP3    H162653   6.124   2.846  11.865  1.2308  0.2210 -2.3073
13746TIP3    H262654   6.036   2.736  11.811  0.6238 -0.5494  0.1288
13747TIP3   OH262655   4.905   3.736  17.044 -0.2486 -0.0164  0.4727
13747TIP3    H162656   4.874   3.723  17.133 -2.3646 -1.2097 -0.3588
13747TIP3    H262657   4.827   3.726  16.990  1.1197 -0.1969 -1.5878
13748TIP3   OH262658   4.785   1.458   5.845  0.0085  0.3907  0.5039
13748TIP3    H162659   4.802   1.524   5.913  0.6234 -1.2319  2.0170
13748TIP3    H262660   4.712   1.493   5.795  0.0694  2.0372  1.4947
13749TIP3   OH262661   1.580   3.159   2.520  0.5591  0.3296  0.2128
13749TIP3    H162662   1.522   3.178   2.593 -1.5587 -1.8271 -0.7512
13749TIP3    H262663   1.593   3.243   2.476 -1.4924  0.9893  0.7669
13750TIP3   OH262664   6.751   4.161  12.459  0.5477 -0.1404  0.1136
13750TIP3    H162665   6.801   4.131  12.535 -1.4185  0.1995  1.6624
13750TIP3    H262666   6.797   4.240  12.430  0.2167  0.9867  2.3754
13751TIP3   OH262667   1.246   1.532  11.499  0.4324 -0.2966  0.0191
13751TIP3    H162668   1.209   1.620  11.492  0.4428 -0.2279  0.7410
13751TIP3    H262669   1.191   1.478  11.443 -0.8639 -0.2133  1.1468
13752TIP3   OH262670   2.278   1.853   2.980  0.3924  0.0504 -0.1951
13752TIP3    H162671   2.209   1.807   3.028  0.1301  1.3103  0.6837
13752TIP3    H262672   2.303   1.792   2.911 -1.9360 -0.2843 -0.8589
13753TIP3   OH262673   4.833   4.654   5.172  0.4249 -0.0948 -0.2114
13753TIP3    H162674   4.851   4.560   5.171 -1.9941 -0.6258 -1.2389
13753TIP3    H262675   4.850   4.683   5.082  2.4337  0.8121  0.3838
13754TIP3   OH262676   2.523   0.342  15.410 -0.1807  0.1301 -0.5245
13754TIP3    H162677   2.553   0.408  15.348 -1.5739  0.9712 -0.3486
13754TIP3    H262678   2.432   0.365  15.428 -1.1559 -2.6074 -1.4633
13755TIP3   OH262679   5.758   3.953   0.390 -0.2613 -0.1318 -0.1672
13755TIP3    H162680   5.803   3.921   0.312  1.2865 -1.8001  1.3175
13755TIP3    H262681   5.785   3.893   0.460 -0.9667  1.7202  1.8196
13756TIP3   OH262682   4.577   0.197  11.357  0.0269  0.3082 -0.0299
13756TIP3    H162683   4.568   0.246  11.439 -2.3311  0.2545 -0.1954
13756TIP3    H262684   4.637   0.126  11.379  0.8358  1.2899  1.1436
13757TIP3   OH262685   6.076   6.434   1.285  0.4719  0.7991  0.0129
13757TIP3    H162686   6.057   6.345   1.317  0.6361  0.3737 -1.0379
13757TIP3    H262687   6.165   6.428   1.250  1.6684  2.1282  2.5343
13758TIP3   OH262688   5.809   6.305   5.141 -0.0166 -0.2056 -0.1827
13758TIP3    H162689   5.722   6.289   5.105  0.0932  0.0645 -0.5771
13758TIP3    H262690   5.827   6.229   5.196 -1.6636  0.9722  2.1822
13759TIP3   OH262691   2.464   0.073   0.794 -0.2364  0.1609 -0.3962
13759TIP3    H162692   2.551   0.049   0.827 -0.9447 -0.8437  0.8590
13759TIP3    H262693   2.481   0.129   0.719  1.5069 -0.6748 -0.6737
13760TIP3   OH262694   3.585   1.267  17.041  0.5694  0.4494  0.3139
13760TIP3    H162695   3.662   1.311  17.004 -0.6427  0.7321 -2.0474
13760TIP3    H262696   3.619   1.187  17.080  1.7380 -1.3989 -4.0021
13761TIP3   OH262697   6.457   1.301   5.152 -0.3052 -0.3677 -0.0599
13761TIP3    H162698   6.514   1.377   5.163 -1.0111 -0.0246  1.5597
13761TIP3    H262699   6.368   1.337   5.157 -0.8370 -0.6280 -4.1627
13762TIP3   OH262700   3.771   4.815   2.532 -0.0811  0.0057  0.0468
13762TIP3    H162701   3.689   4.854   2.503  0.3349  1.6232  0.9125
13762TIP3    H262702   3.745   4.753   2.601 -0.9832 -3.2287 -2.9379
13763TIP3   OH262703   1.006   4.243  12.484  0.1621 -0.5905  0.1601
13763TIP3    H162704   1.075   4.283  12.536 -1.5333  2.7260  0.1040
13763TIP3    H262705   0.933   4.231  12.544 -0.3802 -0.8268 -0.5230
13764TIP3   OH262706   5.111   4.163  10.592  0.0352 -0.5557 -0.6763
13764TIP3    H162707   5.151   4.088  10.548 -1.0940 -1.5957 -0.0031
13764TIP3    H262708   5.042   4.192  10.532  0.5514  0.0448 -0.9921
13765TIP3   OH262709   5.065   5.088  15.458  0.2419 -0.2871 -0.3411
13765TIP3    H162710   5.061   5.180  15.486 -1.5608 -0.1050 -1.1060
13765TIP3    H262711   5.137   5.086  15.395 -0.0442  0.7181 -0.7207
13766TIP3   OH262712   6.375   4.449   0.750 -0.2074  0.3578 -0.4429
13766TIP3    H162713   6.401   4.441   0.842  0.5997 -0.5502 -0.7298
13766TIP3    H262714   6.403   4.366   0.710 -2.6331 -0.2819 -1.0161
13767TIP3   OH262715   6.762   2.689  12.233  0.1338  0.3719  0.0228
13767TIP3    H162716   6.752   2.730  12.147  0.3165  1.4765  0.5071
13767TIP3    H262717   6.704   2.740  12.290  0.5332  0.0865  0.6914
13768TIP3   OH262718   5.692   3.289   0.190 -0.2581 -0.1544  0.2560
13768TIP3    H162719   5.636   3.295   0.113 -0.4655 -2.5054  0.1559
13768TIP3    H262720   5.632   3.299   0.264 -0.5097 -0.6226  0.1226
13769TIP3   OH262721   1.091   4.525  16.137  0.2078 -0.6000 -0.0101
13769TIP3    H162722   1.114   4.533  16.230  1.9813  0.7562 -0.4988
13769TIP3    H262723   1.098   4.614  16.103  0.0006 -1.1356 -1.5416
13770TIP3   OH262724   6.011   3.126   3.478 -0.0327  0.7391 -0.2378
13770TIP3    H162725   5.951   3.199   3.462 -0.6224  0.7094  1.5724
13770TIP3    H262726   6.023   3.126   3.573  0.5448 -1.0599 -0.2785
13771TIP3   OH262727   0.192   4.770   2.153  0.9295 -0.1708  0.0934
13771TIP3    H162728   0.243   4.810   2.083 -1.0636  0.7585 -0.9108
13771TIP3    H262729   0.135   4.840   2.185 -0.4300 -1.3834  0.4674
13772TIP3   OH262730   2.694   0.017   4.003 -0.0076  0.5183  0.0041
13772TIP3    H162731   2.639  -0.060   4.011 -0.2167  0.7467  0.7924
13772TIP3    H262732   2.634   0.091   4.011 -0.4730  0.9131 -4.4565
13773TIP3   OH262733   6.409   5.113   2.395  0.4880 -0.6927 -0.1979
13773TIP3    H162734   6.379   5.084   2.309  0.4848 -0.3871 -0.3019
13773TIP3    H262735   6.472   5.047   2.422 -0.0163 -1.1578 -0.1329
13774TIP3   OH262736   0.837   0.020  16.125  0.6923 -0.2336  0.1073
13774TIP3    H162737   0.877  -0.009  16.042 -0.1598  1.0093 -0.7815
13774TIP3    H262738   0.880  -0.033  16.192  3.5727  0.7408 -0.8117
13775TIP3   OH262739   5.691   5.324   3.796  0.6819 -0.5580  0.3750
13775TIP3    H162740   5.763   5.387   3.802  0.8504 -0.4707 -1.7818
13775TIP3    H262741   5.717   5.265   3.725 -1.2208 -0.7087 -0.2463
13776TIP3   OH262742   4.719   3.038   3.604  0.2467  0.2688  0.1329
13776TIP3    H162743   4.690   3.092   3.678  1.5051 -0.6230  1.3294
13776TIP3    H262744   4.776   3.096   3.554  0.7988  0.3594  0.8529
13777TIP3   OH262745   0.604   1.500   0.705 -0.3709  0.1695  0.3280
13777TIP3    H162746   0.611   1.545   0.621 -1.4640  5.2696  2.5481
13777TIP3    H262747   0.690   1.460   0.718  0.2352  0.2875 -2.5610
13778TIP3   OH262748   0.917   3.077   5.113 -0.5444 -0.0512  0.0317
13778TIP3    H162749   0.999   3.123   5.130 -0.2416 -0.6749  0.2986
13778TIP3    H262750   0.942   2.985   5.107 -1.3955 -0.4145  1.4327
13779TIP3   OH262751   2.404   0.966   6.063  0.2486 -0.3434  0.5646
13779TIP3    H162752   2.496   0.989   6.079 -0.1079  0.7518  1.1165
13779TIP3    H262753   2.363   0.969   6.150 -0.1433 -1.6912  0.4599
13780TIP3   OH262754   0.530   5.538  16.290 -0.4444  0.0090  0.0310
13780TIP3    H162755   0.500   5.463  16.342 -0.7712 -0.3100 -0.6160
13780TIP3    H262756   0.490   5.614  16.333 -0.7999 -0.2606  0.1829
13781TIP3   OH262757   6.575   1.966  13.124  0.6079 -0.6317 -0.0931
13781TIP3    H162758   6.492   1.967  13.077  0.3818 -3.1568  0.0989
13781TIP3    H262759   6.555   1.926  13.208  1.5953  1.0151  0.9715
13782TIP3   OH262760   5.444   4.408  12.754  0.1897  0.5312 -0.1239
13782TIP3    H162761   5.463   4.327  12.708 -0.4809  0.6925 -0.7128
13782TIP3    H262762   5.361   4.392  12.798 -0.1945  1.0413 -0.6355
13783TIP3   OH262763   0.336   0.507  15.121 -0.5819  0.0065  0.4426
13783TIP3    H162764   0.245   0.512  15.091 -1.3273  1.4973  2.6910
13783TIP3    H262765   0.332   0.536  15.213  2.0449 -0.7449  0.8544
13784TIP3   OH262766   1.165   0.328   3.071 -0.6151 -0.3160  0.2504
13784TIP3    H162767   1.127   0.264   3.011  0.1726  0.6348 -1.3226
13784TIP3    H262768   1.091   0.358   3.124 -1.7393  0.1138 -1.4562
13785TIP3   OH262769   1.212   3.241  15.808 -0.4599 -0.2383  0.0921
13785TIP3    H162770   1.121   3.238  15.835 -0.5449 -0.4428 -0.2105
13785TIP3    H262771   1.260   3.194  15.876 -0.5726 -0.0867  0.2761
13786TIP3   OH262772   1.517   0.667  15.738 -0.1962  0.2387 -0.5665
13786TIP3    H162773   1.440   0.611  15.742 -0.4940  0.5228 -1.8890
13786TIP3    H262774   1.565   0.637  15.661  1.7347 -0.8000  0.9610
13787TIP3   OH262775   0.275   5.140  13.189  0.3206  0.1795  0.4387
13787TIP3    H162776   0.339   5.191  13.139  0.9194  0.1274  1.1392
13787TIP3    H262777   0.285   5.171  13.279  0.0901 -0.5731  0.7291
13788TIP3   OH262778   5.661   0.237  15.136  0.4276 -0.6579  0.1548
13788TIP3    H162779   5.711   0.302  15.185  0.0110 -0.5194  0.4079
13788TIP3    H262780   5.719   0.161  15.129  2.0774  0.7150 -2.6816
13789TIP3   OH262781   4.873   4.215   0.527  0.4165 -0.7053 -0.1653
13789TIP3    H162782   4.945   4.181   0.581  0.6619  1.1303  0.7421
13789TIP3    H262783   4.900   4.303   0.503 -0.8649 -0.5437 -1.1264
13790TIP3   OH262784   6.239   4.388   2.717  0.0724 -0.6873  0.0153
13790TIP3    H162785   6.329   4.406   2.745 -0.6070  0.6607  1.5094
13790TIP3    H262786   6.191   4.375   2.799 -1.3052 -0.3261 -0.7100
13791TIP3   OH262787   6.293   4.158  12.395  0.3878  0.0944 -0.4181
13791TIP3    H162788   6.377   4.194  12.366  0.4830 -1.6661 -2.6217
13791TIP3    H262789   6.240   4.154  12.315 -1.6282  0.6330  0.8197
13792TIP3   OH262790   4.272   1.386   4.720  0.3411 -0.2827 -0.1744
13792TIP3    H162791   4.269   1.327   4.645  0.5714  0.1083 -0.4914
13792TIP3    H262792   4.353   1.436   4.708  0.2327 -0.0194  0.1848
13793TIP3   OH262793   0.568   2.873   6.090 -0.1777  0.0707 -0.5930
13793TIP3    H162794   0.565   2.796   6.148  1.4156  1.0631  0.8668
13793TIP3    H262795   0.476   2.896   6.077 -0.5823 -0.0957  1.6845
13794TIP3   OH262796   4.471   6.691  14.075  0.3021  0.2342  0.2613
13794TIP3    H162797   4.495   6.602  14.099 -0.2626 -0.5230 -1.7563
13794TIP3    H262798   4.514   6.746  14.140  1.5036 -1.4508  0.9632
13795TIP3   OH262799   1.283   2.580  14.727  0.0051  0.1058  0.0482
13795TIP3    H162800   1.358   2.633  14.699 -0.5000  0.5356 -0.5290
13795TIP3    H262801   1.313   2.535  14.805 -0.2290  2.8952  1.8764
13796TIP3   OH262802   0.218   3.169   3.144 -0.6280 -0.0777 -0.4137
13796TIP3    H162803   0.141   3.113   3.137 -0.4132 -0.6685  1.4415
13796TIP3    H262804   0.285   3.113   3.181  0.1843  0.9006 -0.3697
13797TIP3   OH262805   4.178   6.250   4.000  0.0547  1.0684  0.1113
13797TIP3    H162806   4.258   6.219   4.042 -0.1620 -0.0166 -0.2379
13797TIP3    H262807   4.208   6.291   3.919  0.1252 -1.8044 -1.4228
13798TIP3   OH262808   3.567   1.146   2.082 -0.6790 -0.3225  0.4326
13798TIP3    H162809   3.583   1.151   2.176  0.3123 -0.5162  0.2916
13798TIP3    H262810   3.576   1.054   2.060  0.5496 -0.1112 -0.0639
13799TIP3   OH262811   5.545   1.069   1.541 -0.6972 -0.6192 -0.0823
13799TIP3    H162812   5.641   1.069   1.544 -0.7143 -0.6572  2.5010
13799TIP3    H262813   5.519   0.991   1.591 -2.0888 -0.4531 -0.4951
13800TIP3   OH262814   3.824   3.953  13.782  0.3872 -0.1883  0.3782
13800TIP3    H162815   3.784   3.880  13.829  0.0718  1.4527  2.8691
13800TIP3    H262816   3.752   4.014  13.767  0.8195  0.0498 -0.7727
13801TIP3   OH262817   4.748   3.510  17.023 -0.0961  0.0100 -0.1912
13801TIP3    H162818   4.665   3.520  16.977 -0.6983 -0.2844  0.8073
13801TIP3    H262819   4.724   3.481  17.111  1.1024 -0.9872 -0.1568
13802TIP3   OH262820   1.425   4.870   1.566 -0.7765 -0.5309  0.7626
13802TIP3    H162821   1.337   4.903   1.585  0.0262  0.7763  2.4325
13802TIP3    H262822   1.477   4.895   1.642  1.3912 -0.0234 -0.7916
13803TIP3   OH262823   3.942   3.414   4.807 -0.8807  0.4975  0.0193
13803TIP3    H162824   3.863   3.362   4.819  0.3969 -1.4653  0.3445
13803TIP3    H262825   3.911   3.505   4.806 -3.2211 -0.2310 -0.7916
13804TIP3   OH262826   4.768   4.471   1.568  0.3669 -0.2740 -0.6460
13804TIP3    H162827   4.774   4.538   1.636  0.8642 -0.9097 -0.0406
13804TIP3    H262828   4.850   4.421   1.577 -0.3025 -1.3998 -0.6138
13805TIP3   OH262829   0.471   2.524   0.798 -0.3813 -0.0007 -0.4274
13805TIP3    H162830   0.517   2.602   0.766 -1.1348  0.1166 -1.2460
13805TIP3    H262831   0.444   2.548   0.887 -1.8953  1.2541 -1.1885
13806TIP3   OH262832   6.423   4.036   3.429 -0.1710  0.0106  0.0469
13806TIP3    H162833   6.354   3.980   3.464 -0.4930  0.3353 -0.0705
13806TIP3    H262834   6.440   4.003   3.341  0.0645 -0.2852  0.2010
13807TIP3   OH262835   6.590   3.497  11.154 -0.2868  0.2102  0.1941
13807TIP3    H162836   6.613   3.585  11.125  1.5409 -0.0015  0.8572
13807TIP3    H262837   6.671   3.447  11.145 -1.1832 -1.3220  0.2015
13808TIP3   OH262838   3.988   3.959  17.057  0.1070  0.5469  0.7640
13808TIP3    H162839   4.074   3.991  17.030  0.8437 -2.4192 -0.7850
13808TIP3    H262840   3.935   3.961  16.978  0.0005 -1.2702  0.7450
13809TIP3   OH262841   6.609   2.335   3.508 -0.2112 -0.0843 -0.5075
13809TIP3    H162842   6.522   2.358   3.543  0.3261 -0.3824  1.1068
13809TIP3    H262843   6.629   2.406   3.447 -2.4145 -1.0183 -2.4827
13810TIP3   OH262844   0.042   4.719   0.233  0.3811  0.0793 -0.3651
13810TIP3    H162845   0.018   4.809   0.213  1.3346  0.7631  1.3668
13810TIP3    H262846   0.126   4.706   0.188  0.3402  0.1190 -0.4532
13811TIP3   OH262847   0.690   4.662  13.172  0.2076  0.0819  0.0740
13811TIP3    H162848   0.632   4.633  13.243  0.2864 -2.8142 -0.9416
13811TIP3    H262849   0.638   4.726  13.123 -1.5425 -1.2427  0.1314
13812TIP3   OH262850   1.788   5.069   4.026  0.2204  0.0703 -0.2704
13812TIP3    H162851   1.812   5.158   4.052  0.8183 -0.4819  1.1888
13812TIP3    H262852   1.790   5.070   3.931  1.7832  1.2075 -0.2593
13813TIP3   OH262853   3.775   5.110  13.723  0.2645  0.0482  0.4414
13813TIP3    H162854   3.864   5.113  13.687 -0.1152  1.4601 -0.4901
13813TIP3    H262855   3.725   5.059  13.659  0.7231 -2.2898  1.8492
13814TIP3   OH262856   0.441   6.454  15.748  0.1493  0.5192  0.2909
13814TIP3    H162857   0.525   6.459  15.795  1.2340 -2.6614 -1.0254
13814TIP3    H262858   0.460   6.401  15.671 -2.4357  2.3178 -1.7700
13815TIP3   OH262859   3.869   5.406   5.364 -0.1098  0.1893 -0.2342
13815TIP3    H162860   3.957   5.401   5.327 -0.0443 -0.3938 -0.0085
13815TIP3    H262861   3.881   5.455   5.446  0.6787 -2.8762  1.6756
13816TIP3   OH262862   6.450   2.564   2.009 -0.0643 -0.0155  0.1265
13816TIP3    H162863   6.467   2.647   1.965 -0.4972  0.2531  0.4509
13816TIP3    H262864   6.420   2.505   1.940 -0.4533  0.3156  0.0064
13817TIP3   OH262865   2.597   1.579   4.687 -0.0323  0.1238 -0.0483
13817TIP3    H162866   2.556   1.647   4.740 -1.9726 -0.3690 -0.8371
13817TIP3    H262867   2.543   1.502   4.701  3.2657 -2.0286  2.5109
13818TIP3   OH262868   4.454   5.180   4.626 -0.5591  0.0990  0.0908
13818TIP3    H162869   4.454   5.102   4.681 -0.7238 -0.3678 -0.5687
13818TIP3    H262870   4.543   5.215   4.634 -0.5106 -0.1028  0.4507
13819TIP3   OH262871   1.663   3.236  14.024  0.6099 -0.0962 -0.1750
13819TIP3    H162872   1.657   3.203  13.934 -1.2030 -1.4075  0.3672
13819TIP3    H262873   1.751   3.211  14.053  0.3735 -1.7975 -0.8147
13820TIP3   OH262874   3.928   1.401   3.179 -0.3437  0.0950  0.6237
13820TIP3    H162875   3.900   1.479   3.131  0.7418 -0.5898 -1.2483
13820TIP3    H262876   4.021   1.417   3.197 -0.2692 -0.5082  0.7780
13821TIP3   OH262877   2.285   3.471   2.074  0.3375 -0.3181  0.0549
13821TIP3    H162878   2.286   3.456   1.980 -0.5396 -2.5353  0.3394
13821TIP3    H262879   2.365   3.520   2.092  1.2256 -1.0825 -1.6570
13822TIP3   OH262880   2.791   2.967  12.387 -0.3988  0.2459 -0.3964
13822TIP3    H162881   2.703   3.004  12.378 -1.8189 -1.4747  3.9576
13822TIP3    H262882   2.821   2.996  12.473  3.4244  0.7588 -1.7192
13823TIP3   OH262883   1.406   1.865  12.873  0.1981 -0.2145 -0.1714
13823TIP3    H162884   1.322   1.911  12.882  0.0644 -0.3017 -0.9127
13823TIP3    H262885   1.396   1.813  12.793  1.4159  0.7912 -1.0253
13824TIP3   OH262886   0.977   0.795   5.635  0.3828  0.2149  0.2089
13824TIP3    H162887   0.918   0.869   5.654 -1.1691 -0.9820  0.2273
13824TIP3    H262888   1.046   0.803   5.701 -0.0406  1.3394  0.5511
13825TIP3   OH262889   2.651   2.948   1.987  0.0237  0.2953  0.0704
13825TIP3    H162890   2.595   2.920   1.914  0.4094 -0.5416  0.0835
13825TIP3    H262891   2.722   2.996   1.945 -0.3116  0.7226 -0.0111
13826TIP3   OH262892   4.108   4.050  11.358 -0.1700 -0.6340  0.4845
13826TIP3    H162893   4.139   3.977  11.305 -0.7550 -1.0851  0.7585
13826TIP3    H262894   4.173   4.059  11.427  0.3043 -0.3964  0.0191
13827TIP3   OH262895   1.266   1.288   3.178  0.0761  0.6968 -0.1578
13827TIP3    H162896   1.195   1.336   3.136 -0.3634  0.9013  0.8146
13827TIP3    H262897   1.343   1.311   3.125 -0.3955  1.2548 -0.6254
13828TIP3   OH262898   2.404   3.250   2.430  0.2385 -0.4315  0.1918
13828TIP3    H162899   2.410   3.158   2.404  1.9121 -0.5812  0.9675
13828TIP3    H262900   2.323   3.282   2.389  0.3244 -1.8860 -1.1777
13829TIP3   OH262901   1.368   5.403  11.621 -0.8005  0.1495 -0.4498
13829TIP3    H162902   1.408   5.405  11.708 -3.0906 -3.1123  0.8582
13829TIP3    H262903   1.404   5.325  11.579 -1.7370  0.1969 -1.3837
13830TIP3   OH262904   2.585   4.246   2.664  0.5980 -0.4013 -0.1029
13830TIP3    H162905   2.554   4.310   2.600  0.1095  0.6104  1.1145
13830TIP3    H262906   2.619   4.299   2.736  0.3101 -1.5169  0.8758
13831TIP3   OH262907   6.490   5.124  14.971 -0.0925  0.0492  0.6885
13831TIP3    H162908   6.470   5.087  15.057 -1.3819 -0.0335  0.3744
13831TIP3    H262909   6.566   5.074  14.940 -1.2350 -1.7739  0.6489
13832TIP3   OH262910   4.088   5.982   2.437  0.1090 -0.2896 -0.4098
13832TIP3    H162911   4.184   5.981   2.434  0.1118 -0.4200 -0.2684
13832TIP3    H262912   4.061   5.901   2.393  0.0540 -0.0710 -0.7823
13833TIP3   OH262913   1.405   4.567   3.279 -0.1050  0.0452  0.0673
13833TIP3    H162914   1.414   4.513   3.357  0.2321  1.3114  0.9402
13833TIP3    H262915   1.403   4.657   3.312 -0.9246  0.5651 -1.3106
13834TIP3   OH262916   2.169   4.095  15.487 -0.0113 -0.2737  0.4805
13834TIP3    H162917   2.157   4.185  15.456 -0.5758 -0.4624  0.1451
13834TIP3    H262918   2.264   4.086  15.496 -0.0195  0.8272  1.9506
13835TIP3   OH262919   1.492   3.023  10.848  0.0522  0.5617 -0.1657
13835TIP3    H162920   1.413   2.970  10.841  1.9559 -2.4491 -0.4201
13835TIP3    H262921   1.486   3.063  10.935 -1.2821 -0.3996  0.2176
13836TIP3   OH262922   0.669   3.319   4.231  0.1790 -0.0810  0.3075
13836TIP3    H162923   0.640   3.296   4.320  0.4288  1.6414  0.8642
13836TIP3    H262924   0.587   3.336   4.183 -0.0467 -2.3467 -0.2465
13837TIP3   OH262925   2.941   1.831   4.745 -0.2587  0.3531  0.1206
13837TIP3    H162926   3.031   1.847   4.775 -0.4514  2.2059 -0.1823
13837TIP3    H262927   2.935   1.735   4.739  2.1681  0.1873 -1.2609
13838TIP3   OH262928   5.713   3.693  15.106  0.1088  0.3394 -0.4028
13838TIP3    H162929   5.655   3.692  15.182 -0.0994  0.3006 -0.5625
13838TIP3    H262930   5.764   3.612  15.114  1.3257  1.1756  0.6520
13839TIP3   OH262931   4.814   6.255  11.599  0.7810  0.0367 -0.7376
13839TIP3    H162932   4.779   6.317  11.535 -0.2122 -1.1283 -1.3468
13839TIP3    H262933   4.761   6.177  11.589  0.3612 -0.0738  1.7556
13840TIP3   OH262934   4.897   1.636   1.878 -0.4606 -0.4218  0.0491
13840TIP3    H162935   4.979   1.651   1.831 -0.2524 -2.1131 -0.1965
13840TIP3    H262936   4.842   1.711   1.856 -0.0574 -0.7122 -2.2323
13841TIP3   OH262937   1.161   1.517   4.403 -0.3419  0.2083  0.5535
13841TIP3    H162938   1.110   1.480   4.475  0.8144  0.6368  1.6437
13841TIP3    H262939   1.098   1.568   4.352 -1.2723 -0.4646  1.0070
13842TIP3   OH262940   4.145   6.140   2.895 -0.1220  0.4536 -0.2673
13842TIP3    H162941   4.158   6.056   2.851 -0.8599  0.9608 -1.4963
13842TIP3    H262942   4.092   6.118   2.973  1.1923 -0.4482  0.4103
13843TIP3   OH262943   5.740   5.374  17.238 -0.9913 -0.2902 -0.0968
13843TIP3    H162944   5.823   5.374  17.286  0.2211 -0.6750 -2.0627
13843TIP3    H262945   5.674   5.349  17.303  0.3837  0.2115  1.5645
13844TIP3   OH262946   2.987   1.530  10.995  0.1157 -0.0690  0.6037
13844TIP3    H162947   3.047   1.550  10.923  1.2073  1.5518  1.8999
13844TIP3    H262948   2.964   1.438  10.982 -1.3614  0.6358 -2.9657
13845TIP3   OH262949   4.657   0.060   3.094  0.5462 -0.1353 -0.5954
13845TIP3    H162950   4.721   0.086   3.028  1.4650  1.5357  0.8677
13845TIP3    H262951   4.650   0.136   3.152 -2.3995 -0.4549 -0.3840
13846TIP3   OH262952   3.163   5.398  15.219  0.6804  0.4266  0.7691
13846TIP3    H162953   3.160   5.378  15.125 -0.9897  2.6003  0.2679
13846TIP3    H262954   3.218   5.476  15.225 -1.1964  1.7936  1.1946
13847TIP3   OH262955   0.827   1.450   1.992 -0.0172  0.3851 -0.1703
13847TIP3    H162956   0.918   1.441   2.022  0.0238  1.1316 -0.0548
13847TIP3    H262957   0.822   1.397   1.913  0.1291 -0.8486  0.6261
13848TIP3   OH262958   0.037   3.584   4.651 -0.1323  0.4318  0.1618
13848TIP3    H162959   0.008   3.674   4.641  1.6515  0.8277 -2.1622
13848TIP3    H262960   0.008   3.540   4.571  0.6003 -0.5922  0.4414
13849TIP3   OH262961   3.896   0.960  16.282 -0.3755  0.1629  0.7506
13849TIP3    H162962   3.948   0.964  16.202  0.3570  1.5946  1.2601
13849TIP3    H262963   3.873   0.868  16.291 -0.1596 -0.0831 -0.8940
13850TIP3   OH262964   2.931   2.101   5.988 -0.2542 -0.0373  0.0055
13850TIP3    H162965   2.845   2.075   5.955  0.6030 -1.6262 -1.0703
13850TIP3    H262966   2.928   2.077   6.081  0.2780 -3.7531 -0.7759
13851TIP3   OH262967   6.549   2.259  10.267  0.0124  0.3031 -0.5135
13851TIP3    H162968   6.588   2.344  10.246  0.4660  0.4306  0.7187
13851TIP3    H262969   6.612   2.219  10.328 -1.3015  0.0969  0.7656
13852TIP3   OH262970   3.107   0.617   4.464 -0.1737  0.1586 -0.0974
13852TIP3    H162971   3.032   0.595   4.520  1.1692 -1.9014  1.0068
13852TIP3    H262972   3.072   0.615   4.375 -1.4895 -0.5399  0.4105
13853TIP3   OH262973   5.041   4.211   2.878  1.2554  0.0589 -0.7097
13853TIP3    H162974   4.970   4.261   2.839  1.3577  3.0917  2.5062
13853TIP3    H262975   5.064   4.146   2.811 -2.4684  0.8461 -3.0548
13854TIP3   OH262976   1.246   0.432  15.240  0.0106  1.0714  0.1272
13854TIP3    H162977   1.332   0.393  15.254 -1.0076 -1.6695 -0.5889
13854TIP3    H262978   1.224   0.409  15.149 -1.7334  1.0973  0.5032
13855TIP3   OH262979   2.372   2.070  12.547  0.1811  0.0822 -0.0484
13855TIP3    H162980   2.430   2.004  12.583  1.3736  1.1919  0.1226
13855TIP3    H262981   2.315   2.095  12.620  0.3482 -0.0863  0.1403
13856TIP3   OH262982   0.676   0.545  12.354  0.0376  0.1352  0.2069
13856TIP3    H162983   0.683   0.626  12.303  0.0253  0.3758  0.5835
13856TIP3    H262984   0.631   0.571  12.434  1.2797  0.0631  0.9662
13857TIP3   OH262985   0.992   4.581   3.898  0.1150 -0.4594 -0.7391
13857TIP3    H162986   0.907   4.620   3.919  1.3072  2.2530 -0.5719
13857TIP3    H262987   0.970   4.497   3.858 -2.6499  0.2717 -0.9750
13858TIP3   OH262988   5.618   1.601  13.310 -0.2319  0.0840  0.0235
13858TIP3    H162989   5.706   1.635  13.328  0.0278 -1.3147  1.7264
13858TIP3    H262990   5.560   1.660  13.357  0.0020 -0.2573  0.7613
13859TIP3   OH262991   4.425   6.244  10.890  0.2807  0.0957  0.5770
13859TIP3    H162992   4.354   6.204  10.839 -1.1990  1.8944  1.0932
13859TIP3    H262993   4.502   6.236  10.834 -0.4315 -1.4493 -0.2423
13860TIP3   OH262994   4.549   3.292  16.272  0.1273 -0.1140  0.2696
13860TIP3    H162995   4.623   3.297  16.212  0.1364  0.7230  0.3310
13860TIP3    H262996   4.589   3.278  16.358  0.4458  2.7912  0.6925
13861TIP3   OH262997   3.548   0.746  16.924  0.4744 -0.4333  0.0056
13861TIP3    H162998   3.485   0.725  16.993 -0.1218 -1.5491 -0.8470
13861TIP3    H262999   3.527   0.835  16.898 -0.2812 -0.5430  0.2282
13862TIP3   OH263000   4.532   4.170   3.192 -0.9546 -0.3105 -0.3200
13862TIP3    H163001   4.507   4.262   3.207 -0.0872 -0.0615 -0.3322
13862TIP3    H263002   4.533   4.161   3.097  0.3326  0.0775 -0.3611
13863TIP3   OH263003   1.131   4.702   4.883 -0.6320  0.0999  0.8100
13863TIP3    H163004   1.074   4.703   4.960 -0.1382  0.1699  1.1801
13863TIP3    H263005   1.071   4.706   4.808 -1.0794  1.0396  1.2013
13864TIP3   OH263006   6.257   4.176  16.573  0.0767 -0.1662  0.3261
13864TIP3    H163007   6.246   4.153  16.665  0.7254 -1.3361  0.1308
13864TIP3    H263008   6.351   4.180  16.560 -0.0084  1.1175 -0.0405
13865TIP3   OH263009   0.471   4.877   1.448  0.2303 -0.3950  0.0873
13865TIP3    H163010   0.493   4.899   1.358  0.2260 -1.4128 -0.1704
13865TIP3    H263011   0.542   4.915   1.500  0.2390  0.1800 -0.3323
13866TIP3   OH263012   1.695   6.318   3.667 -0.1395 -0.2268 -0.1818
13866TIP3    H163013   1.712   6.280   3.581  0.3338 -1.2248  0.3395
13866TIP3    H263014   1.619   6.375   3.653  0.1332 -0.1140 -1.3199
13867TIP3   OH263015   0.765   4.351  15.393  0.1629  0.5342 -0.0980
13867TIP3    H163016   0.720   4.267  15.384  0.1393  0.5093  0.2406
13867TIP3    H263017   0.849   4.338  15.348 -0.8300  1.1081 -2.2250
13868TIP3   OH263018   1.673   6.339   2.606  0.5788  0.1221  0.1056
13868TIP3    H163019   1.580   6.359   2.596  0.5226 -0.2237 -0.0625
13868TIP3    H263020   1.687   6.335   2.701  0.5069  0.5586  0.1375
13869TIP3   OH263021   6.772   3.837  14.656  0.0823  0.2760  0.1155
13869TIP3    H163022   6.708   3.769  14.675  1.9053 -2.4774 -2.6447
13869TIP3    H263023   6.727   3.895  14.594 -1.1306  1.0964  1.6795
13870TIP3   OH263024   0.010   2.714   4.743 -0.2534  0.0469 -0.4591
13870TIP3    H163025  -0.056   2.646   4.727 -1.5125  0.9820  0.6065
13870TIP3    H263026   0.076   2.672   4.798 -1.9008  0.1138  1.6718
13871TIP3   OH263027   5.501   0.051   1.657 -0.0108  0.1962  0.2383
13871TIP3    H163028   5.536  -0.031   1.623  0.0495  0.2629  0.1407
13871TIP3    H263029   5.454   0.025   1.736  1.6053  0.2865  1.2874
13872TIP3   OH263030   0.353   6.304  16.983  0.0297  0.3729 -0.5118
13872TIP3    H163031   0.273   6.332  16.938 -0.9773 -2.8016 -0.9902
13872TIP3    H263032   0.417   6.291  16.913 -1.4603 -4.3151 -1.3706
13873TIP3   OH263033   3.148   5.556   5.025  0.0030  0.8175 -0.2158
13873TIP3    H163034   3.233   5.514   5.039 -0.4798  0.4112  1.8640
13873TIP3    H263035   3.142   5.568   4.930  2.8993  1.9977 -0.3404
13874TIP3   OH263036   6.640   1.664   1.923 -0.4916 -0.2843  0.4829
13874TIP3    H163037   6.585   1.709   1.858 -0.4624  0.5212  1.0003
13874TIP3    H263038   6.721   1.715   1.924  0.0472 -1.1219  0.1465
13875TIP3   OH263039   5.534   1.519  12.407  0.4729 -0.1578  0.2714
13875TIP3    H163040   5.608   1.470  12.444  1.6103  0.1589 -1.4433
13875TIP3    H263041   5.560   1.611  12.417  0.1589 -0.0345 -0.0452
13876TIP3   OH263042   0.027   0.828  12.627 -0.5159 -0.4510  0.2135
13876TIP3    H163043   0.040   0.916  12.665  0.8938 -1.0995  1.3338
13876TIP3    H263044  -0.056   0.799  12.664 -0.4413 -0.0176  0.7488
13877TIP3   OH263045   3.667   6.416  16.349 -0.1489  0.1783  0.0032
13877TIP3    H163046   3.740   6.406  16.288 -0.4844  1.5407 -0.6641
13877TIP3    H263047   3.708   6.424  16.435  0.6581  2.7424 -0.5463
13878TIP3   OH263048   6.063   6.501  12.145 -0.4688  0.6373 -0.1890
13878TIP3    H163049   6.010   6.422  12.136 -1.4761  1.2967 -0.2023
13878TIP3    H263050   6.120   6.483  12.220  0.3891 -0.6746 -1.1267
13879TIP3   OH263051   2.528   1.529   1.564  0.4101 -0.1630  0.0922
13879TIP3    H163052   2.458   1.554   1.504  0.9796 -0.7116 -0.8362
13879TIP3    H263053   2.607   1.568   1.526  0.6545  0.2685  1.0062
13880TIP3   OH263054   2.599   4.312   0.324  0.1071  0.2618  0.0701
13880TIP3    H163055   2.664   4.361   0.274  2.3397 -3.9634 -1.7949
13880TIP3    H263056   2.646   4.282   0.402  0.2110 -1.9049 -0.7325
13881TIP3   OH263057   3.515   3.563  17.041  0.3857 -0.5615 -0.2190
13881TIP3    H163058   3.570   3.554  16.963  0.4297  1.3773 -0.4561
13881TIP3    H263059   3.572   3.607  17.105 -0.0907 -0.8763  0.4318
13882TIP3   OH263060   1.920   4.121   5.406 -0.1188  0.2578  0.1847
13882TIP3    H163061   1.994   4.073   5.368  1.2805  2.6804 -0.3998
13882TIP3    H263062   1.948   4.144   5.494 -1.5046 -1.4350  1.1217
13883TIP3   OH263063   3.443   6.106   5.650 -0.1362 -0.0112  0.5148
13883TIP3    H163064   3.448   6.157   5.569  0.7779  0.9924  1.1919
13883TIP3    H263065   3.358   6.130   5.688 -0.6463 -0.6173 -0.2159
13884TIP3   OH263066   1.204   0.544  10.773  0.0704  0.2151  0.2705
13884TIP3    H163067   1.165   0.521  10.689 -2.7033  2.5415  0.7511
13884TIP3    H263068   1.295   0.514  10.766  0.2350  1.0277 -3.8696
13885TIP3   OH263069   5.409   5.152  15.792 -0.4908  0.4295  0.4269
13885TIP3    H163070   5.417   5.235  15.744 -0.0839  0.6632  0.8909
13885TIP3    H263071   5.499   5.119  15.798 -0.9086 -1.8527 -2.8362
13886TIP3   OH263072   1.385   2.324   0.187  0.3948 -0.4968  0.0824
13886TIP3    H163073   1.467   2.278   0.199  0.8592  0.1565 -0.4889
13886TIP3    H263074   1.395   2.370   0.103 -0.6445 -0.6118 -0.1191
13887TIP3   OH263075   1.691   5.800  12.815  0.2641 -0.2873  0.0113
13887TIP3    H163076   1.661   5.885  12.781  0.3607 -0.6389 -0.9924
13887TIP3    H263077   1.613   5.745  12.817  0.2129 -0.2039  0.6085
13888TIP3   OH263078   1.753   6.612   0.611  1.0114  0.0753 -0.1066
13888TIP3    H163079   1.804   6.626   0.691  0.7000 -0.5288  0.2020
13888TIP3    H263080   1.705   6.694   0.599 -0.2946 -0.4357  1.3186
13889TIP3   OH263081   6.511   0.012  13.966  0.6642  0.3967 -0.2629
13889TIP3    H163082   6.472   0.099  13.961  0.7999  0.7148  2.6722
13889TIP3    H263083   6.436  -0.048  13.963  0.1091  0.8747  2.0640
13890TIP3   OH263084   1.930   1.349   4.342  0.3673  0.1601 -0.4060
13890TIP3    H163085   1.924   1.332   4.436 -0.9561  0.0459 -0.5022
13890TIP3    H263086   1.932   1.262   4.302  0.7087  0.2113 -0.5124
13891TIP3   OH263087   2.537   6.023   3.843  0.2888  0.0882 -0.0225
13891TIP3    H163088   2.612   6.039   3.901  0.2603  0.5056 -0.0966
13891TIP3    H263089   2.547   6.086   3.772 -0.9213  1.1735  0.7217
13892TIP3   OH263090   2.331   4.355  14.364 -0.0120 -0.4385 -0.3263
13892TIP3    H163091   2.296   4.441  14.386 -1.0958 -1.2214  1.1886
13892TIP3    H263092   2.306   4.299  14.438 -2.5610 -2.9276 -2.8384
13893TIP3   OH263093   6.702   5.867   6.298 -0.0769  0.5511 -0.0713
13893TIP3    H163094   6.763   5.922   6.348  0.9296 -0.7435  0.1638
13893TIP3    H263095   6.650   5.930   6.248  1.1614  1.7273  0.0367
13894TIP3   OH263096   1.322   1.298  13.106 -0.0801 -0.6914  0.1840
13894TIP3    H163097   1.385   1.227  13.095 -0.7904 -1.3788  0.4397
13894TIP3    H263098   1.238   1.254  13.118 -0.9194  0.2080 -1.8619
13895TIP3   OH263099   3.472   6.091   4.239  0.0799 -0.4454 -0.1838
13895TIP3    H163100   3.463   6.076   4.333 -0.2934 -2.8875 -0.5351
13895TIP3    H263101   3.566   6.084   4.222 -0.0729 -3.4107 -0.3719
13896TIP3   OH263102   3.528   1.494   3.104  0.4769  0.3371 -0.0438
13896TIP3    H163103   3.498   1.542   3.181  1.4699  0.4233  0.2954
13896TIP3    H263104   3.447   1.472   3.056 -0.1601  0.1306  1.0986
13897TIP3   OH263105   2.057   5.757   2.844 -0.6292  0.0439 -0.3780
13897TIP3    H163106   1.997   5.682   2.842  1.1140 -1.4743  0.7778
13897TIP3    H263107   2.004   5.829   2.876 -1.9828 -1.1017  0.0627
13898TIP3   OH263108   3.404   2.660   3.782 -0.2846  0.9663  0.0826
13898TIP3    H163109   3.480   2.603   3.773 -0.3891  0.8175  0.1366
13898TIP3    H263110   3.435   2.746   3.754 -0.8066  0.3843 -2.4963
13899TIP3   OH263111   6.364   6.008  14.573 -0.1109 -0.0743  0.1663
13899TIP3    H163112   6.439   5.958  14.607 -0.4221 -0.7108 -0.0670
13899TIP3    H263113   6.288   5.952  14.590 -0.2143 -0.8283 -2.2725
13900TIP3   OH263114   3.673   5.967  11.170  0.2543  0.5545 -0.3900
13900TIP3    H163115   3.755   5.934  11.134  0.5196  0.0699  0.6366
13900TIP3    H263116   3.628   5.890  11.204 -0.5035  0.8564 -0.6640
13901TIP3   OH263117   5.257   3.847  11.462 -0.7580  0.1302 -0.7081
13901TIP3    H163118   5.290   3.775  11.409  0.1819  1.0198 -1.3705
13901TIP3    H263119   5.197   3.806  11.524  0.6813 -1.4047 -0.2544
13902TIP3   OH263120   5.775   6.471  14.058  0.3415 -0.4939 -0.4346
13902TIP3    H163121   5.857   6.423  14.068 -0.0084 -1.1909 -0.8448
13902TIP3    H263122   5.796   6.544  14.000  0.2693 -1.7213 -2.0542
13903TIP3   OH263123   2.517   6.024   4.375 -0.4345  0.2372 -0.7426
13903TIP3    H163124   2.594   5.971   4.356 -0.8543 -0.2753 -1.0086
13903TIP3    H263125   2.532   6.106   4.327 -1.0096 -0.6483 -2.5115
13904TIP3   OH263126   5.717   0.377  13.674  0.3859  0.2249 -0.8100
13904TIP3    H163127   5.722   0.472  13.659  0.0446  0.2539 -0.7401
13904TIP3    H263128   5.694   0.341  13.588 -0.6056  0.3051 -0.5806
13905TIP3   OH263129   0.525   6.656  15.527  0.2922  0.0634 -0.4208
13905TIP3    H163130   0.500   6.677  15.617 -0.7030  0.5641 -0.8127
13905TIP3    H263131   0.541   6.561  15.529 -0.4567 -0.0591  0.1137
13906TIP3   OH263132   4.811   0.932   2.644 -0.3049  0.6976 -0.5538
13906TIP3    H163133   4.809   0.956   2.551  0.9530  1.3482 -0.4315
13906TIP3    H263134   4.719   0.925   2.669 -0.6699  1.4864 -1.6138
13907TIP3   OH263135   3.734   3.766  11.678 -0.5215 -0.1804 -0.1488
13907TIP3    H163136   3.771   3.839  11.627 -2.9150  0.0178 -1.7738
13907TIP3    H263137   3.674   3.809  11.739 -1.0278 -0.6851 -0.2830
13908TIP3   OH263138   2.859   0.524  16.238 -1.4511  0.5370 -0.1978
13908TIP3    H163139   2.794   0.506  16.306 -1.3737  0.3149 -0.1819
13908TIP3    H263140   2.940   0.541  16.287 -1.4800  0.7369 -0.2202
13909TIP3   OH263141   3.751   2.870  13.573  0.2335 -0.4404  0.6290
13909TIP3    H163142   3.717   2.781  13.567  1.2327 -0.7236 -1.4660
13909TIP3    H263143   3.709   2.917  13.501  1.1690  0.2839  0.5420
13910TIP3   OH263144   6.559   2.854  12.941 -0.4079 -0.6966 -0.2506
13910TIP3    H163145   6.580   2.861  12.848  0.1999  1.1081 -0.0130
13910TIP3    H263146   6.639   2.883  12.986 -0.2278 -2.7615  0.8931
13911TIP3   OH263147   3.349   3.885  15.692  0.7564  0.5198 -0.0778
13911TIP3    H163148   3.430   3.935  15.704  0.1875  0.9840  2.1438
13911TIP3    H263149   3.280   3.941  15.727 -0.3285 -0.5358 -0.4513
13912TIP3   OH263150   0.299   1.944  11.543  0.5878 -0.1177 -0.2162
13912TIP3    H163151   0.309   1.892  11.463  1.5355 -1.8687  0.9749
13912TIP3    H263152   0.244   1.890  11.600 -0.6327  1.3959  0.1080
13913TIP3   OH263153   6.339   4.854  16.198 -0.3303 -0.6475 -0.0442
13913TIP3    H163154   6.387   4.924  16.242 -0.2685  0.0286 -1.1386
13913TIP3    H263155   6.288   4.811  16.267  0.0952  0.0881  0.7380
13914TIP3   OH263156   4.479   4.548  11.375 -0.6923  0.1698  0.3671
13914TIP3    H163157   4.453   4.556  11.283 -1.1459  2.7384  0.6306
13914TIP3    H263158   4.574   4.542  11.372 -0.7369 -0.3981 -0.2828
13915TIP3   OH263159   1.206   6.243   3.785 -0.0898  0.6013  0.3097
13915TIP3    H163160   1.250   6.238   3.700  1.0771  2.3750  0.7673
13915TIP3    H263161   1.144   6.170   3.783  1.8805 -1.1823 -0.9181
13916TIP3   OH263162   2.154   6.562   3.756  0.1921  0.0635 -0.2536
13916TIP3    H163163   2.200   6.482   3.730  0.1335  0.5389 -1.9749
13916TIP3    H263164   2.141   6.553   3.850  1.1125 -1.4674 -0.2378
13917TIP3   OH263165   3.655   0.325   5.057 -0.3629  0.1429 -0.2310
13917TIP3    H163166   3.739   0.352   5.019 -0.7767 -0.1120 -1.3724
13917TIP3    H263167   3.592   0.389   5.023 -0.4966  0.9557  1.4443
13918TIP3   OH263168   1.667   1.835   5.549 -0.1504  0.2711 -0.3132
13918TIP3    H163169   1.650   1.762   5.608  0.5598  0.2388 -0.1402
13918TIP3    H263170   1.727   1.800   5.484 -0.8457  0.3396 -1.0053
13919TIP3   OH263171   6.450   5.414   2.901  0.3673 -0.0641  0.3697
13919TIP3    H163172   6.436   5.508   2.897  0.5820 -0.0400  0.1511
13919TIP3    H263173   6.363   5.376   2.893 -0.1656  0.1747  3.6388
13920TIP3   OH263174   3.854   3.343  13.717 -0.3851  0.1911  0.4279
13920TIP3    H163175   3.898   3.258  13.717 -0.3746  0.1651 -1.0405
13920TIP3    H263176   3.784   3.334  13.652 -1.2690  0.8753  1.2552
13921TIP3   OH263177   0.636   4.390  11.178  0.2257  0.2528  0.2369
13921TIP3    H163178   0.605   4.365  11.091 -2.3292  0.4905  0.9862
13921TIP3    H263179   0.577   4.461  11.205  1.0737  0.3300  2.0764
13922TIP3   OH263180   1.350   6.271   3.516 -0.4694  0.0199 -1.0177
13922TIP3    H163181   1.394   6.198   3.474 -1.5518 -0.5540 -1.1918
13922TIP3    H263182   1.271   6.284   3.464 -2.5414 -1.5532  1.4905
13923TIP3   OH263183   1.826   6.189  12.254  0.4877 -0.2325 -0.2223
13923TIP3    H163184   1.744   6.215  12.214  0.6076 -0.5244 -0.6692
13923TIP3    H263185   1.892   6.200  12.185  1.2591  2.2693  0.7962
13924TIP3   OH263186   0.139   4.212  10.741  0.0420  0.3793  0.0003
13924TIP3    H163187   0.159   4.292  10.788  1.0114  1.5009 -2.1821
13924TIP3    H263188   0.069   4.236  10.680 -1.0610 -0.9792  0.6585
13925TIP3   OH263189   5.973   3.715  12.292 -0.4067 -0.3415 -0.6600
13925TIP3    H163190   6.067   3.702  12.304 -0.3808  0.2192 -0.1959
13925TIP3    H263191   5.966   3.762  12.209  0.0048  2.5570  0.7839
13926TIP3   OH263192   4.575   1.556   4.124 -0.0686 -0.3509 -0.2080
13926TIP3    H163193   4.659   1.522   4.152 -0.3892 -0.4630  0.6568
13926TIP3    H263194   4.595   1.639   4.081  0.5306 -0.6654 -0.5397
13927TIP3   OH263195   1.683   4.574   0.184  0.0017  0.2589  0.5275
13927TIP3    H163196   1.732   4.638   0.133  0.7332  0.7147  1.7688
13927TIP3    H263197   1.740   4.497   0.188 -0.7650 -0.4222 -0.7390
13928TIP3   OH263198   0.646   4.925   1.243  0.2599 -0.4654  0.1622
13928TIP3    H163199   0.738   4.910   1.265 -0.1842 -1.4195  1.5118
13928TIP3    H263200   0.625   4.856   1.179  0.4702 -0.2668 -0.1218
13929TIP3   OH263201   2.664   3.194   2.224  0.0506  0.3267 -0.3361
13929TIP3    H163202   2.714   3.117   2.200  1.1525  1.9627 -3.9093
13929TIP3    H263203   2.573   3.171   2.207 -0.0740 -1.1772  1.9122
13930TIP3   OH263204   1.177   0.632   4.687 -0.3929 -0.3119  0.1725
13930TIP3    H163205   1.179   0.728   4.687 -0.2162 -0.2813  2.1973
13930TIP3    H263206   1.084   0.611   4.682 -0.4711 -0.0234  0.3591
13931TIP3   OH263207   4.887   3.645  11.361 -0.1517 -0.6979  0.0764
13931TIP3    H163208   4.795   3.638  11.333 -0.1084  0.6585 -0.4790
13931TIP3    H263209   4.883   3.690  11.446 -0.0045 -0.6814  0.0750
13932TIP3   OH263210   1.890   1.566  14.976  0.7709  0.0043 -0.4453
13932TIP3    H163211   1.973   1.608  14.956  1.6803 -1.7664 -0.5485
13932TIP3    H263212   1.890   1.559  15.072  0.6221  0.2266 -0.4289
13933TIP3   OH263213   0.686   1.762   2.286  0.1851  0.2041  0.0072
13933TIP3    H163214   0.635   1.756   2.366 -0.1820  1.5492 -0.1003
13933TIP3    H263215   0.772   1.793   2.315 -0.0835  1.1243 -0.1489
13934TIP3   OH263216   1.996   2.599   2.636  0.1402  0.0347 -0.1706
13934TIP3    H163217   1.924   2.554   2.680 -0.1952  0.0120 -0.7368
13934TIP3    H263218   1.968   2.690   2.631  0.5514  0.2016  0.4218
13935TIP3   OH263219   1.162   0.184   0.213  0.4511 -0.5197  0.1549
13935TIP3    H163220   1.154   0.154   0.304  0.0610 -2.1112 -0.3768
13935TIP3    H263221   1.255   0.206   0.204  0.5883 -0.7841  0.8168
13936TIP3   OH263222   1.216   0.595   1.719 -0.2099  0.0094 -0.7714
13936TIP3    H163223   1.183   0.516   1.677  1.2952  0.9276 -4.0002
13936TIP3    H263224   1.311   0.589   1.710  0.1775  0.7188  1.9169
13937TIP3   OH263225   1.912   0.774   1.251  0.1182  0.1479  0.2554
13937TIP3    H163226   1.942   0.683   1.250 -0.2433  0.0315 -1.1221
13937TIP3    H263227   1.832   0.771   1.303 -1.0568 -0.7250 -1.5345
13938TIP3   OH263228   3.470   0.302  11.732 -0.2611 -0.6580  0.0482
13938TIP3    H163229   3.382   0.266  11.716 -0.4776 -0.4961  0.8381
13938TIP3    H263230   3.476   0.307  11.827 -0.7798  2.6734  0.0096
13939TIP3   OH263231   4.207   5.488  15.697 -0.0804 -0.0595 -0.8059
13939TIP3    H163232   4.125   5.528  15.729  0.6513 -0.7131  2.2259
13939TIP3    H263233   4.178   5.416  15.641 -1.4755  1.5008 -2.2286
13940TIP3   OH263234   2.077   2.242  13.805  0.1847 -0.1155 -0.1838
13940TIP3    H163235   2.018   2.295  13.859 -0.6929 -1.8271  0.6004
13940TIP3    H263236   2.089   2.294  13.725 -1.4417  0.8127  0.1335
13941TIP3   OH263237   1.287   5.062   5.538 -0.6294 -0.1132 -0.9763
13941TIP3    H163238   1.265   5.083   5.629  0.0540  0.6124 -0.9691
13941TIP3    H263239   1.338   5.137   5.508  0.5466 -1.0741 -1.4462
13942TIP3   OH263240   1.934   6.078  10.678  0.0307 -0.1230 -0.3597
13942TIP3    H163241   2.010   6.134  10.661  0.7267 -0.7539  0.5828
13942TIP3    H263242   1.905   6.104  10.766  0.2815 -1.1364  0.0315
13943TIP3   OH263243   4.812   1.471  13.046 -0.4300  0.7419  0.0025
13943TIP3    H163244   4.751   1.432  13.108 -0.9941  0.0149 -0.9746
13943TIP3    H263245   4.899   1.444  13.077 -0.7183  0.1976  0.3502
13944TIP3   OH263246   6.302   3.128  11.879 -0.0146 -0.4739  0.6638
13944TIP3    H163247   6.244   3.175  11.820  0.6440  0.6264  0.8697
13944TIP3    H263248   6.244   3.073  11.931 -0.9472  1.0113  1.2426
13945TIP3   OH263249   2.300   2.461   2.734  0.2240  0.1494  0.2959
13945TIP3    H163250   2.289   2.531   2.799 -3.2023 -0.0896  0.1383
13945TIP3    H263251   2.284   2.504   2.650  0.3344 -0.3948 -0.0079
13946TIP3   OH263252   4.197   0.447  17.085 -0.3695 -0.1247  0.5915
13946TIP3    H163253   4.254   0.519  17.059 -0.6844  0.5224  1.6307
13946TIP3    H263254   4.257   0.377  17.112 -0.0148 -0.9777 -2.0874
13947TIP3   OH263255   6.402   3.027   5.673  0.2816 -0.5455 -0.5799
13947TIP3    H163256   6.483   3.075   5.687 -1.1472  2.6561 -2.0554
13947TIP3    H263257   6.424   2.960   5.609  2.0316 -0.8123  0.2371
13948TIP3   OH263258   3.949   5.422   4.550  0.1891  0.2367 -0.5732
13948TIP3    H163259   3.921   5.422   4.641 -0.9427  0.6238 -0.9023
13948TIP3    H263260   4.026   5.479   4.548  1.6816 -1.6300  0.5221
13949TIP3   OH263261   5.342   1.098  15.929  0.6115  0.7626 -0.4423
13949TIP3    H163262   5.415   1.113  15.989  0.8676  1.4757 -0.9166
13949TIP3    H263263   5.298   1.184  15.922  0.8764  0.8275 -1.6337
13950TIP3   OH263264   0.678   5.057  13.202  0.1564  0.3394  0.3903
13950TIP3    H163265   0.633   5.064  13.118  1.6122 -1.3491 -0.5975
13950TIP3    H263266   0.609   5.035  13.264 -0.3655 -3.8261 -1.3575
13951TIP3   OH263267   1.169   5.317  16.389  0.4733 -0.5470 -0.2803
13951TIP3    H163268   1.121   5.357  16.461  1.5250  1.7157 -0.7556
13951TIP3    H263269   1.166   5.382  16.319 -0.9473 -2.8555 -2.5614
13952TIP3   OH263270   5.765   3.247   2.966  0.3415 -0.1748  0.7684
13952TIP3    H163271   5.835   3.301   2.929 -0.3802  2.4158  2.8431
13952TIP3    H263272   5.796   3.157   2.956  2.7229  0.7285 -0.7637
13953TIP3   OH263273   1.698   2.451   5.225 -0.0254  0.0113 -0.2979
13953TIP3    H163274   1.690   2.417   5.136  0.4799 -0.4275 -0.1797
13953TIP3    H263275   1.631   2.404   5.274 -0.9649  0.9558 -0.6388
13954TIP3   OH263276   6.348   3.335  14.228  0.5920  0.0090 -0.6428
13954TIP3    H163277   6.342   3.298  14.316  0.7492  0.2687 -0.5216
13954TIP3    H263278   6.292   3.413  14.231  1.8410  0.9123 -0.3052
13955TIP3   OH263279   2.892   1.424   2.814  0.2790 -0.6076 -0.2525
13955TIP3    H163280   2.811   1.385   2.781  0.3709  0.8607 -2.3970
13955TIP3    H263281   2.959   1.358   2.796 -0.2654 -1.4391  0.6760
13956TIP3   OH263282   3.732   4.314   4.729 -0.1076 -0.5125  0.1161
13956TIP3    H163283   3.785   4.375   4.780 -0.8083 -0.0340  0.2795
13956TIP3    H263284   3.770   4.228   4.749 -1.0365 -0.4742  2.3268
13957TIP3   OH263285   3.142   2.888   5.311  0.1205 -0.0907 -0.0297
13957TIP3    H163286   3.146   2.892   5.406  1.2537 -2.1310  0.0642
13957TIP3    H263287   3.071   2.826   5.292 -0.0673  0.2633 -0.5053
13958TIP3   OH263288   1.731   3.827   4.279 -0.1888 -0.1495  0.1577
13958TIP3    H163289   1.810   3.832   4.333  1.6124 -0.3071 -2.2996
13958TIP3    H263290   1.663   3.797   4.340  1.7326 -0.5349  2.2714
13959TIP3   OH263291   5.387   0.700   0.632 -0.8948 -0.2446  0.3810
13959TIP3    H163292   5.388   0.659   0.719  0.6967  1.1216  1.0523
13959TIP3    H263293   5.357   0.789   0.648  1.1078  0.5835 -0.1489
13960TIP3   OH263294   4.602   2.133   1.341 -0.1148 -0.0656 -0.0314
13960TIP3    H163295   4.633   2.054   1.296 -3.0833 -1.7944  0.6665
13960TIP3    H263296   4.579   2.102   1.429 -2.2963  1.2915 -0.0553
13961TIP3   OH263297   1.741   1.715   0.999 -0.4653 -0.4117  0.3054
13961TIP3    H163298   1.808   1.685   1.060 -1.5069 -0.5461  1.4280
13961TIP3    H263299   1.697   1.786   1.045  0.7952  1.7313 -1.5998
13962TIP3   OH263300   4.025   2.032   4.639  0.3510  0.0034 -0.3813
13962TIP3    H163301   3.934   2.003   4.636  0.3726 -0.1641  0.3590
13962TIP3    H263302   4.074   1.957   4.674  0.2670  1.1491  2.5135
13963TIP3   OH263303   3.467   3.816   0.275 -0.1933 -0.1938 -0.6540
13963TIP3    H163304   3.474   3.910   0.259 -1.6740  0.0690  0.1034
13963TIP3    H263305   3.456   3.778   0.188 -1.9047  0.5841 -0.8131
13964TIP3   OH263306   6.589   2.060  15.113  0.3206 -0.4326  0.3805
13964TIP3    H163307   6.562   1.975  15.081  1.5001 -0.9115  0.5988
13964TIP3    H263308   6.650   2.093  15.047 -0.0561  0.2137  0.3393
13965TIP3   OH263309   3.501   1.261   6.153 -0.8255 -0.7254  0.0180
13965TIP3    H163310   3.516   1.195   6.220  0.5287 -0.5440 -0.0727
13965TIP3    H263311   3.459   1.214   6.081 -0.7297 -1.2793  0.3203
13966TIP3   OH263312   2.824   4.571   1.934  0.5801 -0.1315 -0.3528
13966TIP3    H163313   2.837   4.528   2.018  1.5944 -1.9088 -1.3495
13966TIP3    H263314   2.732   4.597   1.933  0.3017 -1.0164  0.8774
13967TIP3   OH263315   3.139   5.518   1.559  0.2108  0.4135  0.5505
13967TIP3    H163316   3.166   5.433   1.592 -0.1072 -1.3832 -3.2171
13967TIP3    H263317   3.062   5.541   1.611  0.3862 -1.5290  1.7684
13968TIP3   OH263318   5.830   5.790   4.829  0.2066  0.0332 -0.2147
13968TIP3    H163319   5.891   5.848   4.784 -0.0698  1.0149  0.6310
13968TIP3    H263320   5.755   5.783   4.770  0.6319 -0.2154 -0.7311
13969TIP3   OH263321   0.917   0.163   3.066  0.5444  0.0906 -0.1690
13969TIP3    H163322   0.892   0.137   3.155  0.0536 -1.7928 -0.7937
13969TIP3    H263323   0.978   0.095   3.038 -0.7093 -0.4102 -1.8936
13970TIP3   OH263324   3.279   3.865  10.956 -0.4642  0.5644 -1.1607
13970TIP3    H163325   3.249   3.809  10.884  0.4367 -0.7689 -0.5344
13970TIP3    H263326   3.373   3.850  10.960 -0.3323  1.5207 -0.4396
13971TIP3   OH263327   4.534   2.104   1.814  0.1330  0.1743  0.6301
13971TIP3    H163328   4.492   2.070   1.735 -0.4768 -2.1853  1.8636
13971TIP3    H263329   4.475   2.172   1.845  0.5677  1.4110 -1.0866
13972TIP3   OH263330   3.407   0.529  12.089  0.4420 -0.8431 -0.3042
13972TIP3    H163331   3.414   0.434  12.104 -1.0415 -0.9284  0.0474
13972TIP3    H263332   3.376   0.537  11.999 -1.3749 -0.8104  0.2833
13973TIP3   OH263333   2.786   4.186  14.870 -0.2962 -0.1215 -0.0128
13973TIP3    H163334   2.836   4.105  14.876 -1.1594 -0.8400 -1.6492
13973TIP3    H263335   2.733   4.187  14.950 -0.7343 -1.5323 -0.2401
13974TIP3   OH263336   3.966   3.498   1.988  0.3890 -0.6055  0.3465
13974TIP3    H163337   3.987   3.591   1.986  1.0193 -0.6573  2.3567
13974TIP3    H263338   4.050   3.454   2.002  0.3702 -1.6575 -2.3667
13975TIP3   OH263339   1.444   3.303  14.518 -0.1914 -0.6794  0.4820
13975TIP3    H163340   1.423   3.231  14.458  0.0222 -1.2303  1.0588
13975TIP3    H263341   1.539   3.298  14.529  0.1082  0.8987 -0.9640
13976TIP3   OH263342   4.125   1.610  11.326  0.0223 -0.2710  0.8145
13976TIP3    H163343   4.059   1.557  11.371 -1.5176  0.2682 -0.7175
13976TIP3    H263344   4.136   1.568  11.241  1.1905  0.0473  0.7902
13977TIP3   OH263345   5.524   0.822   1.669 -0.7604 -0.0649 -0.0746
13977TIP3    H163346   5.486   0.781   1.747 -1.5341  0.5212 -0.1426
13977TIP3    H263347   5.549   0.747   1.614 -0.0497 -0.4891  0.7953
13978TIP3   OH263348   0.210   2.538  13.488  0.6664 -0.0711 -0.8967
13978TIP3    H163349   0.303   2.562  13.492  0.7645 -0.4789 -0.6421
13978TIP3    H263350   0.184   2.530  13.580  0.8212 -1.6105 -0.9636
13979TIP3   OH263351   5.834   2.717  15.515 -0.3040 -0.0797  0.4427
13979TIP3    H163352   5.762   2.676  15.563  0.2923 -1.4282  0.2222
13979TIP3    H263353   5.791   2.774  15.451 -1.1324  0.4830  1.4696
13980TIP3   OH263354   2.552   5.624   4.061 -0.6219 -0.2432 -0.2544
13980TIP3    H163355   2.506   5.568   3.999 -0.4319  0.8665 -1.4314
13980TIP3    H263356   2.484   5.675   4.104 -0.7690 -1.1354  0.6059
13981TIP3   OH263357   2.961   3.966  14.344  0.6183 -0.7790 -0.5768
13981TIP3    H163358   2.928   3.955  14.433  1.1429 -0.8447 -0.3834
13981TIP3    H263359   3.054   3.985  14.356  0.3072  1.1880 -1.0224
13982TIP3   OH263360   5.604   0.183  12.424  0.3078 -0.0869  0.1718
13982TIP3    H163361   5.654   0.194  12.343 -1.0440 -3.1737 -1.2220
13982TIP3    H263362   5.670   0.167  12.491  1.6002  4.2812  0.2527
13983TIP3   OH263363   3.351   3.277   5.286 -0.6048  0.3567 -0.2551
13983TIP3    H163364   3.316   3.204   5.235  0.1048  1.1312 -1.9308
13983TIP3    H263365   3.442   3.252   5.304 -1.3515 -0.7679  2.3798
13984TIP3   OH263366   5.312   2.232   4.287  0.0453 -0.2983 -0.2671
13984TIP3    H163367   5.279   2.306   4.340 -2.1942  0.0201 -1.9640
13984TIP3    H263368   5.378   2.271   4.231 -0.0832  0.1073 -0.1435
13985TIP3   OH263369   3.800   6.282  12.993  0.7959 -0.5745  0.2778
13985TIP3    H163370   3.864   6.217  12.964 -0.5848 -0.8855 -2.4454
13985TIP3    H263371   3.826   6.363  12.949  1.4522  0.3364  2.2178
13986TIP3   OH263372   3.957   2.382   3.003 -0.4022 -0.3799 -0.0914
13986TIP3    H163373   3.956   2.465   3.050 -0.2195 -0.7420  0.5617
13986TIP3    H263374   3.866   2.352   3.005 -1.2684  1.5209 -3.4834
13987TIP3   OH263375   4.623   5.432   4.387  0.3932  0.1518  0.2963
13987TIP3    H163376   4.662   5.514   4.356 -0.5379  0.4769 -0.0457
13987TIP3    H263377   4.669   5.364   4.338  0.5695  0.5267 -0.0671
13988TIP3   OH263378   6.481   0.200  13.005 -0.3098  0.2861  0.0350
13988TIP3    H163379   6.555   0.189  12.944 -0.9833  0.5867 -0.8591
13988TIP3    H263380   6.516   0.172  13.089  0.6585 -0.1375 -0.4814
13989TIP3   OH263381   4.697   6.517   3.286  0.1217  0.5518  0.0303
13989TIP3    H163382   4.765   6.505   3.220  1.4658 -0.4660  1.5133
13989TIP3    H263383   4.744   6.552   3.362 -1.2094  0.8273  0.7506
13990TIP3   OH263384   1.484   0.239  14.241  0.4027 -0.0543 -0.5291
13990TIP3    H163385   1.555   0.214  14.182  0.3180 -1.1524 -0.1952
13990TIP3    H263386   1.404   0.227  14.190  0.3789 -0.1968 -0.4595
13991TIP3   OH263387   6.495   4.981  15.838 -0.1475  0.1474  0.0983
13991TIP3    H163388   6.405   4.997  15.865  0.3056 -0.2992  2.0491
13991TIP3    H263389   6.544   4.979  15.920  1.9834  2.3269 -1.0167
13992TIP3   OH263390   1.087   3.540  17.004  0.1491  0.6319  0.4251
13992TIP3    H163391   1.060   3.449  16.992 -4.0633  1.6882  0.2336
13992TIP3    H263392   1.090   3.551  17.099  0.1851  0.4444  0.4478
13993TIP3   OH263393   5.599   5.442   6.196  0.3580 -0.7784 -0.0281
13993TIP3    H163394   5.601   5.353   6.230  2.8442 -0.5134  0.7769
13993TIP3    H263395   5.650   5.493   6.260  0.6464  0.8187 -1.4579
13994TIP3   OH263396   1.825   4.885  15.453 -0.3119  0.3085  0.1092
13994TIP3    H163397   1.746   4.832  15.466  0.3082 -0.2441  1.9057
13994TIP3    H263398   1.793   4.975  15.449 -0.9183  0.3233  3.0026
13995TIP3   OH263399   4.763   5.576  17.214  0.1443  0.4956  0.2030
13995TIP3    H163400   4.812   5.597  17.294  1.3169  0.3605 -0.4710
13995TIP3    H263401   4.730   5.660  17.183 -0.1285  0.5770  0.7009
13996TIP3   OH263402   0.018   6.287   0.311  0.3988 -0.1128 -0.1127
13996TIP3    H163403   0.103   6.244   0.314  0.4105 -0.2244 -1.5316
13996TIP3    H263404   0.035   6.372   0.270 -0.4707 -0.9733 -2.3806
13997TIP3   OH263405   5.057   5.997  11.718  0.1877  0.8239 -0.2617
13997TIP3    H163406   4.974   5.949  11.726  0.7186 -0.1283 -0.2304
13997TIP3    H263407   5.122   5.937  11.755  1.3916  0.1452 -3.1484
13998TIP3   OH263408   0.067   6.274  15.715  0.7870  0.4564 -0.3509
13998TIP3    H163409   0.077   6.367  15.695  0.0418  0.7136  0.4557
13998TIP3    H263410  -0.026   6.257  15.708  0.2160  0.8313  3.8056
13999TIP3   OH263411   3.783   5.847  15.719  0.3551  0.2168 -0.0301
13999TIP3    H163412   3.726   5.923  15.709 -1.7810 -1.2097  0.7117
13999TIP3    H263413   3.863   5.871  15.671 -1.9048  1.2196 -3.6736
14000TIP3   OH263414   0.929   5.205  15.078 -0.2193 -0.4053 -0.6788
14000TIP3    H163415   0.868   5.136  15.049 -0.7740  0.7865 -2.5310
14000TIP3    H263416   1.014   5.161  15.081 -0.7538 -1.4704 -0.6263
14001TIP3   OH263417   5.151   0.548  14.158 -0.2323  0.6043 -0.1419
14001TIP3    H163418   5.203   0.584  14.229  0.7440  1.9375 -1.4567
14001TIP3    H263419   5.190   0.462  14.141  0.6889  1.0158 -0.2024
14002TIP3   OH263420   5.966   5.183  15.801 -0.2563  0.4926 -0.7896
14002TIP3    H163421   6.049   5.136  15.792 -1.2554 -1.6252  0.3262
14002TIP3    H263422   5.969   5.221  15.888 -0.7012 -0.1638 -0.4768
14003TIP3   OH263423   2.911   4.903   4.145  0.1667  0.4469 -0.5339
14003TIP3    H163424   2.972   4.845   4.191  0.4726 -0.3112 -1.8308
14003TIP3    H263425   2.960   4.935   4.069 -0.6157  0.9011 -0.8668
14004TIP3   OH263426   4.148   4.719   3.908  0.4312 -0.2049 -0.2043
14004TIP3    H163427   4.239   4.696   3.921  0.3255 -0.9089 -0.6745
14004TIP3    H263428   4.133   4.794   3.967  0.6911 -1.5152  1.6149
14005TIP3   OH263429   3.916   5.802   1.277  0.3663  0.5621 -0.6077
14005TIP3    H163430   3.888   5.716   1.247  0.2597  0.1964  0.4994
14005TIP3    H263431   3.834   5.850   1.292  0.2323 -0.4691  2.5173
14006TIP3   OH263432   0.131   3.742  12.552 -0.7927 -0.9526  0.4662
14006TIP3    H163433   0.174   3.662  12.583 -0.2166 -1.0768 -0.5961
14006TIP3    H263434   0.133   3.801  12.627  1.1649 -0.9908  0.5077
14007TIP3   OH263435   1.144   0.974  14.279 -0.4213  0.0693  0.2268
14007TIP3    H163436   1.166   0.921  14.355 -0.6422  0.5446  0.6292
14007TIP3    H263437   1.098   0.914  14.220 -0.3115 -0.2830  0.4991
14008TIP3   OH263438   4.716   6.745  14.858 -0.0703 -0.0320  0.2565
14008TIP3    H163439   4.733   6.836  14.881  0.8574  0.2521 -1.3845
14008TIP3    H263440   4.628   6.728  14.892 -0.2749  1.4815  0.5625
14009TIP3   OH263441   6.586   0.302   0.908 -0.1185  0.3040 -0.6007
14009TIP3    H163442   6.553   0.391   0.918 -2.3736 -0.2844 -1.8993
14009TIP3    H263443   6.575   0.262   0.994  3.0346  1.8009  0.6533
14010TIP3   OH263444   5.998   4.100   1.319  0.2364 -0.2321 -0.2916
14010TIP3    H163445   5.919   4.137   1.280  1.2247  1.4033 -0.8389
14010TIP3    H263446   5.989   4.116   1.413  0.1562  0.4349 -0.4120
14011TIP3   OH263447   5.312   4.346   5.143  0.0645  0.0156 -0.7221
14011TIP3    H163448   5.291   4.378   5.231  0.9945  1.6245 -1.0444
14011TIP3    H263449   5.384   4.285   5.156 -1.6312 -1.9783 -0.1144
14012TIP3   OH263450   0.667   1.751  15.794 -0.1294 -0.2115  0.3712
14012TIP3    H163451   0.702   1.715  15.713 -0.7548 -0.9013  0.4026
14012TIP3    H263452   0.732   1.816  15.821 -0.2150  0.4810 -1.0040
14013TIP3   OH263453   1.035   2.053  15.051  0.1789 -0.4927 -0.6718
14013TIP3    H163454   1.077   2.007  14.978  0.4613 -0.5449 -0.4774
14013TIP3    H263455   1.106   2.070  15.113 -0.2330 -1.4036  0.0875
14014TIP3   OH263456   2.010   4.168   1.328  0.0304 -0.0984 -0.0681
14014TIP3    H163457   1.985   4.202   1.414 -0.9245  1.7434 -1.0348
14014TIP3    H263458   1.927   4.147   1.285  0.4790 -0.5294 -0.7456
14015TIP3   OH263459   5.332   5.737  12.534 -0.0352  0.0814 -0.1731
14015TIP3    H163460   5.366   5.658  12.491  0.1127 -0.1849  0.4199
14015TIP3    H263461   5.379   5.740  12.617 -1.3505 -0.2082  0.6057
14016TIP3   OH263462   0.140   4.932  13.986  0.6622  0.1957  0.4779
14016TIP3    H163463   0.158   4.953  14.078 -2.5843 -1.8224  1.7737
14016TIP3    H263464   0.170   4.842  13.976 -1.4072 -0.5408  0.4601
14017TIP3   OH263465   2.637   2.607   2.176  0.4229 -0.3546  0.3904
14017TIP3    H163466   2.601   2.695   2.187 -0.7282 -0.7355 -0.1596
14017TIP3    H263467   2.654   2.576   2.265 -3.9720 -1.4803  1.0624
14018TIP3   OH263468   0.634   0.434  15.635 -0.7324  0.5861 -0.1850
14018TIP3    H163469   0.548   0.405  15.665 -0.2637 -0.7049 -0.0359
14018TIP3    H263470   0.692   0.417  15.710  0.3160 -1.9503 -1.4758
14019TIP3   OH263471   5.180   0.623   3.322  0.1874  0.2724  0.6250
14019TIP3    H163472   5.273   0.639   3.335  0.0700  1.8734 -0.2266
14019TIP3    H263473   5.136   0.679   3.386 -0.1963  0.6216  0.0702
14020TIP3   OH263474   4.756   5.976  11.864 -0.5565  0.4110 -1.1730
14020TIP3    H163475   4.716   6.049  11.910 -0.5308  0.2470 -0.8870
14020TIP3    H263476   4.727   5.898  11.912 -0.6924  0.2226 -1.5532
14021TIP3   OH263477   5.669   2.095  14.499 -0.1878 -0.1072 -0.0895
14021TIP3    H163478   5.699   2.147  14.425  0.5313  0.5729  0.6546
14021TIP3    H263479   5.698   2.006  14.479 -0.4443 -0.0196 -0.8551
14022TIP3   OH263480   6.250   3.757  16.282 -0.1592 -0.3394  0.4731
14022TIP3    H163481   6.288   3.673  16.256  0.3081 -0.0003  0.0359
14022TIP3    H263482   6.166   3.761  16.237  0.1189 -0.2829 -0.0539
14023TIP3   OH263483   2.396   1.544   0.505  0.2299  0.1373 -0.6377
14023TIP3    H163484   2.396   1.466   0.560  0.1946 -0.2740 -1.2149
14023TIP3    H263485   2.305   1.573   0.504  0.3892  0.7207  0.3112
14024TIP3   OH263486   0.499   3.870  13.423  0.4816 -0.7854  0.1384
14024TIP3    H163487   0.486   3.818  13.502  0.4518 -0.8352  0.1009
14024TIP3    H263488   0.594   3.885  13.419  0.3390  0.4764  0.9792
14025TIP3   OH263489   2.427   1.367   2.076 -0.6384 -0.1556  0.0523
14025TIP3    H163490   2.476   1.348   2.155 -0.1393  0.3545 -0.1255
14025TIP3    H263491   2.362   1.432   2.104 -0.6668 -0.2094  0.1107
14026TIP3   OH263492   3.483   6.741  11.772 -0.3132 -0.1485 -0.6179
14026TIP3    H163493   3.547   6.670  11.764 -0.4135 -0.0801 -2.3989
14026TIP3    H263494   3.419   6.724  11.702 -0.7863  1.2451 -0.5595
14027TIP3   OH263495   3.981   2.091   2.694  0.1493  0.1742  0.0082
14027TIP3    H163496   4.032   2.109   2.615 -1.2574 -0.6885 -1.1458
14027TIP3    H263497   3.953   2.177   2.725 -0.5938  0.4597 -1.3655
14028TIP3   OH263498   4.950   0.630   0.721  0.1576  0.5052  0.1167
14028TIP3    H163499   5.023   0.659   0.775  0.7790  0.4840 -0.6962
14028TIP3    H263500   4.925   0.706   0.669 -2.6544  1.5673  2.7501
14029TIP3   OH263501   4.396   6.222   2.062 -0.5743 -0.6441 -0.4002
14029TIP3    H163502   4.331   6.290   2.041 -1.1963 -1.4953 -1.3032
14029TIP3    H263503   4.480   6.265   2.051 -0.8604  1.2808  3.2829
14030TIP3   OH263504   5.368   2.362  11.942  0.6138 -0.4674 -0.7778
14030TIP3    H163505   5.415   2.444  11.935  0.1468  0.1513  2.1588
14030TIP3    H263506   5.435   2.294  11.932  1.2742  0.2923 -1.5524
14031TIP3   OH263507   3.061   1.767   1.407  0.3187 -0.2127 -0.0928
14031TIP3    H163508   2.986   1.764   1.467 -1.5023  0.3982 -2.2103
14031TIP3    H263509   3.121   1.700   1.440 -1.1477 -0.7416  1.6613
14032TIP3   OH263510   0.709   2.536  15.630 -0.1193 -0.2535 -0.1088
14032TIP3    H163511   0.747   2.581  15.554  1.3217 -0.9464  0.1670
14032TIP3    H263512   0.615   2.552  15.623 -0.0636 -0.5632 -2.2286
14033TIP3   OH263513   2.714   4.321  16.631 -0.7599 -0.7447 -0.5235
14033TIP3    H163514   2.752   4.400  16.592  0.1475 -0.8943  0.0284
14033TIP3    H263515   2.620   4.336  16.629 -0.7494 -0.6466 -2.5541
14034TIP3   OH263516   1.884   3.738  11.797  0.1901 -0.3728  0.2460
14034TIP3    H163517   1.876   3.754  11.703 -0.3361  1.4252  0.5443
14034TIP3    H263518   1.882   3.826  11.836  0.9272 -1.0476  1.9047
14035TIP3   OH263519   2.543   1.495   0.959  0.6170 -0.1762  0.0735
14035TIP3    H163520   2.501   1.446   1.030  0.3524 -0.3710 -0.2158
14035TIP3    H263521   2.495   1.578   0.955  0.9321  0.0241  0.4277
14036TIP3   OH263522   2.014   1.709   6.701 -0.0629  0.0885  0.7890
14036TIP3    H163523   2.078   1.670   6.642 -0.2945 -0.7757  1.0835
14036TIP3    H263524   2.065   1.765   6.759  0.2575  0.3827  0.2195
14037TIP3   OH263525   4.625   4.210  11.031  0.1392  0.5310 -0.2799
14037TIP3    H163526   4.572   4.174  10.959  0.9327  0.3353 -0.7854
14037TIP3    H263527   4.606   4.153  11.105 -0.5597  0.6297 -0.3708
14038TIP3   OH263528   1.703   1.317  11.820  0.2142  0.1490 -0.1475
14038TIP3    H163529   1.796   1.343  11.815 -0.0883  1.5081  0.6956
14038TIP3    H263530   1.700   1.252  11.889  0.1958  2.0343  1.7278
14039TIP3   OH263531   4.210   4.444  16.244  0.0336 -0.2522 -0.4754
14039TIP3    H163532   4.163   4.438  16.160 -1.1834  0.5364  0.1253
14039TIP3    H263533   4.303   4.439  16.220 -0.3163 -0.7769 -1.7966
14040TIP3   OH263534   0.457   2.286  14.657  0.6494  0.2021  0.4314
14040TIP3    H163535   0.446   2.377  14.685  0.8398 -0.0002  1.1745
14040TIP3    H263536   0.466   2.236  14.738  0.8052 -0.4510  0.0243
14041TIP3   OH263537   5.097   0.787   0.893  0.1687 -0.1083  0.2879
14041TIP3    H163538   5.047   0.843   0.952  1.7629  1.4502  0.2354
14041TIP3    H263539   5.127   0.846   0.824  1.4737 -1.1404 -0.0580
14042TIP3   OH263540   5.719   2.104  13.820  0.1127 -0.1046 -0.9201
14042TIP3    H163541   5.637   2.148  13.797 -0.0142 -1.4068 -3.2261
14042TIP3    H263542   5.777   2.121  13.746  0.0886 -3.6155 -1.8994
14043TIP3   OH263543   1.404   1.390   2.957 -0.8252  0.0845 -0.2989
14043TIP3    H163544   1.339   1.415   2.891  0.8437  1.2184 -1.6029
14043TIP3    H263545   1.457   1.323   2.914  0.1228  0.6525 -0.0471
14044TIP3   OH263546   1.736   4.010  14.707 -0.2933 -0.4064 -0.9434
14044TIP3    H163547   1.802   3.998  14.775 -2.4038  1.2999  1.5618
14044TIP3    H263548   1.787   4.025  14.627  2.3455  0.3211  0.7449
14045TIP3   OH263549   2.975   3.322  11.184  0.0450  0.1341 -0.7782
14045TIP3    H163550   2.919   3.309  11.107 -0.7704  0.8008 -0.3157
14045TIP3    H263551   3.024   3.402  11.165 -0.3543  0.4487 -0.4968
14046TIP3   OH263552   4.354   3.768  14.605 -0.0724  0.2110  0.1570
14046TIP3    H163553   4.406   3.816  14.669  1.2487 -0.7217 -0.1789
14046TIP3    H263554   4.381   3.803  14.520 -2.4888  2.1020  0.0765
14047TIP3   OH263555   0.751   5.772   2.624  0.0303  0.5715 -0.0080
14047TIP3    H163556   0.669   5.787   2.672 -0.5159 -1.4014 -0.2496
14047TIP3    H263557   0.807   5.846   2.648 -1.5753  1.6225  0.6788
14048TIP3   OH263558   0.124   3.086  15.912  0.2755 -0.1469  0.0390
14048TIP3    H163559   0.118   3.089  15.817 -0.9727 -0.0813  0.1039
14048TIP3    H263560   0.049   3.136  15.942  0.3277 -0.6667  1.0667
14049TIP3   OH263561   4.646   2.747  13.317 -0.3321  0.2040 -0.1812
14049TIP3    H163562   4.555   2.742  13.347 -0.1676  0.5418  0.3896
14049TIP3    H263563   4.688   2.810  13.376  0.3526 -0.1863 -0.2369
14050TIP3   OH263564   6.434   5.786  13.987 -0.6349  0.1966  0.2795
14050TIP3    H163565   6.446   5.875  13.955  1.3630  0.8434  2.5494
14050TIP3    H263566   6.387   5.796  14.070 -0.0060 -0.8037  0.7773
14051TIP3   OH263567   5.613   1.578   0.821 -0.0181  0.3911 -0.7868
14051TIP3    H163568   5.540   1.522   0.794 -0.0538  0.6525 -1.2415
14051TIP3    H263569   5.669   1.582   0.744  0.5128  0.1348 -0.4142
14052TIP3   OH263570   3.128   2.726  14.271  0.2548 -0.5363  0.0019
14052TIP3    H163571   3.184   2.804  14.272 -0.6132  0.1019  0.6237
14052TIP3    H263572   3.039   2.761  14.276 -0.1716 -1.5579 -0.2841
14053TIP3   OH263573   6.323   2.612  13.298  0.1967  0.5262 -0.3114
14053TIP3    H163574   6.400   2.564  13.267 -0.5983  0.1431 -1.7601
14053TIP3    H263575   6.321   2.692  13.245 -0.3666  0.5726 -0.2291
14054TIP3   OH263576   3.596   0.274   1.816  0.2498 -0.1228  0.0578
14054TIP3    H163577   3.626   0.242   1.731  0.7391  0.7912 -0.1302
14054TIP3    H263578   3.675   0.304   1.860  0.3806 -2.6886  1.8346
14055TIP3   OH263579   1.142   1.986  10.732  0.1802 -0.0988 -0.3544
14055TIP3    H163580   1.066   1.937  10.700  0.6751  0.1486 -2.0148
14055TIP3    H263581   1.106   2.068  10.764 -0.1971  0.4954 -2.1618
14056TIP3   OH263582   6.368   0.225   4.184 -0.1801 -0.5916 -0.0758
14056TIP3    H163583   6.303   0.190   4.244 -0.9831  0.8679 -0.0460
14056TIP3    H263584   6.348   0.185   4.099 -2.5711  1.4171 -0.5885
14057TIP3   OH263585   5.742   4.426  17.090  0.3870 -0.0933  0.4211
14057TIP3    H163586   5.739   4.349  17.034  0.5045 -0.5416  1.0103
14057TIP3    H263587   5.653   4.435  17.124 -0.1339  1.2265 -1.1886
14058TIP3   OH263588   6.519   5.903   2.301  0.6672 -0.5133  0.1741
14058TIP3    H163589   6.472   5.987   2.300  2.4838  0.6794  2.7828
14058TIP3    H263590   6.468   5.848   2.361  1.1594 -0.1302  0.9586
14059TIP3   OH263591   6.229   5.938  13.750  0.1665  0.1637  0.0712
14059TIP3    H163592   6.220   5.865  13.689 -0.3421  0.7697 -0.6091
14059TIP3    H263593   6.322   5.961  13.747 -0.1107  1.2440 -1.7867
14060TIP3   OH263594   1.485   4.147   1.002 -0.4612 -0.6069  0.1920
14060TIP3    H163595   1.410   4.170   1.057 -0.2429 -0.5592  0.4716
14060TIP3    H263596   1.533   4.229   0.990 -0.4441 -0.6396  0.0252
14061TIP3   OH263597   0.301   2.775  14.404  0.4293 -0.1873  0.0354
14061TIP3    H163598   0.276   2.683  14.396 -0.1745 -0.1705  1.2941
14061TIP3    H263599   0.396   2.773  14.414  0.3181 -0.7945  1.2103
14062TIP3   OH263600   1.767   2.340  13.311  0.2862 -0.3441  0.5727
14062TIP3    H163601   1.702   2.271  13.295  0.2867 -0.4454  0.9722
14062TIP3    H263602   1.851   2.295  13.309  0.2942 -0.3366  0.7303
14063TIP3   OH263603   3.362   3.111   1.467 -0.3210 -0.2104  0.0392
14063TIP3    H163604   3.402   3.194   1.495 -0.0673 -0.3671  0.1422
14063TIP3    H263605   3.376   3.109   1.372 -2.4139  0.9908 -0.3583
14064TIP3   OH263606   1.739   2.813  16.760  0.0486 -0.1379 -0.2095
14064TIP3    H163607   1.796   2.758  16.814  1.3848  1.0196 -0.3917
14064TIP3    H263608   1.760   2.788  16.670  1.2840  1.1927 -0.3315
14065TIP3   OH263609   0.399   3.311   0.926 -0.2989 -0.0186 -0.7220
14065TIP3    H163610   0.486   3.324   0.964 -0.5326 -0.8806  0.1615
14065TIP3    H263611   0.388   3.216   0.925 -1.9657  0.0978  0.9459
14066TIP3   OH263612   1.710   4.612  16.793  0.3224  0.2774  0.1717
14066TIP3    H163613   1.796   4.605  16.749 -0.2597 -0.9636 -0.8436
14066TIP3    H263614   1.671   4.525  16.783 -1.7821  1.2734 -0.9369
14067TIP3   OH263615   1.832   3.334  11.607  0.1236  0.2280 -0.2050
14067TIP3    H163616   1.895   3.356  11.539  1.6177  0.2326  1.1268
14067TIP3    H263617   1.762   3.399  11.598  0.8047  0.8489 -1.0598
14068TIP3   OH263618   3.562   2.294  17.068  0.7813  0.5791  0.0173
14068TIP3    H163619   3.593   2.349  16.996  1.4729  0.1724 -0.0046
14068TIP3    H263620   3.641   2.272  17.118  0.4069  0.2649  0.4881
14069TIP3   OH263621   3.125   4.580  11.757  0.1653  0.0576  0.3337
14069TIP3    H163622   3.132   4.620  11.844 -0.4027  1.3482 -0.1884
14069TIP3    H263623   3.188   4.508  11.758 -1.0190 -1.0354  2.3954
14070TIP3   OH263624   1.892   4.737  14.713  0.2569 -0.3677  0.0349
14070TIP3    H163625   1.882   4.695  14.627 -1.4317  1.4243 -0.7312
14070TIP3    H263626   1.874   4.668  14.776  2.1745 -1.8893 -0.9946
14071TIP3   OH263627   2.560   3.563   0.714 -0.6159  0.1277 -0.2634
14071TIP3    H163628   2.634   3.563   0.775 -0.1812  1.2030 -0.7479
14071TIP3    H263629   2.568   3.481   0.667 -0.3123 -0.2177  0.3763
14072TIP3   OH263630   4.589   1.579   5.673  0.5186 -0.2545  0.2927
14072TIP3    H163631   4.593   1.568   5.578  2.2791 -1.5919  0.4932
14072TIP3    H263632   4.606   1.673   5.686  1.8574 -0.3370 -0.6426
14073TIP3   OH263633   2.300   3.444  16.847 -0.2172 -0.1388  0.1669
14073TIP3    H163634   2.362   3.450  16.919  0.4766 -1.6010 -0.2716
14073TIP3    H263635   2.260   3.358  16.857 -1.2753  0.2895 -0.2827
14074TIP3   OH263636   5.188   4.881  13.432  0.6030  0.1775  0.0185
14074TIP3    H163637   5.265   4.889  13.375  0.5920 -0.5929 -0.1172
14074TIP3    H263638   5.214   4.925  13.513  0.5361  1.5031 -0.6383
14075TIP3   OH263639   6.247   5.590  16.076 -0.2524 -0.1550 -0.2061
14075TIP3    H163640   6.155   5.574  16.097 -1.0200  1.7358 -1.7867
14075TIP3    H263641   6.263   5.680  16.103  1.0231 -0.2947 -0.3992
14076TIP3   OH263642   6.605   1.141   3.650 -0.3051  0.4206 -0.3316
14076TIP3    H163643   6.542   1.088   3.698 -1.7313  1.2758 -1.1934
14076TIP3    H263644   6.663   1.177   3.717  1.3431 -2.8900  0.2263
14077TIP3   OH263645   3.119   4.869  12.945 -0.4603 -0.1864 -0.0905
14077TIP3    H163646   3.178   4.837  13.013 -1.2117 -0.1609  0.5985
14077TIP3    H263647   3.044   4.905  12.994 -0.2910  1.3105 -0.8921
14078TIP3   OH263648   2.510   0.458  13.943  0.0571  0.5975  0.2419
14078TIP3    H163649   2.496   0.525  13.876  0.5748  0.4537 -0.0133
14078TIP3    H263650   2.422   0.435  13.972 -0.2026  0.3035 -0.7413
14079TIP3   OH263651   5.601   4.189   0.358  0.1630 -0.1845 -0.6476
14079TIP3    H163652   5.586   4.228   0.444 -2.4481 -0.3621 -0.9343
14079TIP3    H263653   5.653   4.110   0.375  0.7639  0.4648  0.5911
14080TIP3   OH263654   1.818   0.549  13.434  0.2665 -0.2520 -0.2464
14080TIP3    H163655   1.744   0.603  13.407  0.3949 -0.3255 -0.7691
14080TIP3    H263656   1.846   0.506  13.353  0.1771 -1.0858  0.1582
14081TIP3   OH263657   1.767   4.418   1.885 -0.7830 -0.1555 -0.4348
14081TIP3    H163658   1.709   4.379   1.950 -0.7020 -1.0557 -0.8693
14081TIP3    H263659   1.804   4.495   1.928 -0.7811 -0.6890  0.5535
14082TIP3   OH263660   1.003   3.185  12.821 -0.2461 -0.5117 -0.0795
14082TIP3    H163661   1.020   3.168  12.914 -0.3812 -2.5521 -0.3834
14082TIP3    H263662   1.046   3.269  12.804 -0.0459 -0.1930  1.7616
14083TIP3   OH263663   2.284   0.075   1.838 -0.3224  0.0520 -0.3371
14083TIP3    H163664   2.234   0.100   1.915 -1.0334  1.2097 -1.1436
14083TIP3    H263665   2.291   0.155   1.787  1.5651 -0.2969 -0.7050
14084TIP3   OH263666   5.819   6.362   5.583  0.2479 -0.2687 -0.1532
14084TIP3    H163667   5.844   6.270   5.586  2.4812  0.2835 -0.1027
14084TIP3    H263668   5.895   6.407   5.546 -1.0747  1.4825 -0.8992
14085TIP3   OH263669   0.611   4.698  11.882 -0.4664 -0.2765 -0.3693
14085TIP3    H163670   0.657   4.634  11.937 -0.7587 -1.2607 -1.2553
14085TIP3    H263671   0.642   4.681  11.793 -0.4544  0.9032 -0.6072
14086TIP3   OH263672   3.548   5.134  12.738  0.5509  0.0702  0.0893
14086TIP3    H163673   3.489   5.070  12.697 -0.0324  1.1224 -0.7713
14086TIP3    H263674   3.552   5.206  12.675  1.4864  0.7222  0.8723
14087TIP3   OH263675   4.919   4.875   2.489 -0.2427  0.0511 -0.8446
14087TIP3    H163676   4.996   4.923   2.518 -1.0317  0.5777  0.5214
14087TIP3    H263677   4.848   4.910   2.544 -1.0270 -1.9404 -0.5143
14088TIP3   OH263678   4.162   0.263   2.318 -0.4736  0.1085 -0.1051
14088TIP3    H163679   4.238   0.222   2.360  0.2470  1.1446 -0.3347
14088TIP3    H263680   4.194   0.289   2.232 -2.0146 -2.2264 -1.4536
14089TIP3   OH263681   0.062   1.837   5.426 -0.4183 -0.7648  0.5722
14089TIP3    H163682   0.001   1.803   5.491  1.5194 -1.0840  2.3422
14089TIP3    H263683   0.010   1.899   5.375 -2.2858 -1.2767  1.7385
14090TIP3   OH263684   1.550   5.562   5.508 -0.7738  0.4501 -0.1402
14090TIP3    H163685   1.530   5.513   5.588 -0.1447 -1.6193 -1.1902
14090TIP3    H263686   1.608   5.632   5.537 -0.7920 -0.0788  1.2663
14091TIP3   OH263687   5.156   4.494  12.020 -0.1587  0.7356  0.2658
14091TIP3    H163688   5.092   4.451  12.076  1.3883 -0.7956  0.9556
14091TIP3    H263689   5.120   4.488  11.932 -1.8885  1.7658  0.8433
14092TIP3   OH263690   3.774   6.213   2.134 -0.3804  0.1244  0.5878
14092TIP3    H163691   3.776   6.137   2.076  1.8706  2.4569 -2.7374
14092TIP3    H263692   3.864   6.220   2.167 -0.2095  2.0009 -0.1807
14093TIP3   OH263693   2.307   1.191   0.172 -0.6760 -0.0831 -0.2415
14093TIP3    H163694   2.279   1.270   0.217  1.7185  0.1335  1.0148
14093TIP3    H263695   2.362   1.223   0.100 -0.8586 -0.5773 -0.6083
14094TIP3   OH263696   6.270   2.441  12.810  0.2345  0.0480  0.2074
14094TIP3    H163697   6.201   2.500  12.778  0.6697  0.1686 -0.5111
14094TIP3    H263698   6.343   2.499  12.830  0.3539 -0.1555  0.3585
14095TIP3   OH263699   4.525   3.864   0.150 -0.2874 -0.2967  0.5049
14095TIP3    H163700   4.546   3.903   0.235 -2.6182  0.7524  0.6825
14095TIP3    H263701   4.491   3.938   0.099 -0.9514 -1.3296 -0.5804
14096TIP3   OH263702   4.251   2.844   4.735  0.3152 -0.4486 -0.4805
14096TIP3    H163703   4.309   2.880   4.802  1.6212 -0.3550 -1.6263
14096TIP3    H263704   4.222   2.921   4.685 -1.4960 -0.3896  0.5544
14097TIP3   OH263705   5.587   4.198  12.123 -0.2858 -0.2336 -0.0987
14097TIP3    H163706   5.652   4.257  12.162 -0.5116 -1.1070  1.7267
14097TIP3    H263707   5.638   4.127  12.085 -0.0246  0.9578 -2.0857
14098TIP3   OH263708   4.430   6.057  16.272  0.4746 -0.6859 -0.0151
14098TIP3    H163709   4.350   6.004  16.274 -0.2679  0.2495 -1.7875
14098TIP3    H263710   4.501   5.995  16.288 -0.4835 -1.8853 -0.2718
14099TIP3   OH263711   2.556   4.975   1.016  0.4305  0.2549 -0.1867
14099TIP3    H163712   2.593   4.973   0.927  0.7048  1.4084 -0.1208
14099TIP3    H263713   2.462   4.959   1.003  0.8777 -2.7453 -0.3526
14100TIP3   OH263714   5.555   0.009  12.067 -0.5021  0.0865 -0.6265
14100TIP3    H163715   5.614   0.031  12.139 -1.7640  0.5002  0.3165
14100TIP3    H263716   5.537  -0.084  12.078 -0.1793 -0.0041 -0.8222
14101TIP3   OH263717   6.714   4.482   2.490  0.0882 -0.0374 -0.0716
14101TIP3    H163718   6.684   4.573   2.499 -0.0773 -0.0262 -0.7047
14101TIP3    H263719   6.769   4.482   2.412 -0.6157 -0.6556 -0.5816
14102TIP3   OH263720   6.454   1.780  15.424  0.0346 -0.2761 -0.0871
14102TIP3    H163721   6.541   1.816  15.404 -0.0661  0.2485  0.3935
14102TIP3    H263722   6.457   1.763  15.519 -0.1187 -1.0061 -0.2051
14103TIP3   OH263723   4.716   2.421  16.420  0.0141 -0.3199 -0.8600
14103TIP3    H163724   4.679   2.493  16.369  0.6185 -1.2012 -2.6300
14103TIP3    H263725   4.810   2.432  16.412  0.1149 -0.8987 -0.5354
14104TIP3   OH263726   3.687   3.090  16.991  0.6173  0.0673 -0.4387
14104TIP3    H163727   3.741   3.015  17.014 -0.1505  0.1718  2.0784
14104TIP3    H263728   3.750   3.159  16.970  1.5809  0.0998  2.1051
14105TIP3   OH263729   0.374   1.684  13.575  0.0154 -0.6484  0.4887
14105TIP3    H163730   0.288   1.726  13.580  0.9658  1.9626 -2.1808
14105TIP3    H263731   0.359   1.608  13.517 -0.8786 -1.6173  1.9250
14106TIP3   OH263732   5.987   5.397   0.094 -0.1043 -0.0778  0.4330
14106TIP3    H163733   5.945   5.345   0.163 -1.8817  0.8736  0.1456
14106TIP3    H263734   6.014   5.478   0.139  0.6843 -0.3349  0.4345
14107TIP3   OH263735   6.319   5.646   4.201 -0.6630 -0.3919 -0.3410
14107TIP3    H163736   6.318   5.580   4.131 -0.3113  1.7445 -2.5194
14107TIP3    H263737   6.399   5.627   4.250 -0.6522 -1.6518 -0.7937
14108TIP3   OH263738   6.432   4.943   3.093 -0.3148 -0.5519  0.1857
14108TIP3    H163739   6.483   4.878   3.142  0.7409  0.2007  0.1075
14108TIP3    H263740   6.475   5.026   3.110 -1.7469  0.1820  0.4077
14109TIP3   OH263741   6.341   1.132   0.680 -0.5532  0.6248  0.4329
14109TIP3    H163742   6.394   1.136   0.759 -1.7031 -0.4986  1.3131
14109TIP3    H263743   6.384   1.066   0.625 -1.1320 -0.4713  1.2509
14110TIP3   OH263744   4.218   4.295   0.959 -0.0592  0.3920  0.1076
14110TIP3    H163745   4.288   4.311   0.896 -1.3396 -0.6145 -1.6470
14110TIP3    H263746   4.142   4.341   0.923 -0.5466  0.7165  1.5008
14111TIP3   OH263747   5.991   0.944   3.818 -0.0729 -0.0946 -0.1657
14111TIP3    H163748   5.936   0.872   3.848  1.1817  0.3683  3.8678
14111TIP3    H263749   6.030   0.912   3.736 -2.0287 -2.6256 -0.2356
14112TIP3   OH263750   0.251   2.258   5.603  0.3527 -0.0161  0.2728
14112TIP3    H163751   0.264   2.173   5.644  1.5871 -0.1992 -0.4567
14112TIP3    H263752   0.177   2.245   5.543 -0.7688 -0.0221  1.5952
14113TIP3   OH263753   3.603   2.077   2.154  0.2126  0.4356  0.1733
14113TIP3    H163754   3.515   2.113   2.150  0.0499 -0.0735 -2.0651
14113TIP3    H263755   3.655   2.133   2.096  0.9733 -0.2858  0.1347
14114TIP3   OH263756   2.764   3.224   4.656  0.2438 -0.1654 -0.3822
14114TIP3    H163757   2.681   3.222   4.608 -0.0054  0.1356  0.0240
14114TIP3    H263758   2.810   3.301   4.621  0.6681 -0.7397 -1.1125
14115TIP3   OH263759   2.809   3.428  16.563  0.0773 -0.2444  0.4442
14115TIP3    H163760   2.763   3.512  16.562  1.0056  0.2634 -0.3875
14115TIP3    H263761   2.856   3.424  16.480 -0.1086 -1.6879  0.3679
14116TIP3   OH263762   0.201   4.782   3.305  0.6960  0.3548 -0.6453
14116TIP3    H163763   0.143   4.757   3.377 -1.1984 -0.7627 -2.4549
14116TIP3    H263764   0.268   4.714   3.304  1.0309  0.6443  0.3095
14117TIP3   OH263765   1.110   2.322  17.021 -0.3102 -0.1517  0.1682
14117TIP3    H163766   1.180   2.266  17.056 -0.5490 -1.8527 -1.8769
14117TIP3    H263767   1.157   2.391  16.974 -0.0271  0.1359  0.8480
14118TIP3   OH263768   2.515   0.566  17.272  0.5746 -0.0639  0.3068
14118TIP3    H163769   2.587   0.577  17.209 -1.0177  0.2799 -1.5579
14118TIP3    H263770   2.556   0.578  17.357  2.8499 -0.5324 -0.6342
14119TIP3   OH263771   0.235   3.150  12.433  0.4537 -0.5507  0.2414
14119TIP3    H163772   0.190   3.098  12.499  0.4569  1.2893  1.7990
14119TIP3    H263773   0.175   3.223  12.415  1.9500  0.9306  0.9600
14120TIP3   OH263774   4.016   1.528   4.767  0.0587 -0.2433 -0.1286
14120TIP3    H163775   4.025   1.564   4.679 -0.1239  0.6320  0.1977
14120TIP3    H263776   4.096   1.554   4.813 -0.7544  1.1518  0.5750
14121TIP3   OH263777   3.697   4.120   4.220  0.9411  0.3056  0.4394
14121TIP3    H163778   3.616   4.106   4.269  0.0376 -0.1939 -1.1289
14121TIP3    H263779   3.680   4.199   4.169  1.3945  0.1421  0.0300
14122TIP3   OH263780   3.822   0.617  12.994 -0.1687 -0.2889 -0.4233
14122TIP3    H163781   3.818   0.550  13.063  0.3317  1.0038  0.9259
14122TIP3    H263782   3.889   0.678  13.025  2.4081 -1.2620 -3.5743
14123TIP3   OH263783   1.258   3.022  16.506 -0.1399 -0.2482 -0.7179
14123TIP3    H163784   1.231   3.101  16.459 -0.4177 -1.0049 -1.8841
14123TIP3    H263785   1.192   2.957  16.482 -0.0507 -0.7722  0.4183
14124TIP3   OH263786   4.193   2.460   4.346  0.6016 -0.6516  0.6356
14124TIP3    H163787   4.231   2.490   4.429  0.1486 -1.8945  1.3055
14124TIP3    H263788   4.151   2.377   4.366 -2.2044  0.4418 -0.1308
14125TIP3   OH263789   5.539   3.492   1.373  0.6991 -0.7535  0.4809
14125TIP3    H163790   5.482   3.417   1.357  0.5947 -0.4836 -0.5451
14125TIP3    H263791   5.590   3.499   1.292 -0.5708  1.3704 -0.2155
14126TIP3   OH263792   5.423   4.723  15.057 -0.0647 -0.1811  0.7863
14126TIP3    H163793   5.338   4.732  15.015  0.1717 -1.2219  0.0404
14126TIP3    H263794   5.418   4.640  15.104  1.0589 -1.1005 -0.6175
14127TIP3   OH263795   0.439   1.987   1.505 -0.7285 -0.1741 -0.0046
14127TIP3    H163796   0.416   1.894   1.508  0.0283 -0.3451  2.0590
14127TIP3    H263797   0.518   1.994   1.559 -0.3810  1.5836 -0.6628
14128TIP3   OH263798   2.684   3.877  11.684 -0.5441 -0.0674  0.0083
14128TIP3    H163799   2.665   3.969  11.700 -1.0496 -0.4615  1.9372
14128TIP3    H263800   2.598   3.837  11.670 -0.3662 -0.3492 -0.3208
14129TIP3   OH263801   1.591   3.772   1.667 -0.0181 -0.8754  0.2346
14129TIP3    H163802   1.611   3.678   1.660 -1.1073 -1.3142  2.2349
14129TIP3    H263803   1.506   3.781   1.625  1.3512 -0.1417 -2.6732
14130TIP3   OH263804   4.207   1.580   1.490  0.0551  0.2318  0.2581
14130TIP3    H163805   4.111   1.581   1.493 -0.0900 -1.1679 -1.8072
14130TIP3    H263806   4.233   1.511   1.551 -0.2155  0.7095  0.9293
14131TIP3   OH263807   2.628   1.321   6.421 -0.8864  0.6421 -0.1170
14131TIP3    H163808   2.685   1.397   6.429 -0.1946 -0.0664  2.4520
14131TIP3    H263809   2.587   1.332   6.335  2.1923  1.7901 -1.6020
14132TIP3   OH263810   6.046   3.984  15.749  0.0836 -0.1742  0.2274
14132TIP3    H163811   6.036   4.078  15.761  1.1815  0.2358 -1.5943
14132TIP3    H263812   5.958   3.953  15.727 -0.4395  0.2693  1.6103
14133TIP3   OH263813   2.267   4.377   5.163 -0.0558  0.0915 -0.0996
14133TIP3    H163814   2.362   4.391   5.168  0.1745 -1.6972  1.4332
14133TIP3    H263815   2.258   4.287   5.130 -1.1030 -0.8885  2.6145
14134TIP3   OH263816   6.368   0.254  15.444 -0.1670  0.0499 -0.3376
14134TIP3    H163817   6.379   0.211  15.529 -1.8511  0.4098  0.1043
14134TIP3    H263818   6.273   0.259  15.432 -0.1097  3.5266 -0.4025
14135TIP3   OH263819   2.562   5.196   6.667  0.4823  0.1718  0.4550
14135TIP3    H163820   2.491   5.251   6.632  1.4820  0.6416 -0.9101
14135TIP3    H263821   2.522   5.152   6.742 -0.7096  1.8483  0.8753
14136TIP3   OH263822   6.549   6.144   4.179  0.3229  1.1830 -0.2129
14136TIP3    H163823   6.639   6.126   4.151 -0.3213 -1.2009 -0.9987
14136TIP3    H263824   6.521   6.215   4.122  1.2309  0.9244 -1.0214
14137TIP3   OH263825   5.523   6.379  10.896 -0.3106  0.0883  0.2152
14137TIP3    H163826   5.519   6.447  10.830  1.4883 -0.5401 -0.6140
14137TIP3    H263827   5.596   6.323  10.869 -0.8060 -1.3467  1.6430
14138TIP3   OH263828   0.697   2.005  11.758  0.0420  0.4079 -0.2585
14138TIP3    H163829   0.616   2.023  11.805 -0.3506  2.5347 -1.6327
14138TIP3    H263830   0.676   2.016  11.666  1.4833 -0.8485 -0.7964
14139TIP3   OH263831   6.590   6.158  15.655  0.4516 -0.1871 -0.4292
14139TIP3    H163832   6.557   6.102  15.585  1.2379 -2.3944  0.8574
14139TIP3    H263833   6.550   6.123  15.734 -0.0980  1.9891  0.3189
14140TIP3   OH263834   4.922   1.670   0.392  0.0090  0.2756  0.6324
14140TIP3    H163835   5.017   1.670   0.399  0.1008  0.8091 -0.3970
14140TIP3    H263836   4.898   1.579   0.376  0.4530  0.2925 -0.1901
14141TIP3   OH263837   4.622   2.577   5.682  0.5488 -0.5999  0.1067
14141TIP3    H163838   4.538   2.547   5.714 -0.5102  2.2048  0.2527
14141TIP3    H263839   4.682   2.565   5.757  0.0452 -1.5561  0.3731
14142TIP3   OH263840   0.729   5.712  11.026  0.2362  0.3790 -0.2413
14142TIP3    H163841   0.726   5.617  11.011 -1.0304  0.0005  1.9151
14142TIP3    H263842   0.820   5.736  11.013  1.1022 -1.6174  1.5072
14143TIP3   OH263843   1.678   4.074   3.035 -0.3010 -0.7874 -0.0112
14143TIP3    H163844   1.674   4.130   2.957 -0.8241 -0.3060  0.3497
14143TIP3    H263845   1.600   4.018   3.029 -0.4780 -0.5787  0.2823
14144TIP3   OH263846   0.005   0.390   4.249  0.2107  0.3380 -0.5023
14144TIP3    H163847   0.096   0.385   4.218  0.4660  0.4108  0.2117
14144TIP3    H263848   0.010   0.441   4.329 -0.4440  0.1965 -0.3660
14145TIP3   OH263849   5.536   6.107  16.197 -0.2073  0.4696 -0.3875
14145TIP3    H163850   5.622   6.127  16.162  0.5465  0.7811  1.5344
14145TIP3    H263851   5.548   6.025  16.244  0.0468  2.3111  3.0401
14146TIP3   OH263852   1.261   5.513  15.297  0.2546  0.1297 -0.3126
14146TIP3    H163853   1.286   5.425  15.327 -0.1545 -0.0328 -0.4434
14146TIP3    H263854   1.202   5.498  15.223  1.0088  0.5277 -1.0145
14147TIP3   OH263855   1.869   1.314   0.392  0.3967 -0.0473  0.1963
14147TIP3    H163856   1.777   1.339   0.383 -0.0321 -1.8601 -0.9592
14147TIP3    H263857   1.866   1.236   0.449  1.4939  1.2859  2.1947
14148TIP3   OH263858   6.349   0.797   3.308  0.1336 -0.4753 -0.7927
14148TIP3    H163859   6.392   0.882   3.304 -1.9841  0.6036 -2.0874
14148TIP3    H263860   6.373   0.762   3.394  3.4290  0.0554 -1.3528
14149TIP3   OH263861   2.969   2.752  16.595  0.2256  0.0283  0.1570
14149TIP3    H163862   2.941   2.696  16.522 -1.3222  0.6330  0.2532
14149TIP3    H263863   3.017   2.823  16.553 -1.5464  0.9328 -0.4228
14150TIP3   OH263864   2.734   6.169   5.505 -0.2814  0.3193  0.2956
14150TIP3    H163865   2.639   6.174   5.493 -0.3173 -0.1899  0.3135
14150TIP3    H263866   2.746   6.101   5.572  0.1124  0.0419 -0.0472
14151TIP3   OH263867   6.226   1.614  12.351  0.1097 -0.2030 -0.2581
14151TIP3    H163868   6.236   1.597  12.258  0.1083 -0.8836 -0.1395
14151TIP3    H263869   6.132   1.615  12.366  0.1175 -1.9488  0.0519
14152TIP3   OH263870   2.485   6.243  13.078  0.6517  0.7287 -0.4948
14152TIP3    H163871   2.445   6.328  13.096  0.9692  0.9221 -0.7024
14152TIP3    H263872   2.427   6.203  13.014  0.8607  1.0647 -0.8966
14153TIP3   OH263873   5.058   3.897   6.370 -0.3213 -0.5112  0.2226
14153TIP3    H163874   5.084   3.829   6.307 -1.9956  0.1476 -1.2645
14153TIP3    H263875   4.966   3.879   6.388 -1.0787  1.7982 -0.9015
14154TIP3   OH263876   3.856   4.753   3.649 -0.4805  0.5221 -0.0415
14154TIP3    H163877   3.896   4.684   3.703  0.9765  2.7372  1.8749
14154TIP3    H263878   3.785   4.787   3.702 -0.2766  1.4298 -0.3290
14155TIP3   OH263879   0.030   5.314   3.225  0.3712 -0.5237  0.2639
14155TIP3    H163880   0.112   5.326   3.273  2.3030 -1.0264 -2.6690
14155TIP3    H263881   0.025   5.220   3.210 -0.2025 -0.3790 -0.4860
14156TIP3   OH263882   0.818   1.698   5.126  0.3743  0.4164 -0.2363
14156TIP3    H163883   0.772   1.756   5.065  1.1525  0.3274 -0.9315
14156TIP3    H263884   0.749   1.659   5.179 -0.2316  1.3116 -0.3481
14157TIP3   OH263885   3.679   1.212   5.374  0.1599 -0.9112  0.4197
14157TIP3    H163886   3.607   1.268   5.404  0.7979  0.7573 -0.9692
14157TIP3    H263887   3.748   1.225   5.439  0.3886  0.1656 -0.0100
14158TIP3   OH263888   5.010   3.177   1.293 -0.5063 -0.1457 -0.3096
14158TIP3    H163889   4.914   3.173   1.302 -0.5165 -0.2202 -0.4442
14158TIP3    H263890   5.038   3.238   1.362 -0.6831  0.1378 -0.4855
14159TIP3   OH263891   5.149   2.207   3.601  0.2975  0.2422  0.7019
14159TIP3    H163892   5.128   2.168   3.516 -1.0466  0.3843  0.9324
14159TIP3    H263893   5.189   2.137   3.651 -0.4944 -0.3547  0.5194
14160TIP3   OH263894   1.911   4.904   3.608 -0.1493  0.2736  0.1308
14160TIP3    H163895   1.816   4.900   3.601  0.0524 -2.3198 -3.0651
14160TIP3    H263896   1.934   4.838   3.674 -0.4897 -0.0012 -0.0274
14161TIP3   OH263897   0.580   3.662  11.335 -0.6878  0.0926  0.2294
14161TIP3    H163898   0.528   3.582  11.325 -0.8370  0.2584 -0.3327
14161TIP3    H263899   0.597   3.692  11.246  0.2717  0.1118  0.4089
14162TIP3   OH263900   1.028   0.043  14.730  0.6775  0.0245  0.1116
14162TIP3    H163901   0.975   0.019  14.654  2.3682  0.3122 -1.2404
14162TIP3    H263902   1.039   0.138  14.722 -0.4304  0.3109  1.6461
14163TIP3   OH263903   3.081   3.604  12.630  0.2733 -0.2366 -0.2205
14163TIP3    H163904   3.041   3.607  12.717  0.0184 -0.3517 -0.3323
14163TIP3    H263905   3.173   3.625  12.645 -0.1551  1.8506 -0.1790
14164TIP3   OH263906   3.058   2.998  16.074 -0.4136  0.2275  0.0255
14164TIP3    H163907   3.075   2.905  16.055 -0.2794  0.4578 -1.0262
14164TIP3    H263908   3.020   3.032  15.993 -1.8264  0.7551  0.8772
14165TIP3   OH263909   6.435   2.470   3.651 -0.0432  0.0886 -0.3189
14165TIP3    H163910   6.511   2.458   3.709 -1.9220 -1.9393  1.9870
14165TIP3    H263911   6.396   2.553   3.680 -1.3810 -1.2468  2.0775
14166TIP3   OH263912   1.273   2.321  14.075 -0.2098 -0.4844  0.1796
14166TIP3    H163913   1.241   2.279  13.995  1.0628  0.2510 -0.7598
14166TIP3    H263914   1.329   2.255  14.116  0.5978 -0.2518 -0.5154
14167TIP3   OH263915   5.399   1.648   4.536  0.3382 -0.2611  0.2802
14167TIP3    H163916   5.330   1.687   4.482 -0.1860 -1.4334  0.0611
14167TIP3    H263917   5.481   1.677   4.495 -0.0095  0.9267  0.3799
14168TIP3   OH263918   4.728   1.341   2.974  0.4838 -0.4151  0.1086
14168TIP3    H163919   4.750   1.432   2.992 -0.4205 -0.2572  0.4465
14168TIP3    H263920   4.810   1.293   2.988  0.8893  0.2994  0.2134
14169TIP3   OH263921   2.975   4.101   0.481  0.1267 -0.2898 -0.5359
14169TIP3    H163922   2.966   4.094   0.385  1.3547  1.3210 -0.8063
14169TIP3    H263923   3.034   4.030   0.504  0.8012  0.0482 -1.1640
14170TIP3   OH263924   5.876   3.679   2.868  0.1188 -0.5592 -0.2099
14170TIP3    H163925   5.803   3.701   2.809  0.6480  0.1903 -0.6134
14170TIP3    H263926   5.954   3.701   2.817  0.5950  2.5309  1.6044
14171TIP3   OH263927   1.467   0.606   5.640  0.0984  0.2881 -0.0107
14171TIP3    H163928   1.448   0.630   5.731 -0.7629 -0.6865  0.0836
14171TIP3    H263929   1.543   0.549   5.645  0.6173  0.9733  0.0032
14172TIP3   OH263930   3.164   2.924   3.195  0.4776  0.0386  0.3653
14172TIP3    H163931   3.222   2.883   3.259 -0.7884 -2.7402 -0.0994
14172TIP3    H263932   3.215   2.925   3.114  1.0039  0.6989  0.6981
14173TIP3   OH263933   5.291   4.856  10.608 -0.5448 -0.2200  0.2978
14173TIP3    H163934   5.302   4.918  10.536  0.6586  0.2427  0.8469
14173TIP3    H263935   5.209   4.883  10.650 -0.3548  0.6331  0.1511
14174TIP3   OH263936   3.436   6.394  17.216  0.4876  0.6867 -0.4772
14174TIP3    H163937   3.382   6.342  17.275  0.9805  0.6836 -0.0276
14174TIP3    H263938   3.505   6.334  17.187 -0.0972  0.4977 -1.5539
14175TIP3   OH263939   4.850   0.157   2.049 -0.1475  0.0509  0.0970
14175TIP3    H163940   4.762   0.146   2.013 -0.5098  0.7498  0.7416
14175TIP3    H263941   4.836   0.160   2.143  0.5191  0.5913  0.1804
14176TIP3   OH263942   3.621   0.597  16.698 -0.3070 -0.2772 -0.3073
14176TIP3    H163943   3.570   0.606  16.778 -0.3914  0.3700 -0.4280
14176TIP3    H263944   3.693   0.539  16.722 -0.6184 -0.5082  0.0925
14177TIP3   OH263945   5.790   1.603   5.052 -0.6401 -0.0485 -0.4249
14177TIP3    H163946   5.879   1.630   5.073 -0.7092  0.5195 -0.8464
14177TIP3    H263947   5.774   1.638   4.964 -1.6464  0.7530  0.0536
14178TIP3   OH263948   2.722   5.853  13.027 -0.3149 -0.0826 -0.0134
14178TIP3    H163949   2.679   5.934  13.001  0.2863  0.1000 -0.4750
14178TIP3    H263950   2.655   5.786  13.016 -0.4727  0.1820 -0.7933
14179TIP3   OH263951   0.161   3.721  13.023 -0.3252 -0.2077 -0.6107
14179TIP3    H163952   0.159   3.661  13.097 -2.9879  0.5210  0.0083
14179TIP3    H263953   0.175   3.807  13.062 -0.7856  0.0692 -1.0515
14180TIP3   OH263954   0.547   5.414   5.600  0.2117 -0.4182  0.1584
14180TIP3    H163955   0.507   5.399   5.685  0.2615  2.3873  0.7839
14180TIP3    H263956   0.641   5.418   5.618  0.3341 -1.1904 -0.2817
14181TIP3   OH263957   6.680   3.234   4.248  0.0600  0.1253  0.0785
14181TIP3    H163958   6.660   3.146   4.282 -1.3997 -0.5287 -2.1877
14181TIP3    H263959   6.747   3.219   4.182 -0.2567  0.6810 -0.3788
14182TIP3   OH263960   4.177   1.997   0.347  0.5069 -0.5060 -0.1889
14182TIP3    H163961   4.183   1.902   0.340 -0.0857 -0.6562  0.9537
14182TIP3    H263962   4.130   2.012   0.429 -0.9449  0.7415 -1.1887
14183TIP3   OH263963   2.418   2.703  13.675 -0.1190  0.5002  0.4938
14183TIP3    H163964   2.385   2.773  13.619  2.2286  1.8861  0.6920
14183TIP3    H263965   2.422   2.626  13.618  0.0312  1.2833 -0.5826
14184TIP3   OH263966   6.105   3.427  15.311 -0.5219  0.8824  0.1204
14184TIP3    H163967   6.135   3.469  15.230  1.6054  1.6069  1.2140
14184TIP3    H263968   6.176   3.368  15.335 -0.7771  1.2273  1.8208
14185TIP3   OH263969   3.433   0.760  14.175 -0.0577 -0.1403 -0.5326
14185TIP3    H163970   3.345   0.778  14.142  0.1056  1.1329 -0.3224
14185TIP3    H263971   3.491   0.799  14.109  0.2848  1.7020  0.7684
14186TIP3   OH263972   1.422   4.641  12.152 -0.7133  0.0235 -0.0245
14186TIP3    H163973   1.391   4.580  12.085 -0.0063 -0.5932  0.1959
14186TIP3    H263974   1.364   4.717  12.144 -2.9798 -1.4902  1.0863
14187TIP3   OH263975   6.697   6.456   5.868  0.1455  0.8811 -0.3843
14187TIP3    H163976   6.607   6.424   5.872  0.4557  0.0452  0.1174
14187TIP3    H263977   6.742   6.393   5.811  0.7192  0.5080  0.4528
14188TIP3   OH263978   0.731   2.744  15.392 -0.0219  0.0180 -0.2384
14188TIP3    H163979   0.659   2.693  15.354  1.0502 -1.6468 -0.1583
14188TIP3    H263980   0.786   2.766  15.317 -1.3352  2.6556 -0.5351
14189TIP3   OH263981   3.985   5.420  11.087  0.3340 -0.1931 -0.0472
14189TIP3    H163982   4.020   5.331  11.085 -0.0061 -0.3484  0.5377
14189TIP3    H263983   3.900   5.411  11.131 -0.6726  0.0986 -1.8381
14190TIP3   OH263984   4.497   4.326  14.887 -0.4178 -0.2893  0.5755
14190TIP3    H163985   4.486   4.308  14.794  0.7089  0.8070  0.1862
14190TIP3    H263986   4.419   4.374  14.912 -0.9201 -0.9571  0.3004
14191TIP3   OH263987   6.345   2.199   3.663  0.3242  0.1416  0.1794
14191TIP3    H163988   6.387   2.175   3.745 -0.1810  1.9603  1.0140
14191TIP3    H263989   6.365   2.292   3.652 -1.1687  0.3798 -0.8040
14192TIP3   OH263990   6.666   0.896   5.274 -0.0768  0.0691 -0.8509
14192TIP3    H163991   6.599   0.961   5.291 -1.2295 -0.4072 -3.1539
14192TIP3    H263992   6.722   0.936   5.207  0.3563 -0.5495 -0.8746
14193TIP3   OH263993   5.971   3.996   4.061  0.4893 -0.3292 -0.1941
14193TIP3    H163994   5.985   4.052   4.137 -2.6748  1.3012 -0.6452
14193TIP3    H263995   5.927   3.918   4.096  1.5098 -0.8557 -0.0493
14194TIP3   OH263996   1.397   1.764  17.128 -0.0406 -0.2622 -0.6905
14194TIP3    H163997   1.454   1.841  17.131  0.3025 -0.5473  0.4769
14194TIP3    H263998   1.423   1.718  17.048  1.3519 -0.3709 -0.1907
14195TIP3   OH263999   3.576   4.085  13.791  0.7312 -0.1721  0.7102
14195TIP3    H164000   3.550   4.177  13.782 -0.0402 -0.5495 -1.9642
14195TIP3    H264001   3.509   4.046  13.847  1.0665  0.8792  1.8636
14196TIP3   OH264002   3.451   5.003  13.265  0.2972  0.8214  0.1674
14196TIP3    H164003   3.465   5.028  13.173 -0.2450  0.9859  0.1250
14196TIP3    H264004   3.420   5.083  13.307  2.0712  1.2003  0.8748
14197TIP3   OH264005   6.581   2.462   0.403 -0.2905  0.3264 -0.4314
14197TIP3    H164006   6.671   2.485   0.428 -0.2587  0.7526 -0.9199
14197TIP3    H264007   6.541   2.432   0.485  0.6082 -0.9205 -0.4227
14198TIP3   OH264008   3.706   1.629  14.020 -0.0773  0.4571  0.1500
14198TIP3    H164009   3.647   1.650  13.948 -0.8103  1.1112  0.9217
14198TIP3    H264010   3.780   1.687  14.008 -1.2343  2.2491  1.1860
14199TIP3   OH264011   5.315   1.358   4.330  0.3711  0.5261 -0.4638
14199TIP3    H164012   5.357   1.367   4.245 -0.5215 -0.5867 -1.0382
14199TIP3    H264013   5.383   1.381   4.393  1.9685 -1.5877 -1.3368
14200TIP3   OH264014   5.321   6.236  14.792 -0.3281  0.1335  0.3215
14200TIP3    H164015   5.285   6.165  14.738  0.3372  0.2986 -0.3565
14200TIP3    H264016   5.256   6.248  14.861 -1.6143  0.4256 -0.8677
14201TIP3   OH264017   0.264   0.652  15.358 -0.4358 -0.4114  0.0218
14201TIP3    H164018   0.208   0.576  15.345  0.6804 -1.1743 -0.5154
14201TIP3    H264019   0.258   0.671  15.452  0.4157 -2.0995  0.4443
14202TIP3   OH264020   0.584   1.000  15.015  0.1802 -0.0488  0.3249
14202TIP3    H164021   0.629   1.010  15.099 -2.7134 -1.5157  2.2268
14202TIP3    H264022   0.549   0.911  15.017 -1.3421  0.4342 -1.7088
14203TIP3   OH264023   1.268   3.888  13.580  0.3838  0.9537  0.3216
14203TIP3    H164024   1.218   3.928  13.651 -2.6177  0.1577 -1.1735
14203TIP3    H264025   1.276   3.796  13.605 -1.7142  0.4159 -0.8134
14204TIP3   OH264026   6.669   0.103   1.464  0.3207 -0.2414  0.2913
14204TIP3    H164027   6.727   0.176   1.443  0.4390 -0.5711 -0.5620
14204TIP3    H264028   6.707   0.065   1.543 -0.0191  0.9028  1.0412
14205TIP3   OH264029   4.934   3.834  11.846  0.2652  0.8108  0.4709
14205TIP3    H164030   4.874   3.784  11.902 -1.0994  1.7852 -0.0711
14205TIP3    H264031   4.975   3.898  11.905  0.7217  0.2062  0.8227
14206TIP3   OH264032   4.598   4.317  12.367  0.2622 -0.5688 -0.3508
14206TIP3    H164033   4.522   4.375  12.358  0.0328 -0.8785 -0.4399
14206TIP3    H264034   4.655   4.361  12.431  1.3249  1.0510 -2.2974
14207TIP3   OH264035   1.618   3.477  11.871 -0.0343 -0.3502 -0.2335
14207TIP3    H164036   1.615   3.453  11.778  1.2949 -0.5264 -0.2485
14207TIP3    H264037   1.624   3.394  11.917  2.3000 -0.2345 -0.1773
14208TIP3   OH264038   4.923   4.992  11.547 -0.1972  0.7684 -0.5656
14208TIP3    H164039   4.914   4.915  11.491  2.2433  0.1729 -0.2729
14208TIP3    H264040   4.868   4.974  11.622  0.3456 -0.7325 -0.4986
14209TIP3   OH264041   6.122   2.409   2.935  0.1148 -0.4822  0.3547
14209TIP3    H164042   6.122   2.319   2.904  1.1521 -0.8440  1.3085
14209TIP3    H264043   6.050   2.452   2.888  0.7162 -1.3369 -1.4356
14210TIP3   OH264044   3.813   1.738  15.105  0.5062  0.2398  0.5632
14210TIP3    H164045   3.735   1.784  15.137 -0.2191 -1.9444  2.1967
14210TIP3    H264046   3.781   1.686  15.031  1.4817  2.7387 -1.7832
14211TIP3   OH264047   3.870   5.538   1.249  0.3409 -0.1559 -0.1243
14211TIP3    H164048   3.950   5.506   1.290  0.1244  0.6186  0.9478
14211TIP3    H264049   3.890   5.540   1.156  1.9076  0.9469  0.2074
14212TIP3   OH264050   6.440   4.833   4.899  0.3410  0.0328 -0.1172
14212TIP3    H164051   6.428   4.853   4.991  1.5973 -1.5216  0.4359
14212TIP3    H264052   6.486   4.749   4.898  1.5874  0.6442 -2.1203
14213TIP3   OH264053   5.304   6.765   1.904 -0.2865  0.1414 -0.7887
14213TIP3    H164054   5.231   6.774   1.965 -0.0546 -0.9972 -0.3126
14213TIP3    H264055   5.265   6.724   1.827  0.0116 -1.4457 -0.1350
14214TIP3   OH264056   4.411   1.338   3.472  0.8729  0.6999 -0.8409
14214TIP3    H164057   4.361   1.418   3.456  0.3249  0.4737 -0.3016
14214TIP3    H264058   4.488   1.367   3.521  0.0745  0.7582  0.4172
14215TIP3   OH264059   0.539   4.648   3.080  0.1095 -0.7053  0.3972
14215TIP3    H164060   0.530   4.684   3.169  1.6544  1.3542 -0.2030
14215TIP3    H264061   0.632   4.630   3.072  0.4829  1.5989 -1.6130
14216TIP3   OH264062   6.759   1.823  16.452 -0.0570  0.1934 -0.0746
14216TIP3    H164063   6.688   1.823  16.516 -1.9912  1.0546 -2.0873
14216TIP3    H264064   6.816   1.894  16.480  0.2526 -0.7149  1.7627
14217TIP3   OH264065   1.151   0.886  16.171  0.2862  0.2016  0.2164
14217TIP3    H164066   1.124   0.796  16.186 -0.3158  0.5209  1.1456
14217TIP3    H264067   1.226   0.899  16.228  0.9508  0.0230 -0.6040
14218TIP3   OH264068   0.659   5.171  12.087 -0.0652  0.6114  0.0619
14218TIP3    H164069   0.628   5.234  12.022 -0.5392  0.6027  0.2722
14218TIP3    H264070   0.752   5.158  12.067  0.4691  2.6080  0.9922
14219TIP3   OH264071   0.048   3.315  14.352  0.1559 -0.6040  0.1638
14219TIP3    H164072   0.003   3.284  14.430 -0.1759 -1.7519 -0.4691
14219TIP3    H264073  -0.019   3.366  14.305  0.2735 -0.1570  0.4690
14220TIP3   OH264074   4.485   2.688   1.031  0.4900  0.1208 -0.3274
14220TIP3    H164075   4.490   2.722   0.942  0.0496 -0.2531 -0.5019
14220TIP3    H264076   4.545   2.743   1.082  0.6981  0.3717 -0.8411
14221TIP3   OH264077   3.889   2.822   5.552  0.7138  0.4944 -0.4231
14221TIP3    H164078   3.816   2.874   5.585  0.6814 -0.9340  2.0201
14221TIP3    H264079   3.892   2.746   5.610  1.5079 -1.6484 -3.0677
14222TIP3   OH264080   2.072   4.651  13.152 -0.5005 -0.4383  0.6697
14222TIP3    H164081   2.127   4.573  13.164 -1.3583 -0.9310  1.5885
14222TIP3    H264082   2.093   4.682  13.064 -0.3459 -1.8919  0.1633
14223TIP3   OH264083   6.153   0.739  13.066  0.1862  0.2864 -0.0148
14223TIP3    H164084   6.109   0.654  13.058  0.9935 -0.3762  2.0420
14223TIP3    H264085   6.223   0.724  13.130  0.8446  2.3157 -0.1999
14224TIP3   OH264086   0.316   0.195   4.758 -0.1214 -0.1197 -0.1607
14224TIP3    H164087   0.365   0.248   4.695  0.1732  1.6019  1.4122
14224TIP3    H264088   0.382   0.164   4.820 -0.7595  1.1383  1.2373
14225TIP3   OH264089   5.152   2.889  14.219 -0.1093  0.4620  0.1929
14225TIP3    H164090   5.134   2.797  14.238 -2.4307  0.6180 -0.8688
14225TIP3    H264091   5.229   2.910  14.272  0.1540 -1.9204  0.8810
14226TIP3   OH264092   3.780   0.980  15.100 -0.1634 -0.3922 -0.0161
14226TIP3    H164093   3.742   0.905  15.056 -1.0581  0.4118 -0.6732
14226TIP3    H264094   3.845   1.015  15.039 -1.5805  0.8708 -0.8884
14227TIP3   OH264095   3.128   5.461   4.752 -0.0894  0.0026 -0.4387
14227TIP3    H164096   3.162   5.378   4.717  1.3329  0.2652  0.2429
14227TIP3    H264097   3.164   5.527   4.693  1.4126  0.3579  0.8112
14228TIP3   OH264098   5.097   3.218   5.230 -0.2094 -0.0813 -0.7141
14228TIP3    H164099   5.037   3.145   5.224 -0.5343  0.2425 -1.7577
14228TIP3    H264100   5.069   3.278   5.161  0.5794  0.6242 -0.4500
14229TIP3   OH264101   2.578   5.981  16.818 -0.6805  0.8142  0.1586
14229TIP3    H164102   2.547   6.035  16.745 -0.3850 -1.2074 -1.5795
14229TIP3    H264103   2.657   5.938  16.784 -0.5900 -0.2699  1.6460
14230TIP3   OH264104   6.578   4.126   5.158 -0.2832 -0.2211  0.4202
14230TIP3    H164105   6.644   4.173   5.107 -0.6830 -0.0387  0.0662
14230TIP3    H264106   6.553   4.052   5.102 -0.4531 -0.2326  0.5133
14231TIP3   OH264107   3.683   0.720  15.010 -0.6594  0.3693 -0.0261
14231TIP3    H164108   3.638   0.645  14.971 -0.0787 -1.2812  2.2575
14231TIP3    H264109   3.773   0.689  15.024 -0.0318  2.0001 -0.2949
14232TIP3   OH264110   1.412   1.417  12.608 -0.1281 -0.0510  0.3818
14232TIP3    H164111   1.462   1.366  12.672  0.3010  1.5914  1.3930
14232TIP3    H264112   1.336   1.362  12.589  1.1653 -1.8427  0.0983
14233TIP3   OH264113   3.677   2.486  12.399  0.2294  0.3771  0.6062
14233TIP3    H164114   3.582   2.472  12.401 -0.0008 -1.3800 -5.1465
14233TIP3    H264115   3.714   2.403  12.428 -0.0943  0.1738  0.4498
14234TIP3   OH264116   3.128   0.419   1.807 -0.1693  0.0791 -0.7587
14234TIP3    H164117   3.144   0.408   1.713 -1.0129  0.5858 -0.9682
14234TIP3    H264118   3.033   0.419   1.816 -0.2449  3.2199 -0.3331
14235TIP3   OH264119   5.338   6.585   0.415  0.4597  0.0059 -0.5466
14235TIP3    H164120   5.339   6.564   0.322  0.2779  0.3938 -0.6343
14235TIP3    H264121   5.267   6.647   0.426 -0.1164 -0.7244  0.0027
14236TIP3   OH264122   2.763   5.998   2.007 -0.0046 -0.0366 -0.0647
14236TIP3    H164123   2.841   6.031   2.051  0.0456  1.4786 -1.2044
14236TIP3    H264124   2.696   6.065   2.021 -0.7232 -0.7011 -0.2118
14237TIP3   OH264125   5.314   4.692   5.292  0.3693 -0.5171  0.4731
14237TIP3    H164126   5.353   4.769   5.333  0.7744 -0.4916  0.0519
14237TIP3    H264127   5.364   4.618   5.326  0.2285 -0.5595  0.5870
14238TIP3   OH264128   1.188   6.659   4.085 -0.1582 -0.6046 -0.4071
14238TIP3    H164129   1.281   6.639   4.085 -0.2557 -1.1694  0.9159
14238TIP3    H264130   1.183   6.753   4.065  0.7075 -0.5008 -0.1415
14239TIP3   OH264131   0.847   6.542   1.147 -0.0578  0.5356 -0.2201
14239TIP3    H164132   0.926   6.504   1.107 -0.9340 -1.8984  0.1885
14239TIP3    H264133   0.775   6.507   1.096 -1.0643 -0.6095  1.8725
14240TIP3   OH264134   5.286   2.356  15.308 -0.0629 -0.2517  0.4155
14240TIP3    H164135   5.321   2.385  15.223  1.1130 -0.2180  0.8919
14240TIP3    H264136   5.192   2.344  15.292  0.1808 -0.5197 -0.9565
14241TIP3   OH264137   3.017   3.855  12.822  0.2452 -0.5278 -0.1714
14241TIP3    H164138   3.083   3.847  12.753 -0.9747 -0.2396 -1.4295
14241TIP3    H264139   3.011   3.768  12.860  0.7096 -0.7760 -0.6494
14242TIP3   OH264140   1.704   6.331   4.376 -1.0801 -0.6607 -0.3074
14242TIP3    H164141   1.774   6.396   4.372 -0.7633 -1.0246 -1.0029
14242TIP3    H264142   1.657   6.342   4.293 -1.3256 -0.9823 -0.2124
14243TIP3   OH264143   5.521   6.209  12.287 -0.0021 -0.2065  0.0098
14243TIP3    H164144   5.497   6.142  12.351 -0.6283 -0.9106 -0.9302
14243TIP3    H264145   5.439   6.229  12.241  0.1129  1.4044  0.4264
14244TIP3   OH264146   5.173   5.004   3.007 -0.0347 -0.2737 -0.1059
14244TIP3    H164147   5.088   4.964   2.990 -0.7001  0.8390  0.5181
14244TIP3    H264148   5.235   4.932   2.998 -0.7395 -0.6569 -2.9685
14245TIP3   OH264149   2.981   5.885   5.147  0.0827  0.4608  0.0652
14245TIP3    H164150   3.035   5.821   5.194 -1.8047 -1.0145  0.3570
14245TIP3    H264151   2.979   5.961   5.205  0.2203 -0.2255  1.0017
14246TIP3   OH264152   2.183   0.363  16.776 -0.0765 -0.1142 -0.0639
14246TIP3    H164153   2.250   0.366  16.707 -1.3486  0.2626 -1.3437
14246TIP3    H264154   2.122   0.433  16.752 -1.1873 -0.7701  0.7733
14247TIP3   OH264155   2.893   4.405  15.350  0.1985 -0.1458 -0.2038
14247TIP3    H164156   2.799   4.421  15.351 -0.4411 -3.0698 -1.7650
14247TIP3    H264157   2.924   4.447  15.270 -0.2955 -1.2881 -1.0213
14248TIP3   OH264158   5.578   3.274   4.005 -0.0098  0.6121  0.0539
14248TIP3    H164159   5.664   3.307   4.029 -0.6807  2.3896  0.1644
14248TIP3    H264160   5.561   3.311   3.918 -0.6282  0.2593  0.0160
14249TIP3   OH264161   1.780   2.604   2.858  0.2386  0.7543  0.2829
14249TIP3    H164162   1.791   2.678   2.918 -1.3546  0.2548  1.2669
14249TIP3    H264163   1.696   2.622   2.814  1.1098  0.8321 -1.4262
14250TIP3   OH264164   5.315   2.840  13.983 -0.2160  0.2534 -0.0423
14250TIP3    H164165   5.334   2.853  13.890  0.4068  2.1816  0.3105
14250TIP3    H264166   5.369   2.764  14.008 -1.6904 -1.3765 -1.5877
14251TIP3   OH264167   2.967   2.739  15.335  0.7960  0.2376  0.2187
14251TIP3    H164168   2.918   2.795  15.395  0.9174 -0.6043  1.1397
14251TIP3    H264169   3.059   2.758  15.355  0.8363 -0.0850  0.3421
14252TIP3   OH264170   1.975   0.929  12.146 -0.0854 -0.1368 -0.1332
14252TIP3    H164171   1.958   0.843  12.108  1.5869 -1.4284  1.8573
14252TIP3    H264172   1.971   0.989  12.071  0.6957 -2.2035 -1.9333
14253TIP3   OH264173   1.676   0.942   3.865 -0.1131  0.0390 -0.4516
14253TIP3    H164174   1.609   1.008   3.852 -0.0760  0.1884  0.0931
14253TIP3    H264175   1.632   0.872   3.913  0.6289  1.0828  1.8832
14254TIP3   OH264176   3.175   0.916  14.364  0.0200 -0.3294 -0.1056
14254TIP3    H164177   3.108   0.879  14.421 -0.8473  0.0692 -0.8421
14254TIP3    H264178   3.126   0.965  14.298  0.9234 -1.5757 -1.7850
14255TIP3   OH264179   0.919   6.411  16.995  0.1543  0.0345  0.8865
14255TIP3    H164180   0.858   6.337  16.997 -0.8209  0.7745 -0.2868
14255TIP3    H264181   0.932   6.433  17.087 -1.9958  0.3409  1.1638
14256TIP3   OH264182   2.297   5.587  14.287  0.3136  0.4378 -1.4029
14256TIP3    H164183   2.308   5.595  14.382  1.6696  0.7593 -1.5687
14256TIP3    H264184   2.294   5.493  14.272 -0.2279  0.3839 -1.0223
14257TIP3   OH264185   3.454   4.766   0.516 -0.7741  0.3288 -0.4470
14257TIP3    H164186   3.399   4.836   0.481 -1.0652  0.3437  0.0269
14257TIP3    H264187   3.434   4.765   0.610 -2.4436 -1.8390 -0.7406
14258TIP3   OH264188   5.690   0.194   5.454 -0.6884  0.1481 -0.1400
14258TIP3    H164189   5.678   0.279   5.497 -0.4153  0.2777 -0.3211
14258TIP3    H264190   5.780   0.169   5.473 -0.9978 -0.4756  0.5753
14259TIP3   OH264191   2.077   1.612  16.248  0.1635  0.0006  0.0233
14259TIP3    H164192   2.005   1.668  16.219  0.7684  0.7146 -0.1020
14259TIP3    H264193   2.074   1.617  16.344 -0.1173 -0.1906  0.0281
14260TIP3   OH264194   1.246   0.006   1.489  0.0318 -0.0906 -0.1458
14260TIP3    H164195   1.251  -0.004   1.394  1.6499  0.2304 -0.1127
14260TIP3    H264196   1.336   0.020   1.517 -0.4304 -0.0788  1.4376
14261TIP3   OH264197   4.864   1.155  12.480 -0.2857  0.0661  0.3348
14261TIP3    H164198   4.921   1.114  12.414 -0.0869  0.8544  0.0129
14261TIP3    H264199   4.924   1.206  12.534 -0.7797  1.8427 -0.7002
14262TIP3   OH264200   2.397   0.237   3.816  0.0096  0.4338 -0.4889
14262TIP3    H164201   2.463   0.189   3.767  0.4459  0.8268 -0.2908
14262TIP3    H264202   2.428   0.236   3.906 -1.6141 -1.7390  0.1363
14263TIP3   OH264203   3.520   0.320  12.289 -0.2222  0.2133 -0.0275
14263TIP3    H164204   3.610   0.353  12.296 -0.7377  1.4749  1.2769
14263TIP3    H264205   3.530   0.231  12.255  1.6855 -0.4141  1.8984
14264TIP3   OH264206   6.382   4.005  16.282 -0.4185 -0.8936  0.0645
14264TIP3    H164207   6.351   3.915  16.282  0.8725 -1.3614 -0.3751
14264TIP3    H264208   6.416   4.020  16.371 -1.4469 -0.5303  0.4086
14265TIP3   OH264209   2.045   4.460  14.278 -0.1712  0.2567 -0.0454
14265TIP3    H164210   2.093   4.514  14.340  2.2124 -0.1929 -1.3637
14265TIP3    H264211   2.000   4.395  14.332 -0.9500  1.8984  1.3762
14266TIP3   OH264212   5.279   6.637  14.489  0.2819  0.2426 -0.2346
14266TIP3    H164213   5.361   6.681  14.465  0.8887 -0.8001 -0.1462
14266TIP3    H264214   5.305   6.572  14.554 -0.8697  0.9257  0.9455
14267TIP3   OH264215   3.404   4.314   5.895 -0.1560 -0.2225  0.5226
14267TIP3    H164216   3.396   4.351   5.983  0.1412  0.6320  0.2063
14267TIP3    H264217   3.382   4.387   5.837  0.4719 -0.5361 -0.1234
14268TIP3   OH264218   1.459   3.390  14.771  0.4285  0.1023 -0.2454
14268TIP3    H164219   1.417   3.328  14.831 -1.3749  0.9837 -0.5228
14268TIP3    H264220   1.437   3.357  14.684  1.7547 -0.3315 -0.4408
14269TIP3   OH264221   2.247   1.517   5.672 -0.3206 -0.4973  0.1460
14269TIP3    H164222   2.343   1.512   5.666 -0.4456 -1.6252 -1.8248
14269TIP3    H264223   2.220   1.428   5.696 -0.8764 -0.0282  1.3646
14270TIP3   OH264224   1.682   6.705   5.074 -0.5050 -0.1381  0.3266
14270TIP3    H164225   1.686   6.635   5.139  0.5137 -0.3642  0.0353
14270TIP3    H264226   1.624   6.670   5.006  0.6251 -1.0517 -0.1995
14271TIP3   OH264227   4.770   5.056   5.490 -0.3499  0.2795 -0.2528
14271TIP3    H164228   4.836   5.107   5.537  0.1398  0.3799 -1.0476
14271TIP3    H264229   4.820   4.994   5.438 -0.9076 -0.1258 -0.3123
14272TIP3   OH264230   6.601   4.169  15.664  0.4385  0.0577  0.3266
14272TIP3    H164231   6.565   4.191  15.578  1.6635 -0.4843 -0.3535
14272TIP3    H264232   6.602   4.073  15.666  1.5555  0.0574  0.4290
14273TIP3   OH264233   1.538   1.237  13.376  0.3756  0.5489 -0.2727
14273TIP3    H164234   1.449   1.269  13.369 -0.3694 -1.2021  0.4504
14273TIP3    H264235   1.545   1.205  13.466  1.9319  1.1667 -0.1442
14274TIP3   OH264236   0.616   6.400  15.512  0.7482 -0.2269  0.0455
14274TIP3    H164237   0.580   6.321  15.553 -2.3172  1.3094  0.5595
14274TIP3    H264238   0.665   6.367  15.437  3.1507 -2.8665  2.5097
14275TIP3   OH264239   1.014   4.798  16.427 -0.3264  0.6846  0.0133
14275TIP3    H164240   0.982   4.787  16.337 -0.5040  1.7200 -0.0593
14275TIP3    H264241   0.935   4.786  16.481 -0.3536  0.7407 -0.0136
14276TIP3   OH264242   0.362   4.837   0.380 -0.3816  0.2274 -0.1756
14276TIP3    H164243   0.289   4.883   0.337  0.2614  0.8271 -0.6637
14276TIP3    H264244   0.429   4.905   0.390  0.7538 -0.6817 -1.2977
14277TIP3   OH264245   4.987   5.458   5.372  0.0272 -0.1655  0.0382
14277TIP3    H164246   4.924   5.489   5.437 -0.2341 -1.1181  0.2468
14277TIP3    H264247   5.051   5.408   5.423  0.9185  0.7225 -0.1813
14278TIP3   OH264248   6.241   4.409  12.055  0.1328 -0.4979 -0.8776
14278TIP3    H164249   6.231   4.450  12.141 -0.6159  1.0683 -1.6541
14278TIP3    H264250   6.335   4.411  12.038  0.1954  0.0642 -0.5029
14279TIP3   OH264251   1.205   1.128  16.474  0.4338  0.5946  0.3929
14279TIP3    H164252   1.155   1.162  16.549  1.6551  0.0292  1.5204
14279TIP3    H264253   1.184   1.035  16.471 -0.9010  0.9024 -1.0636
14280TIP3   OH264254   1.868   0.071   0.022  0.1141  0.5375 -0.1420
14280TIP3    H164255   1.911   0.147   0.062  4.4357  0.2427 -3.4615
14280TIP3    H264256   1.939   0.007   0.010 -2.1657 -1.8306 -2.3685
14281TIP3   OH264257   2.694   6.116   2.894  0.3364 -0.0111 -0.3609
14281TIP3    H164258   2.659   6.027   2.888 -0.7121  0.4202 -0.8913
14281TIP3    H264259   2.662   6.160   2.814 -0.7043  1.3559  0.7515
14282TIP3   OH264260   1.265   0.219  16.580 -0.0438 -0.6295  0.7350
14282TIP3    H164261   1.282   0.297  16.632 -0.5972 -0.2667  0.3789
14282TIP3    H264262   1.244   0.252  16.493 -0.3818 -1.1708  0.6079
14283TIP3   OH264263   5.153   1.568   3.262 -0.1780 -0.3373 -0.3947
14283TIP3    H164264   5.170   1.624   3.337 -0.4579 -0.8153  0.0332
14283TIP3    H264265   5.159   1.479   3.297 -2.3003 -0.5581 -0.4863
14284TIP3   OH264266   4.613   4.752  13.362  0.1913  0.5906  0.6812
14284TIP3    H164267   4.620   4.700  13.282 -0.1611 -0.4034  1.2848
14284TIP3    H264268   4.688   4.811  13.359 -1.6081  3.0636 -2.1261
14285TIP3   OH264269   0.098   4.892   1.745  0.6916 -0.1966  0.5273
14285TIP3    H164270   0.085   4.922   1.655  0.5505 -1.4093  0.1258
14285TIP3    H264271   0.192   4.880   1.753  0.7368  0.2269  0.6519
14286TIP3   OH264272   2.865   5.207   4.313 -1.0031  0.4235  0.0894
14286TIP3    H164273   2.805   5.188   4.241 -1.8153  0.5552  0.7224
14286TIP3    H264274   2.951   5.179   4.281 -1.5221 -0.4636 -0.5524
14287TIP3   OH264275   3.858   3.583  14.056 -0.3804 -0.4515 -0.1454
14287TIP3    H164276   3.949   3.588  14.082  0.0219 -1.5712 -1.2520
14287TIP3    H264277   3.850   3.499  14.011 -1.8274 -0.1345 -0.5380
14288TIP3   OH264278   0.477   4.619  11.105 -0.0749  0.2999 -0.5233
14288TIP3    H164279   0.397   4.672  11.110  1.0491  2.0528 -0.2987
14288TIP3    H264280   0.467   4.568  11.024 -2.4698 -1.4163  0.6942
14289TIP3   OH264281   2.418   5.575  14.532  0.1891 -0.1238  0.2993
14289TIP3    H164282   2.418   5.483  14.560  1.6560  0.2524  1.6629
14289TIP3    H264283   2.510   5.594  14.512 -0.2336  0.8015 -0.9393
14290TIP3   OH264284   3.691   1.664   1.271 -0.2914  0.1886  0.1460
14290TIP3    H164285   3.605   1.705   1.280 -0.2068  0.0003  2.4782
14290TIP3    H264286   3.691   1.595   1.337  1.6518  0.1723  0.1723
14291TIP3   OH264287   3.500   5.127  13.021  0.7136  0.7767  0.3432
14291TIP3    H164288   3.552   5.121  12.941  2.4628  0.6772  1.4341
14291TIP3    H264289   3.415   5.161  12.992  0.8954 -0.3568 -1.6964
14292TIP3   OH264290   2.549   3.722  16.145 -0.3159 -0.4541  0.0426
14292TIP3    H164291   2.570   3.670  16.067 -1.2490 -0.2251 -0.3685
14292TIP3    H264292   2.590   3.673  16.217 -0.5797 -1.3969 -0.4203
14293TIP3   OH264293   3.204   4.580  15.146 -0.6798  0.0036 -0.1764
14293TIP3    H164294   3.217   4.490  15.179  0.1037  0.2959  0.3350
14293TIP3    H264295   3.283   4.599  15.096 -1.3998 -0.0368 -1.3549
14294TIP3   OH264296   0.705   3.610   5.572 -0.0344 -0.0808 -0.6019
14294TIP3    H164297   0.788   3.641   5.609 -0.9337 -0.7457  2.2507
14294TIP3    H264298   0.729   3.535   5.518  1.2069 -0.5541  0.5615
14295TIP3   OH264299   3.947   4.200  15.117  0.5713 -0.6080  0.4161
14295TIP3    H164300   3.877   4.219  15.179 -0.8174  0.6873 -1.4582
14295TIP3    H264301   3.997   4.129  15.158 -2.2148 -2.0581  1.5188
14296TIP3   OH264302   6.419   3.473   1.853  0.1967 -0.6414  0.4486
14296TIP3    H164303   6.382   3.423   1.780  1.1735  0.7497 -1.0793
14296TIP3    H264304   6.500   3.428   1.874  0.1846 -0.7410  0.2866
14297TIP3   OH264305   3.595   2.078   5.818  0.1727  0.7481 -0.1236
14297TIP3    H164306   3.652   2.134   5.871  1.2192  0.3588 -0.7984
14297TIP3    H264307   3.604   1.991   5.856  1.9177  0.2043 -1.6260
14298TIP3   OH264308   4.724   3.609   3.503  0.1144 -0.2486 -0.1316
14298TIP3    H164309   4.816   3.632   3.514 -0.1350  0.9010 -0.4124
14298TIP3    H264310   4.716   3.582   3.411  0.0882  0.0176 -0.2063
14299TIP3   OH264311   6.731   0.806   0.616 -0.1220  0.5642  0.5833
14299TIP3    H164312   6.685   0.824   0.534  0.1597 -0.8307  0.0933
14299TIP3    H264313   6.810   0.859   0.612 -0.7672  1.5374  0.5745
14300TIP3   OH264314   5.865   0.207  10.505 -0.2584  0.0947  0.1301
14300TIP3    H164315   5.777   0.245  10.503 -0.0872  0.5032  0.3685
14300TIP3    H264316   5.923   0.280  10.484 -0.0477 -0.4094 -1.1221
14301TIP3   OH264317   2.585   0.379  12.144 -0.7077  0.2240 -0.0557
14301TIP3    H164318   2.500   0.378  12.098 -1.0621 -1.5865  0.5755
14301TIP3    H264319   2.564   0.410  12.232 -0.9660 -1.2950  0.4586
14302TIP3   OH264320   4.708   0.840  15.179  0.2986 -0.3339  0.1907
14302TIP3    H164321   4.715   0.746  15.164  0.6627  0.0272 -2.4843
14302TIP3    H264322   4.650   0.870  15.109  0.3351  1.4719  0.8864
14303TIP3   OH264323   0.992   4.513  11.586 -0.5043  0.3175 -0.3369
14303TIP3    H164324   1.081   4.488  11.561 -0.8944 -0.7958 -0.6668
14303TIP3    H264325   0.936   4.447  11.544 -1.4021  0.3233  0.8127
14304TIP3   OH264326   6.517   2.088   1.356  0.7595 -0.0615  0.3704
14304TIP3    H164327   6.422   2.095   1.349  0.3503 -2.8287  1.6751
14304TIP3    H264328   6.531   2.030   1.431  3.5250  0.8001  0.6343
14305TIP3   OH264329   5.125   5.292  16.286  0.1614 -0.0152  0.2811
14305TIP3    H164330   5.199   5.325  16.337 -1.3801  1.3372  1.7693
14305TIP3    H264331   5.059   5.361  16.293 -1.2881 -1.2250 -0.9118
14306TIP3   OH264332   2.874   6.633   3.058  0.2593  0.7935  0.2613
14306TIP3    H164333   2.804   6.697   3.071 -0.3684  0.3362 -0.7457
14306TIP3    H264334   2.955   6.682   3.076 -0.3099  1.3330  1.4237
14307TIP3   OH264335   3.575   2.378  14.748 -0.0198  0.0045  0.4642
14307TIP3    H164336   3.516   2.343  14.681  2.3291 -0.1138 -1.7260
14307TIP3    H264337   3.528   2.367  14.830 -2.1012 -2.1033 -0.8862
14308TIP3   OH264338   6.366   2.540  15.213 -0.4158  0.1037  0.0485
14308TIP3    H164339   6.452   2.510  15.242 -0.6396 -0.5562  0.0477
14308TIP3    H264340   6.327   2.463  15.171 -0.6324  0.6687 -0.7949
14309TIP3   OH264341   4.675   5.234  15.471  0.5681  0.2479 -0.0611
14309TIP3    H164342   4.699   5.141  15.466 -0.6104 -0.2205  1.8638
14309TIP3    H264343   4.747   5.275  15.519  0.0488 -0.1455  1.0942
14310TIP3   OH264344   5.286   0.502  16.134  0.0187 -0.6554 -0.3107
14310TIP3    H164345   5.369   0.506  16.182 -0.0655 -1.6080 -0.0738
14310TIP3    H264346   5.257   0.593  16.130  1.8655 -0.0588 -1.8156
14311TIP3   OH264347   2.132   5.934   2.627  0.1269  0.0633 -0.3536
14311TIP3    H164348   2.225   5.931   2.651  0.5562 -0.9225 -2.0040
14311TIP3    H264349   2.093   5.995   2.690  1.6058 -0.6034  1.2961
14312TIP3   OH264350   3.254   3.620   5.214  0.7777 -0.3579 -0.5719
14312TIP3    H164351   3.197   3.593   5.286 -0.4351  0.5803 -1.1304
14312TIP3    H264352   3.207   3.593   5.135  2.0057 -1.2157 -1.0276
14313TIP3   OH264353   3.643   2.184   1.208  0.2586  0.1894  0.2275
14313TIP3    H164354   3.605   2.113   1.261 -1.6654  1.8130  1.1562
14313TIP3    H264355   3.714   2.142   1.160 -0.1417 -2.1400  1.4972
14314TIP3   OH264356   6.014   4.974  15.274 -0.3974 -0.1997 -0.7291
14314TIP3    H164357   6.102   4.998  15.244 -0.6371  1.0258 -0.5025
14314TIP3    H264358   6.029   4.922  15.353  0.1152  0.0730 -0.6449
14315TIP3   OH264359   1.559   6.588   0.340 -0.1440 -0.1236  0.3333
14315TIP3    H164360   1.653   6.577   0.358 -0.0853  0.9541  0.7708
14315TIP3    H264361   1.536   6.671   0.383 -0.9597  0.3979 -1.0518
14316TIP3   OH264362   3.021   1.541   3.024  0.5302  0.1582  0.5961
14316TIP3    H164363   2.970   1.512   2.948  1.5390  1.6127 -0.6985
14316TIP3    H264364   2.963   1.526   3.098 -0.9637 -0.1899 -0.5860
14317TIP3   OH264365   0.537   5.189  12.454 -0.2714  0.4219  0.4046
14317TIP3    H164366   0.467   5.255  12.455 -1.4002 -0.6842 -0.9787
14317TIP3    H264367   0.495   5.108  12.481  1.0797  0.1825  1.9712
14318TIP3   OH264368   1.115   6.651  15.256  0.5135 -0.0067 -0.1559
14318TIP3    H164369   1.124   6.609  15.171  0.4006 -1.4861  0.5304
14318TIP3    H264370   1.038   6.707  15.248  0.7621  0.2008 -1.1473
14319TIP3   OH264371   4.036   0.898  17.097 -0.2200  0.7919  0.0989
14319TIP3    H164372   4.005   0.826  17.041  0.6278  1.0179 -0.6685
14319TIP3    H264373   4.097   0.947  17.043  0.5451  1.0873  1.1809
14320TIP3   OH264374   3.955   5.834   6.064 -0.5272  0.0428 -0.5873
14320TIP3    H164375   3.918   5.893   5.999 -0.9622  1.8215  1.2006
14320TIP3    H264376   3.879   5.789   6.102 -0.5120  0.7665  0.3216
14321TIP3   OH264377   0.119   1.328  13.908  0.5057  0.0168 -0.3467
14321TIP3    H164378   0.197   1.381  13.925  1.3398 -1.2410 -0.1260
14321TIP3    H264379   0.106   1.333  13.814  1.4358 -0.5255 -0.5170
14322TIP3   OH264380   3.831   3.424   0.686  0.0321  0.6826  0.2059
14322TIP3    H164381   3.804   3.421   0.594  0.1449  0.0196  0.1892
14322TIP3    H264382   3.891   3.350   0.696 -0.1432  0.6199  0.8629
14323TIP3   OH264383   1.359   0.255  15.884 -0.4527  0.7211  0.1592
14323TIP3    H164384   1.348   0.346  15.857  1.2381  0.4083 -1.8370
14323TIP3    H264385   1.271   0.226  15.908 -1.6087  2.0056 -2.1597
14324TIP3   OH264386   3.635   2.107   0.692 -0.7681 -0.1938 -0.0902
14324TIP3    H164387   3.603   2.184   0.646 -2.5186 -0.6248  0.3515
14324TIP3    H264388   3.685   2.143   0.766  0.5870  0.4835 -1.2679
14325TIP3   OH264389   4.957   5.585  16.580 -0.2617 -0.5097  0.2356
14325TIP3    H164390   4.880   5.640  16.592  0.2714 -0.1356  2.3789
14325TIP3    H264391   4.947   5.547  16.492 -1.8615  1.0631 -0.3069
14326TIP3   OH264392   6.093   5.864   3.669  0.4734 -0.3040  0.1488
14326TIP3    H164393   6.113   5.958   3.673 -1.1262  0.0553  0.3963
14326TIP3    H264394   6.014   5.860   3.615  0.9536 -1.5950 -0.4822
14327TIP3   OH264395   0.857   4.784  16.206  0.6781 -0.5307  0.2482
14327TIP3    H164396   0.780   4.833  16.235  1.0729  0.6665 -0.6266
14327TIP3    H264397   0.835   4.758  16.116  2.0089  1.5215 -0.7442
14328TIP3   OH264398   4.789   4.119  16.702 -0.0340  0.0729 -0.0666
14328TIP3    H164399   4.848   4.140  16.630 -0.3528 -0.1980 -0.4125
14328TIP3    H264400   4.825   4.164  16.778  0.6184 -0.0894 -0.2778
14329TIP3   OH264401   4.749   5.062  16.175 -0.6808 -0.1452  0.2729
14329TIP3    H164402   4.792   5.134  16.129 -2.3449  1.3101  0.8885
14329TIP3    H264403   4.660   5.062  16.141 -0.3713 -2.9238 -0.7970
14330TIP3   OH264404   0.200   3.542   1.777 -0.3481 -0.2020 -0.3604
14330TIP3    H164405   0.292   3.556   1.752 -0.6863 -1.1480 -2.4111
14330TIP3    H264406   0.204   3.502   1.863  1.2246 -0.7742 -0.6581
14331TIP3   OH264407   0.622   6.039   0.416  0.1278 -0.1220 -0.4421
14331TIP3    H164408   0.667   6.056   0.499  0.0331 -0.7391 -0.2548
14331TIP3    H264409   0.616   6.124   0.374  0.4671  0.1475  0.0421
14332TIP3   OH264410   1.982   0.472   5.130 -0.4238 -0.3222 -0.0549
14332TIP3    H164411   1.970   0.415   5.206  0.3875 -0.1416  0.2212
14332TIP3    H264412   1.968   0.560   5.163  0.4129 -0.2029  0.0072
14333TIP3   OH264413   0.192   5.974   0.494  0.5823  0.3589 -0.5098
14333TIP3    H164414   0.198   5.900   0.434  2.0396 -0.1922  0.2580
14333TIP3    H264415   0.109   5.962   0.541  1.0640 -1.1216  0.0087
14334TIP3   OH264416   2.147   1.116  12.960  0.0749 -0.9512  0.1946
14334TIP3    H164417   2.234   1.095  12.994 -0.1210  0.1891  1.5324
14334TIP3    H264418   2.161   1.192  12.903 -0.0640 -0.6107  0.6076
14335TIP3   OH264419   3.817   3.359  14.707  0.2511 -0.0687  0.4190
14335TIP3    H164420   3.904   3.373  14.744  0.4085  0.7382 -0.2194
14335TIP3    H264421   3.796   3.442  14.663 -1.2232  0.0758  1.3380
14336TIP3   OH264422   4.464   3.414  14.756  0.4235 -0.1930  0.1558
14336TIP3    H164423   4.498   3.447  14.673 -1.0402  1.3488  0.0988
14336TIP3    H264424   4.380   3.374  14.733 -0.0256  0.3058  0.8736
14337TIP3   OH264425   0.480   6.691   2.415  0.1031  0.0150  0.1878
14337TIP3    H164426   0.529   6.620   2.373  0.7361 -0.1871  1.2163
14337TIP3    H264427   0.543   6.762   2.421 -0.5312  0.6873 -0.8382
14338TIP3   OH264428   3.344   1.018  17.235 -0.0322  0.0067 -0.2890
14338TIP3    H164429   3.334   1.022  17.140  0.9538 -1.5399 -0.4998
14338TIP3    H264430   3.281   0.952  17.264  0.0625  0.0686  0.0726
14339TIP3   OH264431   4.774   3.836  14.309 -0.6885  0.3154 -0.2640
14339TIP3    H164432   4.746   3.923  14.282  0.3762  0.5380 -0.7171
14339TIP3    H264433   4.732   3.777  14.246  0.7573  0.7314 -1.6870
14340TIP3   OH264434   1.217   0.261  14.481  0.2247  0.5045  0.1147
14340TIP3    H164435   1.312   0.250  14.478 -0.0177 -2.3077 -0.7409
14340TIP3    H264436   1.183   0.194  14.421 -2.3149  1.3702  0.4353
14341TIP3   OH264437   6.514   3.347  13.129  0.1394 -0.0035 -0.4072
14341TIP3    H164438   6.530   3.381  13.217  0.0029 -0.1248 -0.3353
14341TIP3    H264439   6.419   3.348  13.120  0.1382 -0.3086 -0.4283
14342TIP3   OH264440   5.802   5.805   5.879 -1.0375 -0.2417  0.0438
14342TIP3    H164441   5.726   5.767   5.834 -1.2669 -0.0408  0.2596
14342TIP3    H264442   5.807   5.759   5.962 -0.5459 -0.6881 -0.2245
14343TIP3   OH264443   0.504   4.461  12.429 -0.0206  0.1498  0.4154
14343TIP3    H164444   0.456   4.464  12.347  0.2321 -2.9028  0.0421
14343TIP3    H264445   0.596   4.466  12.403  0.0897 -1.6223  0.4016
14344TIP3   OH264446   5.995   1.507   4.552 -0.0097  0.0442 -0.1844
14344TIP3    H164447   6.069   1.512   4.612  0.0797 -0.2699 -0.2674
14344TIP3    H264448   5.944   1.432   4.582 -0.6535  0.6566  0.2771
14345TIP3   OH264449   5.641   1.571   4.426  0.0766 -0.1417 -0.5100
14345TIP3    H164450   5.621   1.588   4.334 -1.9037 -0.8180 -0.2721
14345TIP3    H264451   5.700   1.496   4.425  0.8176  0.4338 -1.2389
14346TIP3   OH264452   6.143   6.361  11.626 -0.3072 -0.2524  0.0486
14346TIP3    H164453   6.065   6.340  11.576 -0.1839  1.6330 -1.0140
14346TIP3    H264454   6.109   6.400  11.707 -0.4727 -1.8945  0.8112
14347TIP3   OH264455   2.260   0.814  14.310  0.2168  0.5110 -0.2195
14347TIP3    H164456   2.350   0.828  14.280  0.0352  1.6208 -0.2985
14347TIP3    H264457   2.246   0.720  14.300  1.6770  0.1663  0.7074
14348TIP3   OH264458   3.519   0.231   3.666  0.2567 -0.1536  0.0559
14348TIP3    H164459   3.577   0.307   3.672 -0.9922  0.7258  1.5662
14348TIP3    H264460   3.543   0.176   3.740 -0.5343  0.0109  0.4440
14349TIP3   OH264461   2.858   0.459   5.584 -0.2883 -0.0196  0.8101
14349TIP3    H164462   2.926   0.428   5.644  0.4320  1.2878  0.6890
14349TIP3    H264463   2.892   0.440   5.497 -0.8035 -0.8231  0.7744
14350TIP3   OH264464   2.906   1.044  12.369 -0.1755  0.1017 -0.4381
14350TIP3    H164465   2.816   1.038  12.403  0.4355 -2.3253  1.0301
14350TIP3    H264466   2.946   1.115  12.419 -0.4514 -0.8192  1.1741
14351TIP3   OH264467   2.972   2.569   0.774 -0.0086  0.4623  0.3796
14351TIP3    H164468   2.964   2.627   0.698 -1.0172 -0.4857 -0.2801
14351TIP3    H264469   3.013   2.623   0.842  2.8036  0.7836 -1.4075
14352TIP3   OH264470   1.345   2.863  16.715  0.6255 -0.0076 -0.0102
14352TIP3    H164471   1.346   2.918  16.794  0.0714  0.3633 -0.2561
14352TIP3    H264472   1.303   2.917  16.649 -2.2392 -1.5642  0.3793
14353TIP3   OH264473   1.366   5.930   1.504 -0.2928  0.8242  0.1110
14353TIP3    H164474   1.450   5.973   1.523 -0.6103  0.8885  1.4917
14353TIP3    H264475   1.324   5.986   1.439  0.7221  0.7922 -0.5949
14354TIP3   OH264476   3.595   5.626  14.485 -0.3385 -0.1258  0.0533
14354TIP3    H164477   3.664   5.576  14.529 -0.0180  0.0494 -0.2495
14354TIP3    H264478   3.635   5.656  14.404 -0.3381  1.1250  0.5017
14355TIP3   OH264479   5.986   5.616  14.515 -0.2187 -0.1301 -0.3504
14355TIP3    H164480   5.922   5.562  14.469  0.2754 -0.5972 -0.5003
14355TIP3    H264481   5.989   5.580  14.603  0.5322 -0.7210 -0.6123
14356TIP3   OH264482   2.653   1.535  16.012 -0.3345 -0.2986 -0.0112
14356TIP3    H164483   2.654   1.458  16.069  1.8089 -0.5701 -0.3524
14356TIP3    H264484   2.610   1.602  16.065  2.3128 -0.2705  2.3729
14357TIP3   OH264485   1.263   2.018   5.086  0.4129  0.5432 -0.2539
14357TIP3    H164486   1.252   2.110   5.112 -0.9959  0.4390 -0.4030
14357TIP3    H264487   1.349   2.015   5.045  0.8051  1.6362  0.4310
14358TIP3   OH264488   3.157   2.019  13.372 -0.3685  0.4551  0.1369
14358TIP3    H164489   3.162   1.960  13.296  1.1449  0.4190  0.2351
14358TIP3    H264490   3.077   1.992  13.418 -2.2568  1.5618 -2.2756
14359TIP3   OH264491   6.342   0.689  11.977  0.3442 -0.0742  0.0836
14359TIP3    H164492   6.333   0.736  11.894  0.9857  1.6391  0.9491
14359TIP3    H264493   6.433   0.658  11.977 -0.3167 -2.3023 -0.9150
14360TIP3   OH264494   5.490   5.889   0.751 -0.3825 -0.3564  0.3097
14360TIP3    H164495   5.515   5.813   0.804  0.3772 -0.6293 -0.4218
14360TIP3    H264496   5.516   5.964   0.804  1.3438 -0.6241 -0.0804
14361TIP3   OH264497   6.120   5.937   0.762 -0.6851 -0.3708 -0.0922
14361TIP3    H164498   6.154   5.876   0.697 -1.5342 -0.7312 -0.2223
14361TIP3    H264499   6.181   5.932   0.835 -0.9069 -1.6277  0.0260
14362TIP3   OH264500   1.416   6.503  12.637  0.4191 -0.5689  0.9437
14362TIP3    H164501   1.411   6.599  12.638  1.5223 -0.4969  1.5955
14362TIP3    H264502   1.329   6.474  12.665  0.4562  0.2787  2.0114
14363TIP3   OH264503   3.067   0.508   6.469 -0.2666  0.3691  0.6194
14363TIP3    H164504   3.013   0.587   6.478  0.7323  1.1442  0.0388
14363TIP3    H264505   3.068   0.469   6.556 -3.3863 -0.8015  0.2659
14364TIP3   OH264506   5.170   6.333  12.405  0.0588 -0.4511 -0.1864
14364TIP3    H164507   5.190   6.399  12.338 -0.0811 -0.7265 -0.5065
14364TIP3    H264508   5.127   6.381  12.475  1.7084  0.1315  0.4572
14365TIP3   OH264509   1.089   0.833  11.375  0.0931  0.4574  0.2181
14365TIP3    H164510   1.000   0.854  11.403 -0.4043 -0.1696 -0.7991
14365TIP3    H264511   1.118   0.912  11.329 -0.6231  0.0569 -0.9739
14366TIP3   OH264512   1.686   0.448  15.242  0.1782  0.1813 -0.0034
14366TIP3    H164513   1.626   0.382  15.276 -0.1863  0.7657  0.5142
14366TIP3    H264514   1.766   0.400  15.220 -0.0329 -0.4027  0.5007
14367TIP3   OH264515   0.118   6.427   4.596  0.3222  0.3161  0.2951
14367TIP3    H164516   0.043   6.454   4.650  0.7526  1.0957  0.5098
14367TIP3    H264517   0.148   6.508   4.555  0.9221 -0.0333  0.0442
14368TIP3   OH264518   4.152   5.693  16.413 -0.2214  0.1421 -0.0012
14368TIP3    H164519   4.229   5.681  16.468  1.2940 -0.1296 -2.0654
14368TIP3    H264520   4.158   5.623  16.348  0.4006  2.7564 -3.0166
14369TIP3   OH264521   1.716   2.953   5.202 -0.0103 -0.1053 -0.4948
14369TIP3    H164522   1.804   2.934   5.171  2.4709  2.1590  4.0933
14369TIP3    H264523   1.679   2.868   5.225  1.2594 -1.0412 -1.7372
14370TIP3   OH264524   6.514   6.290  12.516 -0.4253  0.1668 -0.2046
14370TIP3    H164525   6.529   6.279  12.610 -1.8770  0.2259  0.0584
14370TIP3    H264526   6.544   6.379  12.498  1.4562 -0.4065 -0.1842
14371TIP3   OH264527   3.221   5.512  15.841  0.1577 -0.0535 -0.5917
14371TIP3    H164528   3.135   5.530  15.878  0.3911 -0.9033  0.4199
14371TIP3    H264529   3.207   5.510  15.746 -0.7263  0.8256 -0.4850
14372TIP3   OH264530   3.547   0.355  16.153  0.4543 -0.5359 -0.0549
14372TIP3    H164531   3.522   0.441  16.186 -0.7036 -1.3622  1.4019
14372TIP3    H264532   3.479   0.332  16.090  1.5100  0.1484 -1.4997
14373TIP3   OH264533   4.116   2.051   1.852 -0.4035 -0.3829 -0.4947
14373TIP3    H164534   4.043   2.057   1.791  0.2441 -0.9192 -1.3549
14373TIP3    H264535   4.192   2.078   1.800  0.0470 -0.0771  0.3093
14374TIP3   OH264536   4.784   5.571  15.930 -0.2895  0.2562 -0.2002
14374TIP3    H164537   4.818   5.606  16.012  0.6201 -2.1045  0.5112
14374TIP3    H264538   4.758   5.648  15.879 -2.1049  1.7832  2.7841
14375TIP3   OH264539   4.281   1.975  13.680  0.8551 -0.2614  0.4478
14375TIP3    H164540   4.335   1.896  13.674  0.9805 -0.0686 -2.0707
14375TIP3    H264541   4.191   1.944  13.670  0.6531 -0.3269  2.2035
14376TIP3   OH264542   1.668   5.774  17.120 -0.3207 -0.0727  0.0561
14376TIP3    H164543   1.625   5.815  17.194  2.7066 -0.5760  2.3052
14376TIP3    H264544   1.733   5.838  17.091 -1.2255 -0.0240 -2.0231
14377TIP3   OH264545   1.361   3.049   4.938 -0.8966 -0.2931  0.3950
14377TIP3    H164546   1.365   3.136   4.978  0.0601  0.6288 -1.5626
14377TIP3    H264547   1.362   2.989   5.013  1.6406  1.2790  1.7851
14378TIP3   OH264548   0.206   3.256  11.685 -0.5701 -0.7559  0.7640
14378TIP3    H164549   0.203   3.349  11.662  0.6394 -0.9314 -0.2411
14378TIP3    H264550   0.236   3.213  11.605  1.2035 -1.7240  1.8893
14379TIP3   OH264551   4.573   0.922  17.204  1.0621 -0.0719  0.3732
14379TIP3    H164552   4.604   0.914  17.294  0.9569  2.6678  0.7242
14379TIP3    H264553   4.484   0.957  17.212 -0.0510 -2.4031 -0.7822
14380TIP3   OH264554   0.900   4.114  13.542  0.0515 -0.2684  0.7149
14380TIP3    H164555   0.849   4.155  13.612 -0.7032  1.3644 -0.7451
14380TIP3    H264556   0.860   4.027  13.532 -1.7792  0.5776  0.3269
14381TIP3   OH264557   0.105   6.647   5.279 -0.2199 -0.0901  0.1497
14381TIP3    H164558   0.196   6.676   5.287 -0.0491 -0.3166 -0.8240
14381TIP3    H264559   0.097   6.576   5.343  0.0530  0.4660  0.8085
14382TIP3   OH264560   4.030   6.409  14.500  0.7359  0.4926 -0.4645
14382TIP3    H164561   4.031   6.472  14.428  1.0823  3.8561  2.1781
14382TIP3    H264562   3.967   6.445  14.562  2.1972 -0.8443  1.9594
14383TIP3   OH264563   5.085   3.418   3.376  0.0519  0.1123 -0.2683
14383TIP3    H164564   5.025   3.422   3.302 -0.0948 -0.8573 -0.2108
14383TIP3    H264565   5.080   3.328   3.407  0.6921  0.3051  0.4445
14384TIP3   OH264566   5.740   2.247   6.157 -0.2684  0.2776  0.2695
14384TIP3    H164567   5.799   2.248   6.082 -0.1217 -2.3510  0.2631
14384TIP3    H264568   5.797   2.256   6.234 -0.1183  0.1277  0.1750
14385TIP3   OH264569   1.172   5.450   5.973 -0.2149  0.1559 -0.3048
14385TIP3    H164570   1.209   5.519   5.918 -2.8201  3.4822  1.6739
14385TIP3    H264571   1.239   5.434   6.039  1.4274 -1.1875 -2.1750
14386TIP3   OH264572   5.528   6.324  13.179  0.3125  0.3822 -0.2038
14386TIP3    H164573   5.566   6.237  13.171 -0.0133  0.2050  0.1762
14386TIP3    H264574   5.490   6.342  13.093 -1.1724 -0.5743  0.2251
14387TIP3   OH264575   2.398   4.118  12.394  0.2282 -0.9527 -0.1119
14387TIP3    H164576   2.462   4.106  12.464  0.3062 -2.3115 -0.3809
14387TIP3    H264577   2.319   4.148  12.439  0.8908  0.3285  0.2734
14388TIP3   OH264578   4.427   0.376  13.380  0.1444  0.6005  0.1407
14388TIP3    H164579   4.465   0.464  13.382 -0.2530  0.9590 -3.0951
14388TIP3    H264580   4.496   0.321  13.343 -0.6980  0.2456 -0.9469
14389TIP3   OH264581   2.799   5.779  12.339  0.8356  0.1489 -0.1529
14389TIP3    H164582   2.739   5.705  12.341  1.9222 -0.7826 -0.4241
14389TIP3    H264583   2.743   5.857  12.344 -0.3575 -0.6802 -0.2671
14390TIP3   OH264584   3.709   0.127  15.951 -0.7247  0.3163 -0.1332
14390TIP3    H164585   3.757   0.187  15.893 -1.8652 -0.6369 -2.1837
14390TIP3    H264586   3.698   0.048  15.899  0.0427 -1.4365  2.2341
14391TIP3   OH264587   3.985   0.026   0.908  0.2986 -0.3064 -0.3819
14391TIP3    H164588   3.971   0.100   0.848  1.2427 -0.3150 -0.6391
14391TIP3    H264589   3.948  -0.049   0.863 -0.4215 -0.0389 -0.2426
14392TIP3   OH264590   5.557   1.160  16.556 -0.6893  0.0605  0.4247
14392TIP3    H164591   5.627   1.212  16.517 -0.0790 -1.7292 -1.0743
14392TIP3    H264592   5.483   1.172  16.497 -1.0893  0.5383  1.0136
14393TIP3   OH264593   0.188   0.805  15.109  0.3114 -0.2585  0.5916
14393TIP3    H164594   0.270   0.756  15.113  0.4515  0.0052  1.0288
14393TIP3    H264595   0.186   0.842  15.021  0.8384  0.0299  0.6994
14394TIP3   OH264596   2.520   0.672   1.899  0.1516  0.5584 -0.6104
14394TIP3    H164597   2.522   0.694   1.992  0.9312 -0.0328 -0.4741
14394TIP3    H264598   2.444   0.614   1.889  1.5813 -1.5945  0.2120
14395TIP3   OH264599   4.415   3.582   1.043  0.1469  0.3004  0.2403
14395TIP3    H164600   4.386   3.670   1.066 -0.4516  0.3985 -0.8257
14395TIP3    H264601   4.458   3.549   1.122 -1.7030  0.6615  1.4422
14396TIP3   OH264602   4.831   2.191   0.631  0.1293  0.4301  0.0551
14396TIP3    H164603   4.755   2.242   0.661 -1.1942 -1.3281 -0.1600
14396TIP3    H264604   4.795   2.130   0.567  1.3697 -1.7064  1.3035
14397TIP3   OH264605   0.281   6.673   4.072 -0.5150  0.3879 -0.4608
14397TIP3    H164606   0.220   6.683   3.999  1.5462 -0.6905 -2.4967
14397TIP3    H264607   0.260   6.588   4.110 -0.4521  0.1122 -1.0282
14398TIP3   OH264608   2.265   6.456   0.081  0.5522  0.2792 -0.1746
14398TIP3    H164609   2.284   6.391   0.150 -0.1831  0.9082  0.6458
14398TIP3    H264610   2.340   6.450   0.022  2.0777  0.9128  1.5906
14399TIP3   OH264611   0.049   6.128  14.998 -0.0076 -0.6216  0.1213
14399TIP3    H164612   0.009   6.198  15.050  0.0671 -0.5653  0.1040
14399TIP3    H264613   0.039   6.157  14.908  1.0115 -0.0995  0.1631
14400TIP3   OH264614   5.232   6.396   5.329  0.1375 -0.2841 -0.2666
14400TIP3    H164615   5.139   6.383   5.313  0.3535  0.7279 -2.9604
14400TIP3    H264616   5.273   6.316   5.298  0.2644 -0.1258 -0.5080
14401TIP3   OH264617   5.458   1.936  14.221  0.1838 -0.7079  0.7654
14401TIP3    H164618   5.533   1.974  14.268 -0.1215  0.5867  0.2374
14401TIP3    H264619   5.491   1.853  14.186  1.5094  0.0251  0.2128
14402TIP3   OH264620   3.985   0.808   5.928  0.4710 -0.2254  0.3867
14402TIP3    H164621   3.949   0.885   5.883 -2.6044 -2.8671 -2.2255
14402TIP3    H264622   4.075   0.801   5.896 -0.3891  0.2797 -2.4107
14403TIP3   OH264623   6.175   1.340  16.295 -0.3621  0.4507 -0.0512
14403TIP3    H164624   6.115   1.397  16.343 -0.1546  1.5199 -1.0184
14403TIP3    H264625   6.195   1.269  16.356 -2.1609  0.3550  0.4983
14404TIP3   OH264626   3.425   2.155  12.130  0.1071 -0.2711  0.2514
14404TIP3    H164627   3.520   2.151  12.139  0.2207 -2.6331 -1.1832
14404TIP3    H264628   3.410   2.227  12.069  0.9317  0.2959  0.6998
14405TIP3   OH264629   2.612   5.577   1.520  0.4767  0.0148 -0.0690
14405TIP3    H164630   2.694   5.618   1.495  1.3098 -1.5451 -0.0330
14405TIP3    H264631   2.601   5.597   1.613  0.7892  0.2693 -0.0879
14406TIP3   OH264632   5.174   5.374  16.902 -0.6130  0.5114  0.2572
14406TIP3    H164633   5.186   5.279  16.906  0.2251  0.5799 -0.2984
14406TIP3    H264634   5.101   5.387  16.842 -0.6792  0.2174  0.2734
14407TIP3   OH264635   3.716   0.375  11.627  0.5647 -0.8376 -0.6224
14407TIP3    H164636   3.701   0.303  11.567 -0.3358 -1.3462  0.2015
14407TIP3    H264637   3.633   0.386  11.673  0.9247  0.2268 -0.2021
14408TIP3   OH264638   2.658   4.629  16.627 -0.0324  0.1409 -0.5202
14408TIP3    H164639   2.698   4.686  16.561  0.8044 -0.1462 -0.2852
14408TIP3    H264640   2.578   4.597  16.586 -2.0294  3.5520  0.2913
14409TIP3   OH264641   1.917   2.281  12.156  0.5089  0.3209 -0.1140
14409TIP3    H164642   1.859   2.244  12.223  0.9698  0.6995  0.5178
14409TIP3    H264643   1.983   2.330  12.207  0.5748  1.0405 -0.8685
14410TIP3   OH264644   6.257   5.466  14.129 -0.5842  0.0633 -0.3116
14410TIP3    H164645   6.327   5.418  14.174 -0.8787  0.6756  0.8135
14410TIP3    H264646   6.225   5.529  14.193 -0.6893  1.2953 -1.5373
14411TIP3   OH264647   2.501   1.761   3.480 -0.0661 -0.0207 -0.3014
14411TIP3    H164648   2.483   1.766   3.386 -0.9318 -0.3594 -0.1630
14411TIP3    H264649   2.562   1.688   3.488 -0.4710 -0.3942 -0.5413
14412TIP3   OH264650   3.977   5.733   2.809 -0.4157 -0.8091 -0.1704
14412TIP3    H164651   3.911   5.768   2.871 -0.2723 -2.4532  0.9636
14412TIP3    H264652   3.930   5.725   2.726 -1.6431 -1.8026  0.5851
14413TIP3   OH264653   6.734   1.641  11.881 -0.0296  0.0377 -0.6931
14413TIP3    H164654   6.700   1.635  11.792  1.1786  0.2584 -1.1994
14413TIP3    H264655   6.823   1.605  11.875  0.6024  1.3680  0.1023
14414TIP3   OH264656   5.019   3.059   0.744 -0.1575 -0.3816  0.6073
14414TIP3    H164657   4.999   3.090   0.832 -1.3632 -0.7274  0.4718
14414TIP3    H264658   4.985   3.128   0.686 -0.1982 -0.5876  0.3852
14415TIP3   OH264659   0.533   4.836  14.539 -0.3227  0.0192 -0.1654
14415TIP3    H164660   0.613   4.821  14.588 -1.0605 -1.6628  0.5801
14415TIP3    H264661   0.542   4.926  14.506  2.0611 -0.2923 -0.5259
14416TIP3   OH264662   0.021   2.062  10.755  0.2249 -0.0628 -0.0966
14416TIP3    H164663  -0.058   2.030  10.713  0.9764 -1.5844 -0.3994
14416TIP3    H264664   0.009   2.157  10.759 -1.2383 -0.1907 -0.8866
14417TIP3   OH264665   3.767   2.120   5.488  0.0590  0.3438  0.6942
14417TIP3    H164666   3.812   2.045   5.448  0.5056  1.8416 -1.8082
14417TIP3    H264667   3.674   2.101   5.476  0.1644 -0.0092  0.4050
14418TIP3   OH264668   4.945   0.111  17.222 -0.4156  0.5081  0.1717
14418TIP3    H164669   4.917   0.053  17.293 -0.4417 -1.2842 -1.2164
14418TIP3    H264670   4.907   0.196  17.243 -2.6093 -0.5974  0.9945
14419TIP3   OH264671   2.775   3.416  14.986 -0.5265 -0.4074 -0.0624
14419TIP3    H164672   2.775   3.474  15.062  3.0152 -0.2491 -0.0093
14419TIP3    H264673   2.774   3.475  14.911  2.1285 -0.1609 -0.0076
14420TIP3   OH264674   6.660   3.483   6.076  0.0454  0.5234  0.4160
14420TIP3    H164675   6.752   3.462   6.061 -0.1920  0.2163 -0.7200
14420TIP3    H264676   6.653   3.495   6.171  0.8920 -1.1916  0.7384
14421TIP3   OH264677   4.585   2.953   3.992  0.2691  0.1197  0.2346
14421TIP3    H164678   4.526   2.899   4.044  0.0286  0.2652  0.1146
14421TIP3    H264679   4.538   2.968   3.910  0.7194 -0.2603 -0.0996
14422TIP3   OH264680   2.316   1.647   1.410  0.4188  0.6270 -0.3234
14422TIP3    H164681   2.230   1.641   1.452  0.6002  0.0009 -0.0293
14422TIP3    H264682   2.321   1.737   1.379 -0.7192  0.4525 -1.1345
14423TIP3   OH264683   6.130   2.933  12.789 -0.4738 -0.6659 -0.0674
14423TIP3    H164684   6.124   3.028  12.776  2.5144 -0.4386 -0.4606
14423TIP3    H264685   6.101   2.920  12.879  0.2631  0.8405  0.4351
14424TIP3   OH264686   3.089   6.004   1.320  0.1201  0.0218  0.1368
14424TIP3    H164687   3.095   5.959   1.404 -1.7661 -1.0485 -0.2499
14424TIP3    H264688   3.115   6.094   1.340  0.6065 -0.4259  1.6731
14425TIP3   OH264689   6.101   3.084   1.117  0.4109  0.2065  0.4579
14425TIP3    H164690   6.181   3.036   1.135  1.3767  2.4303  2.6233
14425TIP3    H264691   6.042   3.060   1.188 -0.4747 -0.4942 -0.4710
14426TIP3   OH264692   5.643   3.745   2.709  0.1309  0.1437 -0.3467
14426TIP3    H164693   5.606   3.819   2.758  0.0911  0.0054 -0.1663
14426TIP3    H264694   5.701   3.786   2.644  0.9389  0.2806  0.4484
14427TIP3   OH264695   0.001   0.059  15.428  0.2729 -0.3303 -0.6977
14427TIP3    H164696  -0.082   0.020  15.398  0.1743 -2.8568  2.2753
14427TIP3    H264697  -0.008   0.062  15.523  2.5899  2.0061 -0.4462
14428TIP3   OH264698   0.097   4.731  15.250 -0.2396 -0.2369  0.0940
14428TIP3    H164699   0.041   4.757  15.323 -0.8892 -1.5298  0.0847
14428TIP3    H264700   0.138   4.649  15.278 -0.4596 -0.7279 -0.9507
14429TIP3   OH264701   0.954   5.582  15.684  0.1097  0.0819 -0.3464
14429TIP3    H164702   1.045   5.590  15.712 -0.4089 -0.4153  1.6132
14429TIP3    H264703   0.948   5.495  15.646  0.6536  0.4913 -1.4256
14430TIP3   OH264704   0.891   1.790  11.298  0.1321 -0.0617  0.1741
14430TIP3    H164705   0.878   1.723  11.365  0.0794  1.7150  2.0186
14430TIP3    H264706   0.986   1.795  11.287  0.2009  0.4295  0.9623
14431TIP3   OH264707   1.895   5.610  12.870  0.4970 -0.6698  0.0516
14431TIP3    H164708   1.830   5.681  12.876  0.6497 -0.5060 -0.2536
14431TIP3    H264709   1.858   5.540  12.924 -0.9162 -1.3476 -1.7129
14432TIP3   OH264710   5.656   2.919  15.873 -0.2223  0.2248  0.1464
14432TIP3    H164711   5.578   2.869  15.897 -0.8193 -0.1552 -2.2926
14432TIP3    H264712   5.723   2.889  15.935 -1.9162  0.5155  2.2691
14433TIP3   OH264713   0.795   2.859  16.866 -0.6720 -0.1198 -0.1949
14433TIP3    H164714   0.800   2.948  16.902  0.4522  0.0290 -0.6615
14433TIP3    H264715   0.779   2.803  16.942  0.2684  0.3303  0.3565
14434TIP3   OH264716   0.117   1.804  15.476 -0.5892  0.1084 -0.4954
14434TIP3    H164717   0.103   1.712  15.452  0.3104 -0.0928 -0.2872
14434TIP3    H264718   0.029   1.843  15.473 -0.8464 -0.5084 -1.5841
14435TIP3   OH264719   5.013   2.394  15.365 -0.1181  0.6540 -0.0014
14435TIP3    H164720   4.975   2.424  15.448 -1.0719  0.0412 -0.1960
14435TIP3    H264721   4.937   2.366  15.313  0.5777 -0.2834 -0.5470
14436TIP3   OH264722   5.610   0.608   1.466 -0.2254  0.1786 -0.0471
14436TIP3    H164723   5.624   0.516   1.441 -0.2797  0.2099 -0.1925
14436TIP3    H264724   5.697   0.639   1.492 -0.3335 -0.1312  0.7386
14437TIP3   OH264725   5.075   2.776  14.917  0.2832 -0.7534  0.2270
14437TIP3    H164726   5.159   2.814  14.940  0.7332 -0.7381 -1.3268
14437TIP3    H264727   5.017   2.851  14.904  0.8075 -0.6096 -1.4903
14438TIP3   OH264728   5.813   1.694   4.760 -0.1070  0.3098 -0.7751
14438TIP3    H164729   5.874   1.758   4.724 -0.5224  1.2582  0.1554
14438TIP3    H264730   5.733   1.744   4.777 -0.9759 -0.7879 -1.4615
14439TIP3   OH264731   6.435   5.706  16.726 -0.0168 -0.1555  0.2814
14439TIP3    H164732   6.370   5.720  16.795 -1.5668 -0.2964 -1.1102
14439TIP3    H264733   6.425   5.781  16.668  0.4562 -0.6283 -0.4220
14440TIP3   OH264734   2.913   2.116  16.323 -0.8158 -0.5748 -0.0223
14440TIP3    H164735   2.981   2.049  16.313 -2.8653 -2.5839 -1.3378
14440TIP3    H264736   2.843   2.089  16.265 -1.8373  2.7166 -0.5700
14441TIP3   OH264737   1.761   0.322   2.192 -0.1360  0.4479 -0.4872
14441TIP3    H164738   1.696   0.343   2.124  0.9546  0.7889 -1.4601
14441TIP3    H264739   1.844   0.321   2.146  0.3623 -2.1887  0.2771
14442TIP3   OH264740   1.687   2.675  11.660  0.6050 -0.3346 -0.2509
14442TIP3    H164741   1.759   2.613  11.648  0.8104  0.0964 -1.2910
14442TIP3    H264742   1.610   2.620  11.672  0.3577 -0.8888 -3.5120
14443TIP3   OH264743   0.074   1.720  16.188 -0.7443 -0.2752  0.0460
14443TIP3    H164744   0.040   1.779  16.256  0.2102 -1.1482  1.3502
14443TIP3    H264745   0.144   1.672  16.232 -2.0656 -3.0459 -0.6698
14444TIP3   OH264746   4.488   1.173  13.468  0.4487 -0.1478 -0.5218
14444TIP3    H164747   4.416   1.217  13.423  1.6164  1.3066 -1.0388
14444TIP3    H264748   4.507   1.229  13.544  0.3881 -1.0667  0.1927
14445TIP3   OH264749   4.434   1.024   2.173  0.1016 -0.2265  0.0190
14445TIP3    H164750   4.392   0.942   2.199 -0.9799 -0.1240 -1.2714
14445TIP3    H264751   4.476   1.003   2.089  2.2774 -0.1848  1.0210
14446TIP3   OH264752   4.296   3.443   2.360 -0.2773 -0.0469 -0.1854
14446TIP3    H164753   4.266   3.352   2.356 -0.0088 -0.2060  0.9873
14446TIP3    H264754   4.218   3.495   2.342 -0.4099 -0.4916 -0.9925
14447TIP3   OH264755   5.359   0.105   6.392  0.0768  0.1200 -0.1661
14447TIP3    H164756   5.441   0.080   6.434  0.1745  1.1447  0.3011
14447TIP3    H264757   5.300   0.126   6.465 -1.1515 -2.1113 -0.4233
14448TIP3   OH264758   0.218   1.597  10.990 -0.5301 -0.1173 -0.8986
14448TIP3    H164759   0.152   1.546  10.942 -0.6879 -0.3064 -0.4899
14448TIP3    H264760   0.189   1.688  10.981 -0.9181 -0.2100 -0.6246
14449TIP3   OH264761   1.086   2.877   4.527  0.0700  0.2193  0.1258
14449TIP3    H164762   1.171   2.918   4.508  1.9345 -2.4408  2.0812
14449TIP3    H264763   1.070   2.898   4.619 -0.6102 -0.6102  0.2035
14450TIP3   OH264764   2.490   4.926   4.180  0.3102  0.0644  0.4817
14450TIP3    H164765   2.398   4.943   4.199 -0.0515  0.9893 -1.7186
14450TIP3    H264766   2.488   4.871   4.101  1.6484 -1.8411  1.6984
14451TIP3   OH264767   1.309   4.103   6.530 -0.4493 -0.4507  0.1186
14451TIP3    H164768   1.379   4.134   6.472 -0.8713 -1.3411 -0.9080
14451TIP3    H264769   1.351   4.093   6.615  0.8025 -1.3139 -0.5536
14452TIP3   OH264770   4.072   6.081  17.038  0.0691 -0.0282 -0.7368
14452TIP3    H164771   4.009   6.010  17.028 -0.2063  0.3241 -1.5085
14452TIP3    H264772   4.040   6.131  17.113 -0.4516  0.0233 -0.9891
14453TIP3   OH264773   4.273   5.962  11.787 -0.2612 -0.3336  0.3600
14453TIP3    H164774   4.247   5.946  11.877  0.2195 -0.8276  0.4144
14453TIP3    H264775   4.196   5.936  11.735 -0.1767 -1.0168  0.5671
14454TIP3   OH264776   1.265   0.231  14.736 -0.0887  0.6628 -0.2637
14454TIP3    H164777   1.360   0.241  14.731 -0.1544  1.1191 -0.6928
14454TIP3    H264778   1.235   0.234  14.645 -0.4532 -0.1663 -0.1827
14455TIP3   OH264779   2.876   2.825  14.290  0.0242  0.3217 -0.0502
14455TIP3    H164780   2.850   2.826  14.382  0.8955 -0.6977  0.2327
14455TIP3    H264781   2.793   2.813  14.243 -0.2696 -1.0089  0.7218
14456TIP3   OH264782   4.834   0.221   4.153 -0.4965  0.2610  0.0568
14456TIP3    H164783   4.750   0.252   4.187 -0.2642  1.6623 -0.6022
14456TIP3    H264784   4.828   0.125   4.158 -1.9482  0.3563  0.4470
14457TIP3   OH264785   4.316   0.352   0.622  0.1903 -0.3014 -0.0262
14457TIP3    H164786   4.330   0.281   0.685  2.1799 -0.4463 -0.5644
14457TIP3    H264787   4.392   0.409   0.633 -0.4897  0.7927 -0.8460
14458TIP3   OH264788   2.819   0.263  16.828  0.1091 -0.1279 -0.2253
14458TIP3    H164789   2.901   0.255  16.877  0.8375 -2.8141 -1.7267
14458TIP3    H264790   2.839   0.322  16.756  0.1874  0.5952  0.3737
14459TIP3   OH264791   1.364   5.135  17.179  0.4840 -0.0676  0.3179
14459TIP3    H164792   1.306   5.211  17.179  1.2482  0.5274  0.5735
14459TIP3    H264793   1.394   5.128  17.088 -0.7414 -0.9747 -0.0320
14460TIP3   OH264794   3.507   5.178  16.422 -0.2270  0.1667  0.6584
14460TIP3    H164795   3.600   5.177  16.445 -0.1059  1.0060  0.2438
14460TIP3    H264796   3.465   5.223  16.495 -0.2199  0.3349  0.5602
14461TIP3   OH264797   4.390   5.153   1.278  0.2975  0.0182 -0.1457
14461TIP3    H164798   4.308   5.155   1.228  0.1596 -1.3643 -0.0127
14461TIP3    H264799   4.407   5.245   1.299 -1.9911  0.2433  1.0526
14462TIP3   OH264800   0.670   4.567  14.084 -0.1472  0.4643  0.2056
14462TIP3    H164801   0.646   4.519  14.163 -0.0426 -2.2341 -1.2692
14462TIP3    H264802   0.610   4.642  14.082 -1.1817 -0.2517  2.0469
14463TIP3   OH264803   2.165   3.100   2.673 -0.2701  0.5911  0.3836
14463TIP3    H164804   2.093   3.053   2.714 -0.0437  0.1199  0.2386
14463TIP3    H264805   2.197   3.042   2.604  1.0397  0.2588  1.2283
14464TIP3   OH264806   6.015   6.293  10.961  0.8281  0.1339 -0.0996
14464TIP3    H164807   6.044   6.384  10.963  1.6153 -0.1145 -0.0355
14464TIP3    H264808   6.095   6.242  10.949  0.1806 -0.4362 -2.5044
14465TIP3   OH264809   3.588   3.571  16.264 -0.2673  0.1733  0.0603
14465TIP3    H164810   3.499   3.603  16.276  0.0842  2.8644 -3.0172
14465TIP3    H264811   3.582   3.513  16.187  0.5980  0.3787 -0.1754
14466TIP3   OH264812   5.910   6.384  11.439  0.0088  0.1797 -0.0120
14466TIP3    H164813   5.925   6.472  11.406 -0.0664  0.2870  0.2433
14466TIP3    H264814   5.912   6.329  11.361 -0.5762  0.4847 -0.2444
14467TIP3   OH264815   3.370   0.534  13.320  0.5854  0.0412 -0.9073
14467TIP3    H164816   3.381   0.556  13.412  0.6527 -1.6815 -0.4694
14467TIP3    H264817   3.414   0.606  13.273 -1.6747  2.3202  0.2407
14468TIP3   OH264818   2.600   2.552  14.667  0.1795 -0.8185  0.0666
14468TIP3    H164819   2.613   2.540  14.761  0.9606 -0.3312  0.0358
14468TIP3    H264820   2.689   2.547  14.631  0.0738  0.5491 -0.4528
14469TIP3   OH264821   6.238   2.964   0.403  0.4191 -0.0578 -0.2100
14469TIP3    H164822   6.305   2.932   0.463 -0.5455 -1.7110  0.0455
14469TIP3    H264823   6.248   2.911   0.324 -0.0660  0.2423 -0.4836
14470TIP3   OH264824   4.560   5.479   6.096 -0.4538  0.0488 -0.0082
14470TIP3    H164825   4.566   5.389   6.128 -1.2938  0.2968  0.8936
14470TIP3    H264826   4.644   5.495   6.052  0.8723 -0.2610  2.2292
14471TIP3   OH264827   1.507   2.728  11.136  0.1187  0.0079 -0.3715
14471TIP3    H164828   1.547   2.647  11.170 -1.1321 -0.5923 -0.2505
14471TIP3    H264829   1.506   2.716  11.041 -2.4400 -1.3848 -0.2767
14472TIP3   OH264830   0.237   5.229  13.450 -0.0823  0.0198  0.3599
14472TIP3    H164831   0.298   5.173  13.498  0.2169 -0.9777 -1.1043
14472TIP3    H264832   0.153   5.217  13.495  0.2722 -0.5432  0.8921
14473TIP3   OH264833   0.559   5.615   0.621  0.1387  0.0858 -0.3241
14473TIP3    H164834   0.608   5.670   0.682 -0.7314 -2.1642  2.6746
14473TIP3    H264835   0.620   5.544   0.598 -0.6740 -1.1289  1.0792
14474TIP3   OH264836   3.114   6.005   3.172  0.0470 -0.0336  0.1682
14474TIP3    H164837   3.167   6.084   3.181  1.3714 -0.5076 -2.5378
14474TIP3    H264838   3.174   5.939   3.137 -1.6095 -1.5128 -0.0233
14475TIP3   OH264839   4.542   3.737  13.624  0.1400  0.4582 -0.1832
14475TIP3    H164840   4.508   3.681  13.693 -0.2556  1.6011  0.5796
14475TIP3    H264841   4.546   3.681  13.547  0.3287 -0.7626  0.7028
14476TIP3   OH264842   0.767   3.328   6.225  0.1947  0.2560  0.0235
14476TIP3    H164843   0.786   3.291   6.311  2.1090  1.2150  0.0899
14476TIP3    H264844   0.854   3.342   6.186 -0.5815  1.2088 -1.4595
14477TIP3   OH264845   1.083   3.116  14.322  0.3810 -0.1994 -0.2872
14477TIP3    H164846   1.101   3.102  14.229 -1.8091  1.6485 -1.0686
14477TIP3    H264847   1.168   3.140  14.360  1.1416 -0.1173 -1.9730
14478TIP3   OH264848   1.229   5.012   4.138  0.0783 -0.4860 -0.1039
14478TIP3    H164849   1.277   5.073   4.194  0.1867 -0.8626  0.2226
14478TIP3    H264850   1.294   4.944   4.116  1.0555  1.2760 -3.3867
14479TIP3   OH264851   3.107   5.234  15.677 -0.4108 -0.4310  0.3901
14479TIP3    H164852   3.035   5.257  15.734 -1.5061 -1.6961 -0.4020
14479TIP3    H264853   3.142   5.153  15.714  0.5045  0.0772  0.6674
14480TIP3   OH264854   3.792   1.054  17.106 -0.1977  0.1432  0.1770
14480TIP3    H164855   3.877   1.011  17.103 -0.3549 -0.3045  1.5500
14480TIP3    H264856   3.733   0.989  17.146 -1.2683  0.3171 -1.0529
14481TIP3   OH264857   0.785   5.939   3.874  0.3445 -0.1286  0.2656
14481TIP3    H164858   0.748   5.851   3.872  0.8550 -0.3406 -0.0561
14481TIP3    H264859   0.720   5.994   3.832  0.8173 -0.6604 -1.2151
14482TIP3   OH264860   3.562   3.955  17.185  0.0464  0.4090  0.1078
14482TIP3    H164861   3.548   3.991  17.273 -2.3412 -0.5007  0.1728
14482TIP3    H264862   3.475   3.927  17.157  1.0266 -0.7964 -1.9090
14483TIP3   OH264863   0.449   4.204  12.811 -0.5298 -0.6261 -1.0964
14483TIP3    H164864   0.508   4.251  12.870  0.4236 -1.5307 -1.3210
14483TIP3    H264865   0.378   4.174  12.868 -0.4263 -0.1309 -0.7002
14484TIP3   OH264866   6.306   4.343   6.378 -0.5199  0.2418  0.2222
14484TIP3    H164867   6.345   4.407   6.318 -0.1926 -0.5797 -0.4642
14484TIP3    H264868   6.263   4.396   6.445  1.7556  1.1855  1.0185
14485TIP3   OH264869   4.179   5.078  13.908  0.4199  0.4453 -0.2144
14485TIP3    H164870   4.128   5.154  13.880  1.0074  0.6031 -0.8768
14485TIP3    H264871   4.157   5.067  14.000  0.2308  1.3367 -0.1476
14486TIP3   OH264872   2.060   0.983  14.339  0.1110  0.4703  0.4901
14486TIP3    H164873   1.988   0.926  14.312 -1.2100  0.2420  4.0322
14486TIP3    H264874   2.139   0.929  14.325 -0.8586 -1.2253  1.2097
14487TIP3   OH264875   3.130   2.928  12.413 -0.4241  0.2361 -0.3926
14487TIP3    H164876   3.206   2.870  12.402 -1.3365 -0.8759 -1.0181
14487TIP3    H264877   3.097   2.907  12.501 -0.7470 -0.2005 -0.6138
14488TIP3   OH264878   4.298   5.371  11.262 -0.5010 -0.1089  0.3948
14488TIP3    H164879   4.288   5.395  11.169  1.2814  0.9972  0.4492
14488TIP3    H264880   4.271   5.449  11.310  1.2468  0.3492  0.6998
14489TIP3   OH264881   2.023   1.241   3.379  0.6677  0.4352  0.2102
14489TIP3    H164882   1.963   1.313   3.400  1.6905  1.3713 -0.0198
14489TIP3    H264883   2.095   1.251   3.442  0.1158 -1.3159  1.1938
14490TIP3   OH264884   0.926   5.032   6.623 -0.2913  0.3528  0.0742
14490TIP3    H164885   0.840   5.018   6.663 -0.1783  0.3566  0.3208
14490TIP3    H264886   0.910   5.093   6.551 -0.2802  1.4432  0.9641
14491TIP3   OH264887   3.706   6.321  14.946  0.3487  0.2172 -0.0550
14491TIP3    H164888   3.648   6.325  14.870  0.8217  0.1624 -0.4203
14491TIP3    H264889   3.767   6.394  14.933  0.0634  0.5819  0.5797
14492TIP3   OH264890   3.267   5.867   2.278 -0.0558 -0.4823  0.5785
14492TIP3    H164891   3.285   5.932   2.210 -0.0176  0.9855  1.9361
14492TIP3    H264892   3.185   5.826   2.251  0.8218 -1.1396 -1.2037
14493TIP3   OH264893   1.154   6.427  12.662 -0.3162 -0.3127 -0.3078
14493TIP3    H164894   1.193   6.352  12.707  1.7847  0.5083 -0.6434
14493TIP3    H264895   1.070   6.440  12.706  0.8160 -0.6805  2.1779
14494TIP3   OH264896   4.092   5.209  16.866 -0.0444  0.1152  0.1612
14494TIP3    H164897   4.069   5.241  16.953 -0.5902 -0.8989  0.4116
14494TIP3    H264898   4.143   5.130  16.882 -2.1825 -1.4752 -0.3823
14495TIP3   OH264899   3.970   0.581   3.639  0.3675  0.4692 -0.2931
14495TIP3    H164900   3.951   0.654   3.580  1.3211  0.0919 -1.0899
14495TIP3    H264901   4.065   0.573   3.637  0.3929  0.1956  1.0126
14496TIP3   OH264902   5.347   0.338  15.523  0.6333 -0.5729  0.2906
14496TIP3    H164903   5.399   0.403  15.476 -1.1723  0.3986 -0.4898
14496TIP3    H264904   5.348   0.368  15.614 -2.0054  2.0280 -0.3556
14497TIP3   OH264905   3.141   1.222  14.958  0.0059 -1.0505 -0.1352
14497TIP3    H164906   3.049   1.244  14.971 -0.1294 -2.6320  2.1901
14497TIP3    H264907   3.149   1.133  14.992  2.1028 -1.5507 -1.7208
14498TIP3   OH264908   0.220   2.529  17.166  0.5272 -0.3547 -0.1453
14498TIP3    H164909   0.172   2.448  17.148  0.2550 -0.7819  2.1446
14498TIP3    H264910   0.186   2.592  17.103 -2.5860 -0.8391  0.8811
14499TIP3   OH264911   0.523   0.016   5.438 -0.4416  0.4529  0.1422
14499TIP3    H164912   0.580  -0.029   5.500  0.4958  0.6250 -0.5626
14499TIP3    H264913   0.455  -0.048   5.417 -0.9642  0.5084  1.5716
14500TIP3   OH264914   6.077   5.324   2.673  0.2421 -0.0733 -0.0461
14500TIP3    H164915   6.007   5.345   2.610  0.8371  0.4716 -0.5467
14500TIP3    H264916   6.105   5.236   2.649 -0.4062 -0.3802  0.2915
14501TIP3   OH264917   0.126   1.950  16.639  0.4720 -0.1925 -0.2583
14501TIP3    H164918   0.174   2.022  16.680 -0.2739  0.4511 -0.4745
14501TIP3    H264919   0.101   1.894  16.712  1.9487 -0.8017 -0.1920
14502TIP3   OH264920   2.786   0.008  15.258  0.3290  0.0712  0.0298
14502TIP3    H164921   2.693   0.015  15.277  0.3376  0.7271 -0.1303
14502TIP3    H264922   2.790  -0.028  15.170  0.1791  1.4948 -0.5882
14503TIP3   OH264923   4.332   5.723  14.975  0.0136  0.6186  0.1889
14503TIP3    H164924   4.374   5.768  15.048 -0.6222 -1.3713  1.8863
14503TIP3    H264925   4.253   5.774  14.958  1.6881  2.9247 -1.3427
14504TIP3   OH264926   4.873   3.948   0.389 -0.8017  0.2741  0.0608
14504TIP3    H164927   4.943   3.966   0.327 -1.4334  1.6438 -0.3017
14504TIP3    H264928   4.855   4.033   0.430 -3.6391  0.4716 -1.3612
14505TIP3   OH264929   5.468   0.172  16.586 -0.5666 -0.2061  0.1329
14505TIP3    H164930   5.445   0.262  16.611  1.6273  0.1247  1.1654
14505TIP3    H264931   5.563   0.171  16.583 -0.5373 -1.6181 -3.3700
14506TIP3   OH264932   4.535   6.684   0.814 -0.9904  0.4567  0.3439
14506TIP3    H164933   4.524   6.678   0.909 -1.7210 -0.5544  0.2125
14506TIP3    H264934   4.452   6.653   0.778  0.6040 -3.2073 -0.6559
14507TIP3   OH264935   1.546   1.158  15.286  0.2308  0.2744  0.0160
14507TIP3    H164936   1.626   1.210  15.286  0.4054  0.0245 -0.8707
14507TIP3    H264937   1.573   1.071  15.255 -0.2356 -0.0510  0.4976
14508TIP3   OH264938   0.925   1.212  15.333 -0.4794  0.0792  0.1483
14508TIP3    H164939   0.861   1.278  15.358  0.3431  0.5546  1.0594
14508TIP3    H264940   0.973   1.193  15.413  0.5463 -0.2372 -0.5166
14509TIP3   OH264941   5.770   0.144  12.217 -0.4738  0.0007  0.5891
14509TIP3    H164942   5.844   0.104  12.262 -0.6370 -2.6921 -1.2849
14509TIP3    H264943   5.808   0.208  12.158  0.2590 -0.4456  0.5664
14510TIP3   OH264944   2.729   3.042  12.986 -0.2108 -0.1746  0.0342
14510TIP3    H164945   2.725   3.059  13.080  1.5241  0.4023  0.0436
14510TIP3    H264946   2.669   3.106  12.948  0.3126  0.7086  0.6436
14511TIP3   OH264947   0.968   6.647  13.235  0.3534 -0.0061 -0.6361
14511TIP3    H164948   0.950   6.554  13.252  1.7596  0.0021  1.2628
14511TIP3    H264949   0.885   6.682  13.205 -1.5638 -0.9446  2.9617
14512TIP3   OH264950   1.974   1.840   6.014 -0.3378  0.7139 -0.5762
14512TIP3    H164951   1.986   1.821   6.107 -0.5766  0.5277 -0.5830
14512TIP3    H264952   2.055   1.883   5.988  0.4948 -0.9041 -0.7285
14513TIP3   OH264953   6.102   2.547  14.362  0.3050  0.1544  0.3804
14513TIP3    H164954   6.062   2.630  14.336 -0.2470 -0.0748  0.4877
14513TIP3    H264955   6.163   2.527  14.292 -1.9883 -1.0467 -1.4098
14514TIP3   OH264956   3.783   0.169   2.723 -0.6863  0.0568 -0.1225
14514TIP3    H164957   3.811   0.201   2.809 -0.0362 -1.1378  0.1376
14514TIP3    H264958   3.840   0.094   2.706 -1.9400 -0.7631 -0.8423
14515TIP3   OH264959   6.635   4.869  14.641 -0.1284 -0.2689 -0.4169
14515TIP3    H164960   6.660   4.916  14.721  0.2257 -0.5404 -0.3671
14515TIP3    H264961   6.591   4.790  14.673  0.5619 -0.6865 -0.4741
14516TIP3   OH264962   1.493   4.223  11.811  0.3557 -0.1518  0.1345
14516TIP3    H164963   1.559   4.217  11.880  1.7971 -0.0725 -1.1853
14516TIP3    H264964   1.416   4.178  11.847  1.0529 -0.0902  1.7801
14517TIP3   OH264965   5.018   6.524   2.366 -0.3133 -0.5295 -0.4413
14517TIP3    H164966   5.028   6.594   2.431 -0.6481 -1.5084  0.6940
14517TIP3    H264967   4.927   6.496   2.375 -0.5362 -0.2922 -1.7612
14518TIP3   OH264968   6.219   6.683  11.766 -0.4631 -0.0430  0.4279
14518TIP3    H164969   6.300   6.637  11.743  0.5858  0.5296  2.6850
14518TIP3    H264970   6.164   6.615  11.805 -1.0725 -0.4170 -1.0366
14519TIP3   OH264971   4.605   3.388   4.669 -0.1726 -0.5745  0.4214
14519TIP3    H164972   4.534   3.430   4.621  0.0587 -1.1273 -0.4292
14519TIP3    H264973   4.574   3.299   4.686  0.6033 -1.0660 -0.6391
14520TIP3   OH264974   1.763   5.911  12.132 -0.6465  0.2196 -0.5577
14520TIP3    H164975   1.817   5.925  12.209 -0.6002 -0.6110 -0.4320
14520TIP3    H264976   1.817   5.943  12.059  0.5166 -1.6257 -0.5686
14521TIP3   OH264977   4.911   0.605   4.521 -0.6658 -0.3139  0.0490
14521TIP3    H164978   4.893   0.529   4.466  0.6921 -1.4557  1.1412
14521TIP3    H264979   4.925   0.677   4.459  2.0062 -1.8037 -1.2367
14522TIP3   OH264980   1.940   6.468  16.571 -0.1100  0.6994 -0.2152
14522TIP3    H164981   1.887   6.547  16.582 -1.0430  0.2966 -1.5820
14522TIP3    H264982   2.027   6.493  16.600 -0.5330  2.0641 -0.0814
14523TIP3   OH264983   3.415   6.296  11.484  0.2580  0.3536  0.3895
14523TIP3    H164984   3.416   6.381  11.441  3.1526  0.1583 -0.0766
14523TIP3    H264985   3.475   6.242  11.433  0.0168 -1.3858  1.8373
14524TIP3   OH264986   5.193   0.349   2.823 -0.2692  0.2977 -0.0430
14524TIP3    H164987   5.218   0.440   2.838 -0.9347  0.5115 -0.1802
14524TIP3    H264988   5.104   0.354   2.789 -1.3650 -0.5432  2.5066
14525TIP3   OH264989   4.405   3.740   2.433 -0.3100 -0.4792 -0.3892
14525TIP3    H164990   4.386   3.833   2.443  0.3049 -0.3503 -0.3587
14525TIP3    H264991   4.375   3.700   2.514  0.6877 -0.0920  0.1936
14526TIP3   OH264992   6.658   4.106   3.071 -0.1625 -0.0325 -0.5514
14526TIP3    H164993   6.709   4.046   3.126 -1.5267  0.3686  1.2235
14526TIP3    H264994   6.572   4.065   3.064 -1.4113  2.0260  1.4055
14527TIP3   OH264995   5.589   0.933   6.294 -0.0279 -0.3736 -0.0371
14527TIP3    H164996   5.532   0.947   6.370 -0.8540  0.3002 -0.7534
14527TIP3    H264997   5.629   1.018   6.277  0.4392 -0.6090 -0.1320
14528TIP3   OH264998   1.184   1.889   1.297  0.1866  0.3651 -0.5731
14528TIP3    H164999   1.147   1.972   1.328  0.8175  1.1067 -1.7604
14528TIP3    H265000   1.276   1.909   1.279  0.4631 -0.7225 -0.4153
14529TIP3   OH265001   6.269   1.106   4.598 -0.6911  0.2251  0.3539
14529TIP3    H165002   6.336   1.162   4.637  1.0234 -1.1758 -0.4650
14529TIP3    H265003   6.250   1.042   4.667  2.0180 -1.9794 -0.7678
14530TIP3   OH265004   0.008   3.016   0.698  0.0552 -0.1431 -0.0866
14530TIP3    H165005  -0.025   3.042   0.612 -0.2611  0.4544  0.2166
14530TIP3    H265006   0.079   3.078   0.717 -0.1379 -0.0249  0.2590
14531TIP3   OH265007   1.113   1.698  15.030  0.1989 -0.1638 -0.1379
14531TIP3    H165008   1.064   1.616  15.037 -0.8868  0.2426 -2.2231
14531TIP3    H265009   1.178   1.681  14.962  2.1596 -0.2435  1.6270
14532TIP3   OH265010   5.742   4.659  13.569 -0.3934  0.4285  0.0648
14532TIP3    H165011   5.811   4.630  13.509 -0.0363 -0.1357  0.7346
14532TIP3    H265012   5.661   4.633  13.527 -0.1522  0.1977 -0.2615
14533TIP3   OH265013   4.494   6.121   3.935  0.2983  0.2877  0.6301
14533TIP3    H165014   4.523   6.146   3.848  1.1199  0.6119  0.9887
14533TIP3    H265015   4.425   6.056   3.920  0.1651  0.6261 -0.2606
14534TIP3   OH265016   3.949   0.829   0.743  0.0576  0.5381 -0.2005
14534TIP3    H165017   3.968   0.811   0.651 -1.5325 -2.4691 -0.0676
14534TIP3    H265018   4.006   0.769   0.792 -1.0622  0.0942  0.6119
14535TIP3   OH265019   6.655   3.605  16.726 -0.2323  0.3796 -0.0353
14535TIP3    H165020   6.595   3.532  16.744 -0.1400  0.1423 -0.6971
14535TIP3    H265021   6.709   3.575  16.653  2.2381 -0.3109  1.9466
14536TIP3   OH265022   2.381   5.950   2.983  0.4669 -0.3411  0.2660
14536TIP3    H165023   2.389   5.894   2.905 -0.3421  0.5873 -0.5005
14536TIP3    H265024   2.357   6.036   2.949 -0.2141  0.0088  1.5697
14537TIP3   OH265025   1.813   4.346  13.927  0.4568  0.1702  0.0610
14537TIP3    H165026   1.877   4.330  13.858  3.7261 -2.0707  3.2118
14537TIP3    H265027   1.826   4.437  13.952  2.1842 -0.1091  0.3082
14538TIP3   OH265028   3.865   4.188  11.875  0.1070 -0.1676 -0.4517
14538TIP3    H165029   3.794   4.233  11.829  1.5156  0.3122 -2.3158
14538TIP3    H265030   3.843   4.096  11.870 -2.1043  0.1157  2.1458
14539TIP3   OH265031   5.925   1.608  12.367 -0.0516 -0.6916  0.2276
14539TIP3    H165032   5.861   1.585  12.300 -0.2105  1.4119 -0.4310
14539TIP3    H265033   5.881   1.674  12.420  1.2964  0.2699  0.1991
14540TIP3   OH265034   2.020   6.661   4.985 -0.4635  0.2449  0.2706
14540TIP3    H165035   2.066   6.728   4.935 -2.4544  0.9072 -0.7845
14540TIP3    H265036   1.971   6.709   5.051 -0.7228 -0.3101  0.4891
14541TIP3   OH265037   3.227   4.351  15.926  0.3942  0.0137  0.0020
14541TIP3    H165038   3.273   4.426  15.963  0.2608 -0.3391  0.9299
14541TIP3    H265039   3.295   4.283  15.918  0.5655  0.2921 -1.0557
14542TIP3   OH265040   5.992   2.613  16.821  0.2411  0.2259 -0.5400
14542TIP3    H165041   5.920   2.656  16.776 -1.0874 -0.9811  0.3577
14542TIP3    H265042   6.061   2.680  16.826 -0.6438  1.2707 -1.7644
14543TIP3   OH265043   5.418   2.107  15.324  0.6440  0.0573 -0.0144
14543TIP3    H165044   5.374   2.192  15.320 -0.9302 -0.7135 -0.2491
14543TIP3    H265045   5.348   2.046  15.350  1.7015 -1.1802  0.0063
14544TIP3   OH265046   3.607   2.449   1.183  0.3640 -0.1393  0.1614
14544TIP3    H165047   3.607   2.354   1.194 -0.7559 -0.0404  1.0926
14544TIP3    H265048   3.681   2.466   1.124  1.2940 -1.4728  0.8983
14545TIP3   OH265049   0.062   1.060   5.791  0.3934 -0.2501 -0.1398
14545TIP3    H165050   0.099   1.124   5.853  0.7188  0.6811 -1.2538
14545TIP3    H265051  -0.027   1.092   5.775  0.3333 -0.4486 -0.1963
14546TIP3   OH265052   1.801   5.624   4.907 -0.1053 -0.5379 -0.0624
14546TIP3    H165053   1.733   5.678   4.948  1.1868  1.0949  0.0553
14546TIP3    H265054   1.882   5.657   4.944  0.7741 -2.4404 -0.2068
14547TIP3   OH265055   3.747   1.342   2.527 -0.0508  0.8049 -0.5960
14547TIP3    H165056   3.823   1.307   2.573  0.3135  0.7136 -1.2565
14547TIP3    H265057   3.694   1.383   2.596 -0.5471 -1.1152  0.2459
14548TIP3   OH265058   3.108   2.611   3.071 -0.1390 -0.0233 -0.2977
14548TIP3    H165059   3.094   2.580   3.161 -2.4061  1.9136  0.1233
14548TIP3    H265060   3.184   2.669   3.078  0.2528 -0.5694  0.1575
14549TIP3   OH265061   1.611   0.404   4.174  0.4681 -0.6319 -0.1617
14549TIP3    H165062   1.706   0.391   4.172  0.6380  0.4797 -0.0280
14549TIP3    H265063   1.574   0.317   4.162  1.5131 -1.2573  1.0374
14550TIP3   OH265064   1.042   2.175   1.628  0.3351 -0.0615  0.8615
14550TIP3    H165065   0.955   2.191   1.665 -1.0862 -2.9609 -0.9125
14550TIP3    H265066   1.079   2.106   1.683  1.0896  0.3417  0.8827
14551TIP3   OH265067   4.952   2.067   2.408  0.3209 -0.3742  0.1308
14551TIP3    H165068   4.957   1.977   2.376  0.0935  0.0528 -1.1717
14551TIP3    H265069   4.875   2.103   2.364 -0.5585 -0.0022  1.8838
14552TIP3   OH265070   3.198   5.027  15.895 -0.5096  0.2172  0.3851
14552TIP3    H165071   3.150   5.088  15.950  0.5572  1.1437  0.3225
14552TIP3    H265072   3.289   5.036  15.923 -0.2196 -0.7583 -0.1766
14553TIP3   OH265073   0.946   1.055   4.554  0.0444 -0.4912 -0.2430
14553TIP3    H165074   0.865   1.092   4.518 -2.0129 -2.7618  1.6237
14553TIP3    H265075   0.974   0.990   4.490 -0.5031 -0.7550 -0.2215
14554TIP3   OH265076   4.868   4.318   2.375  0.5161 -0.8640 -0.2437
14554TIP3    H165077   4.905   4.387   2.430 -1.6842 -1.0043  1.5733
14554TIP3    H265078   4.803   4.275   2.430 -1.2448 -1.5863 -2.6791
14555TIP3   OH265079   6.408   0.258   4.971  0.6479 -0.1785  0.2494
14555TIP3    H165080   6.422   0.242   5.064 -1.4235  1.4124  0.9064
14555TIP3    H265081   6.468   0.329   4.948  0.4388  0.1293  0.6489
14556TIP3   OH265082   6.224   5.250   1.568 -0.1036  0.3062 -0.3455
14556TIP3    H165083   6.285   5.309   1.522 -0.8205  0.6645 -0.8624
14556TIP3    H265084   6.138   5.280   1.540 -0.5091 -2.6653 -2.7938
14557TIP3   OH265085   1.555   6.046   4.956  0.2031  0.3306 -0.5495
14557TIP3    H165086   1.632   6.078   5.004 -0.7308 -0.4965  1.6364
14557TIP3    H265087   1.564   5.951   4.956  0.7711  0.3077 -3.1943
14558TIP3   OH265088   6.742   6.018  14.208  0.7365 -0.1059  0.0700
14558TIP3    H165089   6.720   6.025  14.115 -1.0425 -0.3045  0.4427
14558TIP3    H265090   6.670   6.062  14.253  1.9218  0.5987  1.3447
14559TIP3   OH265091   0.859   4.722   4.202  0.1998 -0.2155  0.7048
14559TIP3    H165092   0.865   4.780   4.126  0.8218 -2.0934 -0.7673
14559TIP3    H265093   0.768   4.693   4.202 -0.0986  0.6866  1.4111
14560TIP3   OH265094   5.486   1.963   5.755 -0.5837 -0.3197 -0.6123
14560TIP3    H165095   5.398   1.924   5.757 -0.7120 -0.0690 -1.3372
14560TIP3    H265096   5.470   2.057   5.758 -0.2867 -0.2870  0.6684
14561TIP3   OH265097   6.706   6.467   4.060  0.2469  0.0717 -0.9566
14561TIP3    H165098   6.638   6.485   4.125  0.4015 -0.1747 -0.7226
14561TIP3    H265099   6.775   6.424   4.110 -0.5833 -2.2696 -1.6937
14562TIP3   OH265100   6.104   4.256  17.124 -0.4221 -0.6807 -0.0638
14562TIP3    H165101   6.166   4.202  17.173  1.2194 -0.5727 -1.8860
14562TIP3    H265102   6.064   4.196  17.062 -0.2563 -0.2538 -0.5912
14563TIP3   OH265103   1.243   4.989  16.858 -0.7901 -0.7047  0.4193
14563TIP3    H165104   1.254   4.908  16.907  0.0340 -1.2349 -0.6040
14563TIP3    H265105   1.273   4.968  16.770 -1.4975  0.4388 -0.1238
14564TIP3   OH265106   5.821   0.919  13.851 -0.0097 -0.3463  0.0342
14564TIP3    H165107   5.813   0.825  13.836  1.0086 -0.3663 -0.4619
14564TIP3    H265108   5.902   0.928  13.902 -0.9397  0.1365  1.5115
14565TIP3   OH265109   6.176   6.715   2.260 -0.6845 -0.2054  0.4299
14565TIP3    H165110   6.151   6.710   2.167 -0.4472  1.1749  0.2835
14565TIP3    H265111   6.120   6.783   2.296  1.0239  1.1009  0.6959
14566TIP3   OH265112   5.040   6.458  11.679 -0.5519  0.0251 -0.2097
14566TIP3    H165113   5.027   6.496  11.592 -3.3443  0.6302  0.3843
14566TIP3    H265114   5.051   6.533  11.737  1.1434 -0.3719  0.0420
14567TIP3   OH265115   4.453   5.382  13.150 -0.7538 -0.2210  0.2875
14567TIP3    H165116   4.365   5.345  13.151 -0.2982 -1.3379  0.7326
14567TIP3    H265117   4.499   5.338  13.222 -0.1152  1.0839  0.7253
14568TIP3   OH265118   0.510   3.865  12.146  0.4476  0.3959 -0.0832
14568TIP3    H165119   0.495   3.815  12.227  0.8612  1.1093  0.4481
14568TIP3    H265120   0.552   3.946  12.176  0.8003  0.5739 -1.0427
14569TIP3   OH265121   4.283   3.144   0.418  0.5711 -0.4346  0.1302
14569TIP3    H165122   4.379   3.143   0.414  0.5456 -0.9550 -1.5201
14569TIP3    H265123   4.257   3.179   0.333 -0.6978 -2.2086 -0.2612
14570TIP3   OH265124   1.776   1.099  14.015  0.4577  0.5483 -0.3101
14570TIP3    H165125   1.818   1.176  14.054  0.9616 -0.5540  1.4562
14570TIP3    H265126   1.689   1.097  14.054  0.4020  0.2891 -0.4484
14571TIP3   OH265127   2.420   2.354  15.460  0.1716  0.9906  0.1523
14571TIP3    H165128   2.380   2.331  15.543 -1.3970  1.9049 -0.3116
14571TIP3    H265129   2.507   2.388  15.483  0.4970 -0.5023  1.2291
14572TIP3   OH265130   2.531   1.637   2.118  0.3468 -1.0575 -0.0807
14572TIP3    H165131   2.463   1.648   2.185 -1.0403 -0.6313 -1.4921
14572TIP3    H265132   2.504   1.560   2.069  1.8200 -1.8769  0.3508
14573TIP3   OH265133   3.794   4.362  17.131  0.3824 -0.2825 -0.2307
14573TIP3    H165134   3.871   4.338  17.080  2.0932 -0.0247  2.0399
14573TIP3    H265135   3.743   4.419  17.074  2.7471  0.9050 -1.2601
14574TIP3   OH265136   4.056   5.198  14.728 -0.0057 -0.6479 -0.2725
14574TIP3    H165137   4.138   5.203  14.776  0.2081 -1.1693 -0.5738
14574TIP3    H265138   4.076   5.143  14.651 -0.2538  0.4375 -1.1404
14575TIP3   OH265139   6.162   2.989  10.866 -0.0689  0.0464 -0.2073
14575TIP3    H165140   6.205   3.029  10.942 -0.6833  0.8059 -0.2457
14575TIP3    H265141   6.076   2.961  10.900 -0.2323  0.1268 -0.5576
14576TIP3   OH265142   2.412   1.108  13.708  0.1348 -0.4967  0.0393
14576TIP3    H165143   2.359   1.131  13.783 -0.9683  2.2387 -1.4579
14576TIP3    H265144   2.354   1.057  13.651  0.6989 -1.7895  0.5711
14577TIP3   OH265145   0.506   1.998   1.164 -0.5398 -0.0181 -0.0389
14577TIP3    H165146   0.414   1.979   1.186 -0.2240  0.3685  1.7983
14577TIP3    H265147   0.500   2.063   1.093 -1.6900 -0.0065  0.0450
14578TIP3   OH265148   4.238   1.037  16.982  0.0566 -0.4534  0.2091
14578TIP3    H165149   4.190   1.119  16.970  0.3665  0.0264  1.8509
14578TIP3    H265150   4.327   1.065  17.005  0.0014 -1.2116  1.4400
14579TIP3   OH265151   4.563   6.419  14.110 -0.3972 -0.7609 -0.0096
14579TIP3    H165152   4.594   6.376  14.189  1.8018 -1.3715 -1.1185
14579TIP3    H265153   4.528   6.348  14.056  0.2325 -0.7025 -0.5090
14580TIP3   OH265154   4.924   5.200  16.991 -0.2533 -0.2505 -0.3595
14580TIP3    H165155   4.982   5.150  16.932  0.2520 -1.1077  0.8121
14580TIP3    H265156   4.907   5.281  16.944 -1.0041 -1.4427 -2.3120
14581TIP3   OH265157   0.247   2.702   3.104 -0.4973  0.0247 -0.1331
14581TIP3    H165158   0.341   2.688   3.116 -0.2096 -0.3575 -2.2748
14581TIP3    H265159   0.206   2.663   3.181  1.1441  1.6374  1.6426
14582TIP3   OH265160   5.095   6.722   4.155 -0.5970 -0.2474  0.0864
14582TIP3    H165161   5.005   6.690   4.152 -0.2538 -1.1910 -2.0646
14582TIP3    H265162   5.100   6.790   4.088  0.0651  0.5156  0.8752
14583TIP3   OH265163   6.594   5.623   4.135  0.2765 -0.2148 -0.4583
14583TIP3    H165164   6.597   5.541   4.184  1.9302  0.8900  1.4942
14583TIP3    H265165   6.681   5.629   4.094  0.1848  0.5689 -0.5520
14584TIP3   OH265166   6.759   4.474  11.138 -0.0104 -0.3237 -0.3808
14584TIP3    H165167   6.794   4.540  11.197 -0.5328  0.1017 -0.5387
14584TIP3    H265168   6.665   4.491  11.135 -0.2743 -1.5793  0.1972
14585TIP3   OH265169   1.642   2.019   1.493 -0.2224 -0.4695 -0.0188
14585TIP3    H165170   1.724   2.063   1.469  0.2590 -1.4563 -0.2653
14585TIP3    H265171   1.573   2.078   1.463  0.3952 -0.1931 -0.9420
14586TIP3   OH265172   2.544   6.598   5.638 -0.7104 -0.1963 -0.1371
14586TIP3    H165173   2.525   6.630   5.726 -2.1872 -0.2656 -0.4026
14586TIP3    H265174   2.640   6.595   5.634 -0.5942 -1.6023  1.9648
14587TIP3   OH265175   3.848   4.081   4.782  0.0520 -0.3066 -0.5177
14587TIP3    H165176   3.932   4.065   4.739  1.3688  1.1141  1.3571
14587TIP3    H265177   3.859   4.045   4.870 -1.3148 -0.0589 -0.2168
14588TIP3   OH265178   0.683   1.205   3.009 -0.4488 -0.0407 -0.2303
14588TIP3    H165179   0.734   1.283   2.987  0.6878 -0.9737 -0.9918
14588TIP3    H265180   0.668   1.161   2.925 -2.3956  0.1243 -0.0058
14589TIP3   OH265181   3.998   0.993   0.347  0.1806 -0.0224  0.8356
14589TIP3    H165182   3.920   0.981   0.292  0.9298 -1.1347 -0.0359
14589TIP3    H265183   4.071   0.971   0.290  0.9860 -1.5572  2.3460
14590TIP3   OH265184   2.046   5.372   0.789 -0.1458 -0.1241 -0.0985
14590TIP3    H165185   2.035   5.435   0.861 -0.2282  1.4416 -1.4025
14590TIP3    H265186   1.962   5.376   0.742  0.9989  1.4610 -2.1719
14591TIP3   OH265187   5.732   5.568  15.354 -0.0233 -0.7130  0.1300
14591TIP3    H165188   5.788   5.543  15.428  1.2725  0.1224 -0.5312
14591TIP3    H265189   5.740   5.663  15.349 -0.0390 -0.7722 -1.1290
14592TIP3   OH265190   5.258   1.815  15.662 -0.0925 -0.1910  0.3933
14592TIP3    H165191   5.188   1.853  15.609  0.1608  0.2674  0.3824
14592TIP3    H265192   5.324   1.884  15.667  0.3573 -0.6187  0.4011
14593TIP3   OH265193   1.719   3.644   5.666 -0.6103 -0.7414  0.2954
14593TIP3    H165194   1.748   3.579   5.601 -1.2313 -0.2490 -0.5005
14593TIP3    H265195   1.764   3.725   5.641 -1.0950 -0.4708  0.2832
14594TIP3   OH265196   0.268   4.051  10.917  0.5161 -0.3132  1.1638
14594TIP3    H165197   0.283   3.970  10.868 -0.9876  0.1866 -0.1972
14594TIP3    H265198   0.248   4.117  10.851  1.1100  1.0564  2.2923
14595TIP3   OH265199   0.360   0.365   5.463 -0.8272  0.1562 -0.7987
14595TIP3    H165200   0.394   0.350   5.552 -2.5832  1.8840  0.2433
14595TIP3    H265201   0.330   0.278   5.435  0.5805 -0.5988 -0.0987
14596TIP3   OH265202   3.677   1.256  15.496  0.2353 -0.0171 -0.1149
14596TIP3    H165203   3.765   1.230  15.471  0.5399  0.3626  0.5548
14596TIP3    H265204   3.686   1.293  15.584 -0.4747  0.6505 -0.3072
14597TIP3   OH265205   2.063   2.057   4.363  0.2636 -0.3340 -0.3205
14597TIP3    H165206   2.153   2.086   4.379  1.1335 -1.5553 -2.6047
14597TIP3    H265207   2.070   1.964   4.341 -1.6660 -0.6480  0.1761
14598TIP3   OH265208   2.408   2.406   2.221 -0.3547  0.3064 -0.5101
14598TIP3    H165209   2.393   2.358   2.140  2.2473 -0.9559 -0.3841
14598TIP3    H265210   2.479   2.466   2.200 -1.2142  1.6276  0.2661
14599TIP3   OH265211   0.825   4.276   1.245  0.2272 -0.3173 -0.1279
14599TIP3    H165212   0.821   4.180   1.244 -0.6034 -0.2906 -0.9249
14599TIP3    H265213   0.741   4.303   1.282  0.3272  0.1072 -0.2037
14600TIP3   OH265214   2.848   5.315   0.199  0.0297  0.1108  0.0188
14600TIP3    H165215   2.761   5.341   0.230  0.0481 -0.5744  0.6568
14600TIP3    H265216   2.908   5.352   0.264  0.1716  0.0252 -0.0635
14601TIP3   OH265217   5.975   1.598   0.676  0.4616  0.6368 -0.1838
14601TIP3    H165218   6.000   1.594   0.584 -0.3847  1.5477 -0.4752
14601TIP3    H265219   6.054   1.573   0.723  1.0633  0.6641 -1.1439
14602TIP3   OH265220   4.142   5.328  12.742 -0.0094  0.3826  0.1597
14602TIP3    H165221   4.187   5.348  12.659  0.2627  0.6499  0.3681
14602TIP3    H265222   4.069   5.389  12.744 -0.4112 -0.0759 -0.1973
14603TIP3   OH265223   6.587   6.122  16.253  0.5532 -0.1633 -0.1614
14603TIP3    H165224   6.568   6.057  16.321 -0.1477  0.9062  0.6776
14603TIP3    H265225   6.673   6.158  16.277  1.6713 -1.7796 -1.4548
14604TIP3   OH265226   4.728   0.165   1.373  0.5367  0.4523  0.0026
14604TIP3    H165227   4.765   0.254   1.369  0.8306  0.3104 -0.6688
14604TIP3    H265228   4.648   0.175   1.424  1.1547  0.8947  0.9050
14605TIP3   OH265229   1.305   1.212   5.654  0.1298  0.5417 -0.7788
14605TIP3    H165230   1.273   1.301   5.643 -1.0551  0.5412  1.8834
14605TIP3    H265231   1.228   1.161   5.678  1.2712 -0.5000  0.9428
14606TIP3   OH265232   0.059   6.532  14.033 -0.2065  0.1411  0.2194
14606TIP3    H165233   0.115   6.529  14.110  2.2689 -0.9190 -1.4819
14606TIP3    H265234   0.015   6.617  14.038  1.3099  0.8742  1.8513
14607TIP3   OH265235   2.509   2.751  12.415  0.3982 -0.1873 -0.1895
14607TIP3    H165236   2.557   2.789  12.489  1.1743  1.0197 -1.2575
14607TIP3    H265237   2.439   2.699  12.455 -0.2653  1.7915  1.3950
14608TIP3   OH265238   4.748   5.122   2.860  0.3861  0.1754  0.2723
14608TIP3    H165239   4.660   5.130   2.825  0.2584 -1.7450  0.0964
14608TIP3    H265240   4.746   5.173   2.942 -1.2415 -0.8007  0.8847
14609TIP3   OH265241   5.159   0.388   6.269  0.6745  0.3959  0.2206
14609TIP3    H165242   5.167   0.403   6.364  0.0296  1.3157  0.1376
14609TIP3    H265243   5.126   0.298   6.262 -1.0804  0.9367  0.9546
14610TIP3   OH265244   2.738   0.314   4.542  0.1032  0.1370  0.2398
14610TIP3    H165245   2.740   0.250   4.613  1.2539  0.9205  0.9459
14610TIP3    H265246   2.645   0.320   4.518 -0.0327 -1.7305  0.1909
14611TIP3   OH265247   0.721   4.262   1.991  0.4823  0.3391  0.1473
14611TIP3    H165248   0.740   4.264   2.085 -1.2526 -1.6766  0.6138
14611TIP3    H265249   0.773   4.188   1.958 -0.1492  0.0205 -0.1516
14612TIP3   OH265250   5.761   6.296   1.676 -0.2041 -0.3367 -0.0137
14612TIP3    H165251   5.761   6.263   1.586  0.8122 -1.1505  0.2680
14612TIP3    H265252   5.768   6.218   1.731  1.8685  0.2619  0.6802
14613TIP3   OH265253   4.840   6.239  12.434 -0.7183  0.5644  0.3646
14613TIP3    H165254   4.863   6.263  12.524  1.8098  1.4123 -0.4300
14613TIP3    H265255   4.906   6.174  12.409 -2.5982 -1.2101 -0.2689
14614TIP3   OH265256   6.286   0.923  15.704 -0.3054 -0.0966  0.5797
14614TIP3    H165257   6.206   0.877  15.731 -0.5290  0.7120  1.3330
14614TIP3    H265258   6.302   0.986  15.774  0.3130  0.5947 -0.1724
14615TIP3   OH265259   4.896   5.061  11.881  0.3460 -0.4967 -0.3534
14615TIP3    H165260   4.930   5.063  11.970 -1.1212 -0.1397  0.2266
14615TIP3    H265261   4.801   5.063  11.891  0.1474 -0.3414 -1.9286
14616TIP3   OH265262   4.772   4.012   3.256  0.0491 -0.2894  0.1317
14616TIP3    H165263   4.814   3.951   3.317 -1.5720 -2.7378 -1.0447
14616TIP3    H265264   4.720   3.956   3.198 -1.7099  2.2519 -0.9276
14617TIP3   OH265265   0.650   0.472   3.876 -0.6028 -0.1676 -0.2862
14617TIP3    H165266   0.668   0.394   3.823 -1.6467  0.0841 -1.0477
14617TIP3    H265267   0.599   0.529   3.818 -0.8895  0.5624  0.6586
14618TIP3   OH265268   4.742   5.305  15.997  0.7725  0.7055  0.2806
14618TIP3    H165269   4.764   5.392  15.964 -2.5260  1.5213 -0.1057
14618TIP3    H265270   4.755   5.247  15.922  1.8030  1.0431  0.1850
14619TIP3   OH265271   4.226   2.666   1.110  0.0775 -0.3530  0.9177
14619TIP3    H165272   4.195   2.754   1.087  0.5272 -0.6244 -0.9145
14619TIP3    H265273   4.321   2.671   1.100  0.0570 -1.1942  0.2225
14620TIP3   OH265274   5.129   4.877  17.031  0.0162  0.2245 -0.5605
14620TIP3    H165275   5.161   4.879  16.941  0.7521 -1.2024 -0.3640
14620TIP3    H265276   5.186   4.938  17.078 -1.5415  2.4268 -1.3507
14621TIP3   OH265277   2.633   5.734   3.127  0.3309  0.2666 -0.0288
14621TIP3    H165278   2.715   5.779   3.145 -0.4760  0.6908  3.1885
14621TIP3    H265279   2.648   5.644   3.157 -0.0090 -0.0076 -0.6545
14622TIP3   OH265280   0.063   5.815  11.862 -0.4905 -0.2800 -0.2679
14622TIP3    H165281   0.149   5.822  11.821  0.0287 -1.5291  0.5444
14622TIP3    H265282   0.018   5.748  11.812 -0.2035 -1.1221  0.5608
14623TIP3   OH265283   5.807   0.704   5.323 -0.0248  0.0995  0.5670
14623TIP3    H165284   5.738   0.770   5.319 -0.0179  0.0900  0.2374
14623TIP3    H265285   5.850   0.710   5.238 -1.0336 -1.4093 -0.0921
14624TIP3   OH265286   2.038   3.135  16.261 -0.1400 -0.2561 -0.3239
14624TIP3    H165287   1.978   3.107  16.192 -0.2299 -0.4686 -0.1615
14624TIP3    H265288   1.983   3.179  16.325 -0.1162 -0.4078 -0.1984
14625TIP3   OH265289   3.247   5.014  16.392  0.2269 -0.4610  1.2300
14625TIP3    H165290   3.277   4.928  16.422  2.0110  0.0381  0.9889
14625TIP3    H265291   3.328   5.064  16.378 -0.6125  0.3154 -1.5025
14626TIP3   OH265292   1.582   1.877  12.391 -0.5996  0.0445 -0.0957
14626TIP3    H165293   1.490   1.902  12.388 -0.6769 -0.1416  0.5279
14626TIP3    H265294   1.583   1.784  12.368 -0.4281  0.3368 -1.3315
14627TIP3   OH265295   2.177   0.778  14.585  0.2043 -0.8695  0.0880
14627TIP3    H165296   2.249   0.722  14.615  0.5428 -1.6346 -2.0005
14627TIP3    H265297   2.200   0.800  14.495 -3.0050 -2.5489 -1.2908
14628TIP3   OH265298   5.884   3.842   5.577  0.1930 -0.0247  0.7122
14628TIP3    H165299   5.884   3.818   5.485  0.1995  0.1890  0.6564
14628TIP3    H265300   5.797   3.879   5.592 -1.1350 -3.1730  1.6076
14629TIP3   OH265301   5.485   0.989  11.163 -0.5135 -0.0599 -0.0869
14629TIP3    H165302   5.499   0.899  11.135 -1.1805 -0.4886  0.9165
14629TIP3    H265303   5.573   1.022  11.184 -0.2756 -0.4912 -0.3997
14630TIP3   OH265304   5.737   6.667   1.356 -0.2528 -0.2405  0.2381
14630TIP3    H165305   5.667   6.626   1.407  0.6339 -0.9250  0.9676
14630TIP3    H265306   5.814   6.660   1.413  0.1794  1.4865 -0.0859
14631TIP3   OH265307   5.014   4.842  16.702 -0.8560 -0.5475  0.9253
14631TIP3    H165308   5.005   4.841  16.607 -2.0660  1.4023  0.9725
14631TIP3    H265309   5.068   4.919  16.719  1.3182 -2.1454  1.7480
14632TIP3   OH265310   1.094   3.314   2.462 -0.1938 -0.2890 -0.3882
14632TIP3    H165311   1.163   3.376   2.438  0.1612 -0.4843  0.1062
14632TIP3    H265312   1.055   3.351   2.541 -1.6136  0.5503 -1.4376
14633TIP3   OH265313   3.193   2.239  16.780 -0.4391 -0.6756 -0.3903
14633TIP3    H165314   3.131   2.209  16.846 -1.5904  0.2147 -1.0277
14633TIP3    H265315   3.150   2.221  16.696 -0.0196  0.3015 -0.8342
14634TIP3   OH265316   6.206   5.527   1.777 -0.3414 -0.0453 -0.1493
14634TIP3    H165317   6.247   5.531   1.863 -0.4500 -0.8186 -0.0589
14634TIP3    H265318   6.145   5.454   1.782  0.2037 -0.5852 -1.1182
14635TIP3   OH265319   4.789   5.556  12.282 -0.0620 -0.4478  0.2215
14635TIP3    H165320   4.753   5.632  12.236  1.0174 -1.0890 -1.8338
14635TIP3    H265321   4.740   5.481  12.248  0.7189 -0.9325  0.1284
14636TIP3   OH265322   1.755   6.423  14.411 -0.1099 -0.1307 -0.2830
14636TIP3    H165323   1.805   6.415  14.330  1.0855 -1.3548  0.5349
14636TIP3    H265324   1.666   6.399  14.387  0.4520 -1.5911 -1.0358
14637TIP3   OH265325   2.232   3.351  16.519  0.1118  0.0242 -0.0181
14637TIP3    H165326   2.258   3.261  16.500 -1.3842 -0.6159  0.7276
14637TIP3    H265327   2.311   3.392  16.554  1.0739 -0.6965 -1.2695
14638TIP3   OH265328   4.686   4.275   4.352  0.5339  0.1347  0.0920
14638TIP3    H165329   4.756   4.235   4.404  0.3251 -0.8045 -0.3457
14638TIP3    H265330   4.731   4.311   4.276  0.4221 -1.4260 -0.7390
14639TIP3   OH265331   4.128   6.218   0.306  0.1082 -0.9599 -0.7024
14639TIP3    H165332   4.218   6.191   0.323  0.5699 -0.4858 -2.3280
14639TIP3    H265333   4.135   6.298   0.255 -1.2342 -1.2685 -1.4098
14640TIP3   OH265334   4.644   1.409  14.582 -0.1995 -0.4041  0.8888
14640TIP3    H165335   4.669   1.325  14.621 -1.2143 -0.6890  0.9619
14640TIP3    H265336   4.656   1.473  14.652  2.3757 -0.1552  0.2895
14641TIP3   OH265337   5.350   3.630   4.531  0.5199 -0.2374 -0.7519
14641TIP3    H165338   5.427   3.660   4.581  0.8762  0.3524 -1.6281
14641TIP3    H265339   5.287   3.604   4.598  1.6727 -1.2699  0.0037
14642TIP3   OH265340   0.834   1.418  12.227 -0.0047 -0.2366 -0.0957
14642TIP3    H165341   0.808   1.344  12.172  1.8461 -1.8818  1.1239
14642TIP3    H265342   0.928   1.426  12.214 -0.0107  1.2247  0.6241
14643TIP3   OH265343   3.666   0.642  17.295 -0.2789  0.6545 -0.2395
14643TIP3    H165344   3.634   0.602  17.214 -0.2050 -1.5456  0.7584
14643TIP3    H265345   3.759   0.658  17.279 -0.4930  1.2395 -0.9483
14644TIP3   OH265346   2.327   6.696  16.140  0.3675  0.0173  0.1432
14644TIP3    H165347   2.338   6.781  16.096  0.6778  0.1556  0.4824
14644TIP3    H265348   2.294   6.638  16.072 -0.6798  0.6213  0.1001
14645TIP3   OH265349   6.763   2.844   1.540 -0.0749 -0.6059  0.3306
14645TIP3    H165350   6.745   2.820   1.449 -1.5973 -0.3069  0.5168
14645TIP3    H265351   6.858   2.845   1.546  0.0920  0.4940 -1.5647
14646TIP3   OH265352   5.778   1.029   1.239 -0.5679 -0.6285  0.3082
14646TIP3    H165353   5.782   1.062   1.329  0.1814  2.0425 -0.6097
14646TIP3    H265354   5.801   0.936   1.246  0.5033 -0.2497  2.7386
14647TIP3   OH265355   2.715   1.144   5.785  0.2612  0.5441 -0.7079
14647TIP3    H165356   2.653   1.086   5.741  0.2007  0.8256 -0.9909
14647TIP3    H265357   2.801   1.106   5.765  0.2453  0.7732 -1.2162
14648TIP3   OH265358   1.062   4.210   2.727 -0.2461 -0.2790  0.4100
14648TIP3    H165359   1.086   4.164   2.647 -0.6546  1.0833 -0.5164
14648TIP3    H265360   1.139   4.263   2.749 -0.2600 -0.3882  0.7318
14649TIP3   OH265361   6.334   3.454   5.439  1.2494  0.0828 -0.5852
14649TIP3    H165362   6.333   3.545   5.467  0.8274 -0.2879  0.6537
14649TIP3    H265363   6.260   3.447   5.379 -1.3985 -0.3431  2.4751
14650TIP3   OH265364   1.534   0.998  16.929 -0.1449  0.1542  0.3259
14650TIP3    H165365   1.513   1.044  17.011 -1.9461 -0.1032  0.0531
14650TIP3    H265366   1.452   1.000  16.879  0.3650 -1.4172 -0.6346
14651TIP3   OH265367   0.646   1.755   4.795  0.1039 -0.2038 -0.3385
14651TIP3    H165368   0.708   1.751   4.723  1.0552 -1.9783  0.5066
14651TIP3    H265369   0.587   1.681   4.780  0.0788 -0.3604  0.4642
14652TIP3   OH265370   5.734   3.232   2.340 -0.0038  0.2189  0.2707
14652TIP3    H165371   5.716   3.139   2.351  0.8889 -0.5096 -3.0991
14652TIP3    H265372   5.826   3.241   2.363  0.5380 -0.2842 -1.5188
14653TIP3   OH265373   4.346   0.162   5.359 -0.1819 -0.1039 -0.5479
14653TIP3    H165374   4.358   0.117   5.275 -3.3693 -0.7904 -0.7557
14653TIP3    H265375   4.313   0.248   5.335  1.4635  0.7300  0.0044
14654TIP3   OH265376   1.006   3.360   1.858  0.2106  0.4213  0.3381
14654TIP3    H165377   0.931   3.419   1.850 -0.1333 -0.1164 -0.6134
14654TIP3    H265378   1.080   3.418   1.876 -0.2898  1.0418  0.4490
14655TIP3   OH265379   0.859   1.785  14.756 -0.1181 -0.1547 -0.5625
14655TIP3    H165380   0.796   1.748  14.817 -1.3111  1.6707 -0.6253
14655TIP3    H265381   0.843   1.738  14.674 -0.3010 -0.7788 -0.1798
14656TIP3   OH265382   0.568   0.068  15.269 -0.3889 -0.0744  0.1327
14656TIP3    H165383   0.610   0.076  15.355  0.0830 -0.8781 -0.0092
14656TIP3    H265384   0.606  -0.011  15.231 -0.2646  0.5027 -1.0025
14657TIP3   OH265385   2.911   0.309   4.189  0.3232  0.7373  0.1556
14657TIP3    H165386   2.981   0.261   4.233  1.1759  1.3539 -0.5163
14657TIP3    H265387   2.921   0.399   4.218  0.4523  1.0181 -0.7529
14658TIP3   OH265388   1.744   0.020   4.484 -0.3059  0.5999  0.5246
14658TIP3    H165389   1.741  -0.033   4.564  0.1210 -2.4650 -1.3099
14658TIP3    H265390   1.658   0.008   4.445  0.2705  0.0141 -0.6196
14659TIP3   OH265391   0.169   5.690   2.780  0.4594  0.4223 -0.3217
14659TIP3    H165392   0.114   5.639   2.839 -0.4725  1.1469 -0.5309
14659TIP3    H265393   0.258   5.657   2.795  0.2763  0.6513  1.5640
14660TIP3   OH265394   4.373   4.075  14.144 -0.4863 -0.0740  0.2149
14660TIP3    H165395   4.334   4.083  14.057 -0.0054 -1.6792 -0.1701
14660TIP3    H265396   4.325   4.139  14.197  0.9410  2.8023 -1.7596
14661TIP3   OH265397   0.507   2.819   4.074  0.5496  0.2592 -0.3858
14661TIP3    H165398   0.422   2.861   4.058 -0.1072 -0.7341  0.3488
14661TIP3    H265399   0.547   2.873   4.142 -0.0062  0.0920  0.0894
14662TIP3   OH265400   6.761   6.047   2.833 -0.2268  0.2486 -0.3160
14662TIP3    H165401   6.814   6.058   2.912 -1.1343  2.4156  0.0671
14662TIP3    H265402   6.671   6.042   2.866 -0.4323 -2.0584 -1.0497
14663TIP3   OH265403   2.807   3.240   2.714  0.1512  0.4891 -0.7657
14663TIP3    H165404   2.871   3.309   2.733  0.9702 -0.1540 -1.1215
14663TIP3    H265405   2.833   3.206   2.628  0.8877 -1.4676  0.1753
14664TIP3   OH265406   3.356   0.714  10.916 -0.6739  0.2194  0.1446
14664TIP3    H165407   3.298   0.667  10.976  1.3200 -0.6416  1.5021
14664TIP3    H265408   3.391   0.646  10.858  1.5343  0.0508  1.5423
14665TIP3   OH265409   1.019   3.164  15.995  0.5662  0.0237 -0.2720
14665TIP3    H165410   0.981   3.077  15.984 -1.3023  0.7497  0.0783
14665TIP3    H265411   0.945   3.220  16.019  2.0902  1.2524  1.9833
14666TIP3   OH265412   5.316   6.603   5.671 -0.5088  0.1953 -0.4074
14666TIP3    H165413   5.291   6.515   5.700  2.1055 -0.8728 -1.1440
14666TIP3    H265414   5.391   6.626   5.726 -1.3679  2.1503  0.0046
14667TIP3   OH265415   1.309   2.699   4.675  0.8167 -0.3321 -0.2070
14667TIP3    H165416   1.272   2.663   4.594 -0.0759 -0.6513  0.3202
14667TIP3    H265417   1.246   2.673   4.743  1.8493 -0.5840  0.6766
14668TIP3   OH265418   3.408   6.546  11.368 -0.0729  0.7408  0.3750
14668TIP3    H165419   3.396   6.579  11.456  0.4057  0.0962  0.6936
14668TIP3    H265420   3.492   6.583  11.339 -0.3325  1.1281  0.0993
14669TIP3   OH265421   3.840   0.306  15.368 -0.4042 -0.4042 -0.2144
14669TIP3    H165422   3.778   0.332  15.301 -0.3040  0.9403  0.1966
14669TIP3    H265423   3.792   0.243  15.422 -0.7023 -0.9706 -1.1102
14670TIP3   OH265424   1.675   3.705  16.470  0.8544 -0.4932 -0.1755
14670TIP3    H165425   1.762   3.667  16.461  1.4900  0.3770  1.9025
14670TIP3    H265426   1.625   3.640  16.518  0.5200 -0.7191 -0.8146
14671TIP3   OH265427   0.841   4.518  16.491  0.6030  0.4771 -0.1664
14671TIP3    H165428   0.765   4.462  16.473  1.5269 -0.3781 -1.6137
14671TIP3    H265429   0.803   4.602  16.517 -0.8488  0.0686 -0.8656
14672TIP3   OH265430   0.400   5.554  13.659  0.5147 -0.3911  0.1587
14672TIP3    H165431   0.369   5.633  13.705 -0.6032 -1.2728  0.9971
14672TIP3    H265432   0.416   5.583  13.570 -0.5054  0.6692  0.2912
14673TIP3   OH265433   5.312   1.145  16.905 -0.7083  0.3721  0.3091
14673TIP3    H165434   5.254   1.219  16.923  0.8795  2.0573 -1.1088
14673TIP3    H265435   5.275   1.104  16.827 -0.5134  0.8874 -0.0599
14674TIP3   OH265436   2.266   5.625   0.811 -0.0617 -0.0566 -0.3162
14674TIP3    H165437   2.199   5.558   0.798  0.8968 -1.4951  1.6715
14674TIP3    H265438   2.348   5.577   0.812  0.6088  1.0145  1.9039
14675TIP3   OH265439   6.736   4.200   4.271 -0.5398  0.8427 -0.1451
14675TIP3    H165440   6.793   4.243   4.207  2.3027  0.2368  1.8349
14675TIP3    H265441   6.714   4.268   4.334 -0.0363  0.5381  0.3672
14676TIP3   OH265442   4.161   3.937  15.946  0.2061  0.1368  0.2756
14676TIP3    H165443   4.109   3.964  15.871  2.0490 -0.5585 -1.3296
14676TIP3    H265444   4.115   3.974  16.022 -2.3136 -0.0279 -1.0506
14677TIP3   OH265445   0.405   3.682   0.555  0.5514 -0.1727  0.4588
14677TIP3    H165446   0.310   3.690   0.568  0.0909 -1.3913 -1.6266
14677TIP3    H265447   0.426   3.594   0.586  0.9913  0.0468  0.7932
14678TIP3   OH265448   0.664   1.309   1.440 -0.7260 -0.3674 -0.5208
14678TIP3    H165449   0.596   1.327   1.374 -1.3915  0.7422  0.4156
14678TIP3    H265450   0.632   1.354   1.519  0.4981 -0.8940  0.2932
14679TIP3   OH265451   4.703   1.869  13.572  0.8008 -0.1126  0.0130
14679TIP3    H165452   4.629   1.887  13.514  1.6518 -1.1366 -1.4614
14679TIP3    H265453   4.769   1.935  13.549  0.6278  0.3659  0.8387
14680TIP3   OH265454   1.385   5.644  16.442 -0.1429 -0.0665 -0.3334
14680TIP3    H165455   1.407   5.551  16.438  1.3194  0.2165  0.5982
14680TIP3    H265456   1.459   5.687  16.400  0.9665  0.8929  2.4146
14681TIP3   OH265457   4.626   2.474  15.941 -0.0968 -0.3590  0.1734
14681TIP3    H165458   4.534   2.485  15.915 -0.0234  0.9851  0.3846
14681TIP3    H265459   4.660   2.408  15.881 -1.2783 -1.1110  0.2910
14682TIP3   OH265460   3.375   5.007  14.859 -0.0932  0.2838  0.4244
14682TIP3    H165461   3.417   5.093  14.864  2.6610 -0.8637 -0.9020
14682TIP3    H265462   3.436   4.948  14.904  0.0483 -1.5615 -1.9636
14683TIP3   OH265463   4.819   1.809  15.332  0.2826 -0.1051  0.1186
14683TIP3    H165464   4.725   1.819  15.319  0.2533  0.1134  0.4867
14683TIP3    H265465   4.831   1.811  15.427  0.5268 -1.3351  0.1431
14684TIP3   OH265466   4.507   3.426   6.771 -0.1891 -0.7097 -0.6913
14684TIP3    H165467   4.525   3.416   6.677  2.3580  0.6351 -0.4541
14684TIP3    H265468   4.594   3.434   6.811 -1.0833 -3.3827  2.1239
14685TIP3   OH265469   1.515   6.344  14.275 -0.1626 -0.3711 -0.3534
14685TIP3    H165470   1.436   6.292  14.293  0.3265 -1.1879 -0.4793
14685TIP3    H265471   1.500   6.380  14.187 -0.2632 -0.7833 -0.5091
14686TIP3   OH265472   0.107   3.220  10.531  0.0388  0.3941  0.4216
14686TIP3    H165473   0.086   3.132  10.499  0.9202  0.5820 -0.7452
14686TIP3    H265474   0.042   3.276  10.488 -1.8899  0.1417  2.7826
14687TIP3   OH265475   3.536   5.460  13.346 -0.0398 -0.6356 -0.2970
14687TIP3    H165476   3.594   5.535  13.339  0.7110 -0.7165  3.2024
14687TIP3    H265477   3.450   5.493  13.322  0.7823  0.4995 -1.7911
14688TIP3   OH265478   2.603   2.465  17.207  0.7458 -0.4141  0.1733
14688TIP3    H165479   2.526   2.411  17.228  1.0763 -1.3070 -0.7918
14688TIP3    H265480   2.597   2.540  17.266 -1.0311 -0.3103 -0.0823
14689TIP3   OH265481   6.283   6.312  15.385 -0.4634  0.1554 -0.4346
14689TIP3    H165482   6.214   6.246  15.396 -0.2547  0.0313  0.1449
14689TIP3    H265483   6.265   6.351  15.300  0.1897 -1.5795 -1.4190
14690TIP3   OH265484   0.429   1.877  16.800  0.8416 -0.3703 -0.4964
14690TIP3    H165485   0.490   1.938  16.842 -1.1396  1.2032  0.2660
14690TIP3    H265486   0.432   1.798  16.853  0.1546  0.7192  1.2318
14691TIP3   OH265487   6.069   6.759   2.010  0.5413 -0.1437  0.0732
14691TIP3    H165488   6.065   6.844   1.965  1.6283 -0.0601  0.1168
14691TIP3    H265489   5.984   6.718   1.990  0.7384  0.1545 -1.5224
14692TIP3   OH265490   1.047   1.343  13.577  0.4307  0.9799  0.5648
14692TIP3    H165491   1.024   1.284  13.648 -0.9523  0.7510 -0.0291
14692TIP3    H265492   1.060   1.428  13.619 -2.3488  1.3149  0.9327
14693TIP3   OH265493   4.200   1.241   4.150 -0.0797 -0.4392 -0.2255
14693TIP3    H165494   4.272   1.220   4.091  0.4513 -0.5089  0.4343
14693TIP3    H265495   4.221   1.328   4.183 -0.7177 -0.1178 -0.6395
14694TIP3   OH265496   3.557   5.906  13.819  0.3731  0.0937 -0.4751
14694TIP3    H165497   3.607   5.967  13.765  2.6685 -2.5701 -1.6020
14694TIP3    H265498   3.603   5.904  13.902 -0.1171  0.3935 -0.1919
14695TIP3   OH265499   1.814   2.936  14.839 -0.2383  0.2971 -0.5404
14695TIP3    H165500   1.761   2.912  14.763 -0.1546 -0.8611 -0.2504
14695TIP3    H265501   1.895   2.970  14.802  0.0982 -0.9452 -0.9839
14696TIP3   OH265502   5.289   1.998  16.252  0.6345 -0.0020  0.2505
14696TIP3    H165503   5.197   2.004  16.228  0.2664 -0.3768  1.4630
14696TIP3    H265504   5.333   1.967  16.173 -0.1853  0.6922 -0.5026
14697TIP3   OH265505   2.994   1.708  12.926  0.7352  0.1854  0.8724
14697TIP3    H165506   2.991   1.630  12.980  0.7969 -0.5795 -0.1979
14697TIP3    H265507   3.072   1.696  12.871  1.6712  1.7478  1.7638
14698TIP3   OH265508   3.947   6.614  14.190  0.2893  0.0483 -0.2329
14698TIP3    H165509   3.934   6.700  14.149 -0.7982 -0.9490 -2.1182
14698TIP3    H265510   4.004   6.568  14.130 -2.4663 -1.9523 -1.5443
14699TIP3   OH265511   4.706   6.118  16.008 -0.0053 -1.1181 -0.2195
14699TIP3    H165512   4.662   6.190  15.962  0.4832 -1.6207 -1.5497
14699TIP3    H265513   4.757   6.075  15.939  1.1958 -1.5922  0.9319
14700TIP3   OH265514   0.860   5.645  14.105  0.5245  0.0220  0.0700
14700TIP3    H165515   0.863   5.658  14.010  0.1782  1.2613  0.2015
14700TIP3    H265516   0.837   5.553  14.117 -0.3180  0.0727 -1.0571
14701TIP3   OH265517   4.091   6.471   3.586  0.3962 -0.0842 -0.1453
14701TIP3    H165518   4.067   6.465   3.493 -1.0588  0.9388  0.1427
14701TIP3    H265519   4.030   6.412   3.630  1.0686 -0.5473  0.1897
14702TIP3   OH265520   6.654   2.671  13.820  0.3571  0.0251 -0.1787
14702TIP3    H165521   6.595   2.625  13.879  1.7096 -1.6997 -0.0593
14702TIP3    H265522   6.732   2.615  13.817  1.2966  1.3356 -1.6515
14703TIP3   OH265523   4.369   3.795   1.541 -0.4330 -0.2904 -0.0026
14703TIP3    H165524   4.330   3.868   1.589  2.3654  0.5434  1.2156
14703TIP3    H265525   4.297   3.733   1.530 -2.6518  2.0833 -0.0529
14704TIP3   OH265526   5.750   2.706   4.658 -0.3499  0.4464  0.0062
14704TIP3    H165527   5.732   2.697   4.751  1.7414  2.2120  0.6850
14704TIP3    H265528   5.792   2.624   4.633 -3.4202 -1.2236 -0.1864
14705TIP3   OH265529   3.657   2.894  12.483  0.2501  0.3528  0.7163
14705TIP3    H165530   3.655   2.901  12.578 -0.5990  2.6374  0.6063
14705TIP3    H265531   3.567   2.911  12.455  0.3836 -0.7847 -0.4779
14706TIP3   OH265532   1.767   2.177   2.248  0.8335 -0.0964  0.1560
14706TIP3    H165533   1.777   2.154   2.340  1.2806 -1.7008 -0.2665
14706TIP3    H265534   1.693   2.237   2.247  0.9182  0.0761  1.5749
14707TIP3   OH265535   4.390   1.507  14.487  0.3245 -0.0421 -0.2218
14707TIP3    H165536   4.475   1.466  14.505 -0.2207 -1.3094 -0.3783
14707TIP3    H265537   4.411   1.588  14.441  1.4858  0.2692  0.8107
14708TIP3   OH265538   2.824   4.881  17.289 -0.3167 -0.0646  0.0948
14708TIP3    H165539   2.762   4.919  17.352  0.0730  1.0839 -0.1861
14708TIP3    H265540   2.884   4.830  17.343 -0.1380  0.7021  0.6508
14709TIP3   OH265541   0.420   0.670  13.538 -0.0853  0.2394  0.1259
14709TIP3    H165542   0.421   0.575  13.531 -1.4303  0.1743  0.5183
14709TIP3    H265543   0.511   0.694  13.558  0.0406 -1.0548  1.2103
14710TIP3   OH265544   1.574   0.754   4.024  0.2846 -0.2931  0.0854
14710TIP3    H165545   1.523   0.677   4.000 -0.4617  0.0657  0.4968
14710TIP3    H265546   1.556   0.767   4.117 -0.2403  0.8540 -0.1633
14711TIP3   OH265547   0.109   6.466  16.514  0.1630  0.3836  0.2385
14711TIP3    H165548   0.021   6.503  16.519  1.0060  2.4008  1.5617
14711TIP3    H265549   0.144   6.501  16.432  0.3407  1.1190  0.6167
14712TIP3   OH265550   4.076   2.426   4.102  0.2375  0.0373 -0.1679
14712TIP3    H165551   3.984   2.413   4.124  0.4832 -0.4110  0.6154
14712TIP3    H265552   4.115   2.465   4.181  0.9265 -0.6928 -0.1335
14713TIP3   OH265553   2.939   2.461  12.689 -0.1838 -0.0839 -0.2977
14713TIP3    H165554   2.901   2.394  12.633  0.1115 -2.6214  2.3155
14713TIP3    H265555   2.864   2.507  12.726 -0.5339 -1.0919  0.2770
14714TIP3   OH265556   3.916   6.541  17.067 -0.2659 -0.1902  0.2347
14714TIP3    H165557   3.900   6.520  16.975  1.2809  0.1759 -0.1612
14714TIP3    H265558   3.846   6.497  17.115 -0.5004 -1.2646 -1.0336
14715TIP3   OH265559   5.382   2.138  11.418 -0.2338 -0.1108 -0.6371
14715TIP3    H165560   5.459   2.081  11.423  0.3683  0.7217 -0.0382
14715TIP3    H265561   5.311   2.080  11.391 -0.0062 -1.5186  1.5596
14716TIP3   OH265562   4.236   0.018   5.836 -0.0315  0.6073 -0.7173
14716TIP3    H165563   4.204   0.092   5.784  1.5921  1.3301 -0.7328
14716TIP3    H265564   4.163  -0.045   5.835 -1.4637  2.1925 -0.6912
14717TIP3   OH265565   5.353   1.244  16.393 -0.0717  0.3937  0.5232
14717TIP3    H165566   5.261   1.270  16.395  0.0135  0.8825 -0.8233
14717TIP3    H265567   5.398   1.319  16.354  0.7100 -0.3146  0.0344
14718TIP3   OH265568   5.675   3.134   1.270  0.0296  0.1164 -0.1489
14718TIP3    H165569   5.584   3.107   1.284 -0.1135  0.9676  0.6349
14718TIP3    H265570   5.678   3.163   1.179 -0.6932  0.8794  0.0574
14719TIP3   OH265571   6.342   3.884   0.098  0.0383  0.0662  0.5436
14719TIP3    H165572   6.248   3.868   0.090  0.0643 -0.3984  1.0731
14719TIP3    H265573   6.352   3.977   0.079 -0.6582  0.3271  1.3859
14720TIP3   OH265574   4.318   1.621  15.746 -0.0558  0.1439  0.2457
14720TIP3    H165575   4.334   1.570  15.667  0.4819 -2.0992  1.6965
14720TIP3    H265576   4.240   1.673  15.726  0.2061 -0.1819 -1.8077
14721TIP3   OH265577   0.060   0.274   5.039 -0.0871 -0.3681 -0.2247
14721TIP3    H165578   0.039   0.181   5.047  0.8924 -0.5270  0.6767
14721TIP3    H265579   0.153   0.280   5.059 -0.7895  1.2186  3.3868
14722TIP3   OH265580   2.708   0.509   3.102 -0.7706 -0.2843  0.1065
14722TIP3    H165581   2.784   0.554   3.140  0.7937 -1.0840 -1.9005
14722TIP3    H265582   2.746   0.449   3.037 -3.1581 -0.4565 -1.2118
14723TIP3   OH265583   1.118   1.285   6.365 -0.4248 -0.7863 -0.2474
14723TIP3    H165584   1.199   1.335   6.377 -2.0881  2.1509 -0.3998
14723TIP3    H265585   1.107   1.280   6.270  0.0146 -2.0508 -0.2543
14724TIP3   OH265586   1.104   6.649  16.918  0.6032 -0.3436  0.4408
14724TIP3    H165587   1.060   6.575  16.961  0.0086  0.3732  1.1006
14724TIP3    H265588   1.071   6.726  16.965  1.3684  0.3233 -0.1042
14725TIP3   OH265589   1.408   2.189  12.523 -0.8111 -0.5189  0.4778
14725TIP3    H165590   1.426   2.270  12.476  0.9194 -1.1640 -0.0418
14725TIP3    H265591   1.382   2.127  12.455 -1.5709 -0.5691  0.8044
14726TIP3   OH265592   0.855   2.685   1.191 -0.1397 -0.0527 -1.1833
14726TIP3    H165593   0.837   2.591   1.187  2.3365 -0.6390 -0.3823
14726TIP3    H265594   0.811   2.715   1.270 -2.5553 -0.0875 -2.4513
14727TIP3   OH265595   3.890   1.636   2.031 -0.2130 -0.4213 -0.0124
14727TIP3    H165596   3.855   1.705   1.975 -0.5509 -0.2560  0.4035
14727TIP3    H265597   3.938   1.683   2.099  0.8827 -0.6396 -0.5959
14728TIP3   OH265598   5.018   5.322   4.637  0.3729  0.1084 -0.4099
14728TIP3    H165599   5.028   5.371   4.719  1.9598  2.1621 -1.7065
14728TIP3    H265600   4.925   5.327   4.617  0.1425  0.5274  0.7211
14729TIP3   OH265601   6.273   0.770  11.731 -0.1233 -0.3942 -0.4775
14729TIP3    H165602   6.202   0.728  11.683 -0.9524  0.1243  0.2674
14729TIP3    H265603   6.250   0.863  11.731 -0.6493 -0.4679  1.6725
14730TIP3   OH265604   2.765   1.794  16.521  0.4427  0.4922 -0.9791
14730TIP3    H165605   2.745   1.726  16.586  1.3803  0.5009 -0.6581
14730TIP3    H265606   2.709   1.868  16.546  0.3043  0.2582 -0.5830
14731TIP3   OH265607   6.122   3.029  17.077  0.1321  0.1851 -0.5110
14731TIP3    H165608   6.131   2.941  17.116 -0.0189  0.2505 -0.3250
14731TIP3    H265609   6.028   3.045  17.077  0.2170  0.7114  0.2733
14732TIP3   OH265610   4.152   4.671   4.533 -0.5648 -0.5244  0.1975
14732TIP3    H165611   4.065   4.700   4.504 -0.5719 -1.1155 -0.4016
14732TIP3    H265612   4.180   4.737   4.596 -1.1920 -0.0063 -0.0611
14733TIP3   OH265613   1.085   3.175  10.904  0.3254  0.1234  0.2421
14733TIP3    H165614   1.072   3.081  10.898 -1.4184  0.3229  0.2471
14733TIP3    H265615   1.112   3.202  10.816 -3.9682  0.1940 -1.2992
14734TIP3   OH265616   6.502   5.868   2.772  0.0033  0.0650  0.1975
14734TIP3    H165617   6.453   5.904   2.846 -0.1422 -0.5335  0.3986
14734TIP3    H265618   6.435   5.851   2.705 -0.0991 -0.8418  0.5070
14735TIP3   OH265619   4.170   6.415  13.560  0.3726 -0.2341  0.5406
14735TIP3    H165620   4.183   6.497  13.513 -0.0475 -0.6324 -0.2906
14735TIP3    H265621   4.165   6.348  13.492 -0.2126 -0.8329  1.1444
14736TIP3   OH265622   6.260   3.713  13.736  0.0566 -0.3855 -0.1060
14736TIP3    H165623   6.181   3.764  13.721  0.5417  0.5812  0.5207
14736TIP3    H265624   6.320   3.740  13.667 -0.0614 -0.9445 -0.4376
14737TIP3   OH265625   4.317   0.264  13.854  0.2770  0.4822 -0.2180
14737TIP3    H165626   4.253   0.194  13.867 -0.4279  1.0919 -0.3062
14737TIP3    H265627   4.401   0.225  13.878 -0.3424  0.1700  1.6101
14738TIP3   OH265628   4.558   5.317   2.418 -0.2700 -0.2974  0.1003
14738TIP3    H165629   4.610   5.246   2.381  1.3376  0.6334  0.4704
14738TIP3    H265630   4.510   5.353   2.343  0.8819 -0.1390 -0.5866
14739TIP3   OH265631   1.853   4.760   5.613  0.4984 -0.0896 -0.0763
14739TIP3    H165632   1.941   4.738   5.583  0.3574 -0.9809  0.1221
14739TIP3    H265633   1.859   4.850   5.645  1.7643 -0.7005  1.5410
14740TIP3   OH265634   0.975   4.229  12.202 -0.1029 -0.7528 -0.4253
14740TIP3    H165635   0.987   4.202  12.293  2.1830  0.4892 -0.2809
14740TIP3    H265636   1.036   4.176  12.152 -1.5117 -1.5983 -1.3392
14741TIP3   OH265637   3.175   2.155   1.870 -0.2869 -0.2550 -0.3232
14741TIP3    H165638   3.253   2.209   1.863 -0.7072  0.2941 -0.9004
14741TIP3    H265639   3.207   2.071   1.903  0.8301 -0.6729 -2.2995
14742TIP3   OH265640   1.281   4.237  12.318  0.1241  0.4618 -0.0727
14742TIP3    H165641   1.324   4.223  12.234 -0.6236 -1.1373 -0.2365
14742TIP3    H265642   1.271   4.149  12.354 -0.7207  1.0135  1.0995
14743TIP3   OH265643   1.538   2.421   2.950 -0.3264  0.1359 -0.2470
14743TIP3    H165644   1.607   2.481   2.921  1.2263 -1.7082 -0.4974
14743TIP3    H265645   1.498   2.390   2.869  0.4045 -0.9021 -0.2161
14744TIP3   OH265646   1.681   4.943  13.855 -0.2039  0.1781 -0.1502
14744TIP3    H165647   1.675   4.901  13.769  0.0011 -1.3389  0.5475
14744TIP3    H265648   1.605   4.908  13.903  0.7149 -0.4541  0.8806
14745TIP3   OH265649   5.587   0.917  13.556  0.0267 -0.3914  0.0338
14745TIP3    H165650   5.492   0.909  13.550  0.1033 -1.6861  0.4297
14745TIP3    H265651   5.616   0.930  13.465 -0.6221  1.5316  0.0476
14746TIP3   OH265652   3.774   2.286   4.087  0.0773  0.0853 -0.5156
14746TIP3    H165653   3.692   2.333   4.073 -0.6578 -1.2326 -0.7797
14746TIP3    H265654   3.753   2.221   4.153  1.4846  1.0977  0.9870
14747TIP3   OH265655   2.831   4.524  15.973  0.4144 -0.0530 -0.3151
14747TIP3    H165656   2.890   4.473  16.029  1.7219 -0.2133 -1.7758
14747TIP3    H265657   2.889   4.569  15.911 -0.9463  0.4800 -1.2608
14748TIP3   OH265658   0.628   2.703  11.324  0.4868 -0.0216 -0.1857
14748TIP3    H165659   0.585   2.771  11.272  1.3380  1.2903  0.7727
14748TIP3    H265660   0.721   2.711  11.303  1.0280  1.3474  2.3095
14749TIP3   OH265661   5.453   1.917  16.019 -0.2046 -0.2744 -0.3642
14749TIP3    H165662   5.437   1.963  15.936 -1.2895 -0.0821 -0.0660
14749TIP3    H265663   5.546   1.893  16.015 -0.3145 -0.5884 -1.7879
14750TIP3   OH265664   2.408   2.915  14.945 -0.3026  0.3852 -0.4312
14750TIP3    H165665   2.408   2.919  14.849  0.4488  0.3856 -0.4387
14750TIP3    H265666   2.489   2.869  14.967 -0.2062  0.8572  0.2224
14751TIP3   OH265667   3.901   5.998  12.672 -0.8200 -0.7821 -0.2265
14751TIP3    H165668   3.832   5.989  12.606 -0.4623  1.2572 -0.9646
14751TIP3    H265669   3.979   6.024  12.622 -0.0548 -1.0106  0.8154
14752TIP3   OH265670   4.673   0.562   0.177  0.4126 -0.0775  0.0451
14752TIP3    H165671   4.661   0.646   0.220  0.9840 -0.3973  0.8550
14752TIP3    H265672   4.651   0.497   0.244  0.7784 -0.5818 -0.3161
14753TIP3   OH265673   1.046   4.140   3.854 -0.0207 -0.2003 -0.1052
14753TIP3    H165674   1.141   4.125   3.853 -0.1867 -1.4966  1.2900
14753TIP3    H265675   1.010   4.068   3.802 -0.3222 -0.5607  0.5853
14754TIP3   OH265676   3.962   6.746   1.987 -0.5660  0.0243  0.0549
14754TIP3    H165677   3.885   6.732   1.932 -0.6733  0.1363  0.1752
14754TIP3    H265678   3.976   6.840   1.985 -0.8583  0.0838  0.6007
14755TIP3   OH265679   6.398   6.374   1.994 -0.5321  0.0268  0.4773
14755TIP3    H165680   6.332   6.309   2.016 -1.5971  0.8421 -0.2096
14755TIP3    H265681   6.369   6.453   2.040 -1.2624  0.9828 -1.5345
14756TIP3   OH265682   1.890   1.919   1.186 -0.0645 -0.0632  0.0644
14756TIP3    H165683   1.865   2.002   1.145 -1.2138 -0.5584 -0.2963
14756TIP3    H265684   1.977   1.900   1.151 -0.5374  0.1148 -1.2687
14757TIP3   OH265685   6.699   5.561   5.662 -0.2995  0.1713 -0.0330
14757TIP3    H165686   6.699   5.654   5.685 -0.2338  0.0281  0.5505
14757TIP3    H265687   6.699   5.515   5.746 -0.7688 -0.3575 -0.3157
14758TIP3   OH265688   2.888   2.138  17.289  0.2998 -0.3689  0.3182
14758TIP3    H165689   2.863   2.188  17.367  1.2239  0.4546  0.1099
14758TIP3    H265690   2.983   2.130  17.296  0.4104 -0.1569 -0.7912
14759TIP3   OH265691   6.761   1.953   0.352  0.4043 -0.0975  0.0319
14759TIP3    H165692   6.761   1.861   0.327  2.2174 -0.3260  0.6705
14759TIP3    H265693   6.827   1.959   0.421  0.5465  1.7368 -0.1970
14760TIP3   OH265694   1.286   4.144  11.232 -0.4795  0.3129 -0.2846
14760TIP3    H165695   1.360   4.084  11.223 -3.0170 -2.9184 -1.6290
14760TIP3    H265696   1.262   4.167  11.143 -1.8414  0.2279  0.0288
14761TIP3   OH265697   5.994   1.728   5.188  0.0434 -0.0306  0.0021
14761TIP3    H165698   6.044   1.776   5.121  2.3080  0.0440  1.6414
14761TIP3    H265699   6.013   1.775   5.269 -0.7136 -1.5299  1.0723
14762TIP3   OH265700   5.564   6.072   2.751 -0.6374  0.4890  0.0173
14762TIP3    H165701   5.594   6.162   2.746  0.8110  0.0007 -0.5459
14762TIP3    H265702   5.618   6.025   2.688 -1.3550 -0.7852  0.3103
14763TIP3   OH265703   6.658   0.572   6.005  0.1472 -0.3038 -0.3086
14763TIP3    H165704   6.670   0.666   5.992 -0.1310 -0.3514 -1.0100
14763TIP3    H265705   6.571   0.564   6.043  0.8513 -0.1803  1.3885
14764TIP3   OH265706   6.478   0.729   3.533 -0.5527  0.5217 -0.1254
14764TIP3    H165707   6.412   0.669   3.566 -1.5000  1.5751 -0.0533
14764TIP3    H265708   6.558   0.705   3.581 -1.2724  0.3049  1.0041
14765TIP3   OH265709   4.019   2.162  15.388 -0.1302  0.0174  0.1497
14765TIP3    H165710   4.110   2.130  15.388 -0.4134 -0.8256  0.1413
14765TIP3    H265711   3.994   2.162  15.480  0.4833  2.1122  0.3625
14766TIP3   OH265712   0.145   2.720  15.750 -0.0491 -0.5596  0.3790
14766TIP3    H165713   0.200   2.790  15.715 -1.6903  0.0443 -1.1504
14766TIP3    H265714   0.206   2.660  15.793  1.8437 -0.0672 -1.4726
14767TIP3   OH265715   3.497   1.513  16.224 -0.0556 -0.4078  0.2614
14767TIP3    H165716   3.409   1.488  16.253  0.6859 -0.3155  2.9078
14767TIP3    H265717   3.552   1.439  16.248  0.7826  0.0445 -0.2334
14768TIP3   OH265718   3.376   4.676   2.312  0.0446 -0.7324 -0.2226
14768TIP3    H165719   3.304   4.712   2.363  0.1494  1.6546 -1.6190
14768TIP3    H265720   3.398   4.745   2.249  3.7448 -1.2032  0.3056
14769TIP3   OH265721   2.396   6.167   1.406 -0.2719  0.3269 -0.6687
14769TIP3    H165722   2.328   6.170   1.474  1.1655  0.0848  0.8500
14769TIP3    H265723   2.463   6.110   1.442  0.6856  0.4345 -2.1983
14770TIP3   OH265724   2.570   4.108  12.604 -0.3568 -0.7102  0.5391
14770TIP3    H165725   2.638   4.172  12.581  0.4764 -1.5114  0.6943
14770TIP3    H265726   2.555   4.121  12.697 -1.9689  0.8929  0.0956
14771TIP3   OH265727   3.309   5.074  15.486  0.2144 -0.6899 -0.0112
14771TIP3    H165728   3.316   5.103  15.395  0.0558 -1.6872 -0.3585
14771TIP3    H265729   3.352   5.142  15.537  0.8027 -0.3908 -0.8903
14772TIP3   OH265730   6.094   3.802  16.049 -0.1257  0.0721  0.2024
14772TIP3    H165731   6.092   3.754  15.966 -2.3175 -0.7506  0.6659
14772TIP3    H265732   6.090   3.894  16.024 -3.2972 -0.2064 -0.6542
14773TIP3   OH265733   3.673   2.608  11.307 -0.3437  0.3827  0.6943
14773TIP3    H165734   3.764   2.606  11.338 -0.2904  1.1549  0.5954
14773TIP3    H265735   3.676   2.562  11.223  0.0860  1.0095  0.3614
14774TIP3   OH265736   4.894   3.716   1.989  0.0699  0.2045 -0.2987
14774TIP3    H165737   4.940   3.783   1.939 -1.0187 -0.9035 -2.9772
14774TIP3    H265738   4.801   3.734   1.974 -0.2936 -0.4653  0.9799
14775TIP3   OH265739   2.970   4.348  16.117 -0.1059  0.1616  0.8767
14775TIP3    H165740   3.054   4.320  16.080 -0.1766  1.9677 -0.7696
14775TIP3    H265741   2.921   4.266  16.127  1.0239 -0.7041 -0.2639
14776TIP3   OH265742   4.253   3.370   3.020 -0.2765 -0.1963  0.5201
14776TIP3    H165743   4.333   3.383   3.072 -0.5756  0.0876  0.9210
14776TIP3    H265744   4.183   3.363   3.086 -0.4881 -1.2226  0.2138
14777TIP3   OH265745   0.803   5.858  14.386  0.0650  0.1398  0.0049
14777TIP3    H165746   0.710   5.863  14.411  0.0563  1.8758 -0.2349
14777TIP3    H265747   0.803   5.864  14.291  0.4678  2.1261  0.0812
14778TIP3   OH265748   0.588   6.525  14.206  0.3959 -0.1447  0.0243
14778TIP3    H165749   0.547   6.611  14.209 -1.7575 -1.0904  3.5495
14778TIP3    H265750   0.609   6.504  14.297  2.9202 -2.4891 -0.9353
14779TIP3   OH265751   6.490   6.660   3.382  0.1137  0.9482  0.2818
14779TIP3    H165752   6.460   6.736   3.432 -0.2947  1.0519 -0.1154
14779TIP3    H265753   6.426   6.650   3.312 -0.2694 -0.2235  0.7712
14780TIP3   OH265754   1.359   3.598   1.143  0.1982  0.5020  0.0804
14780TIP3    H165755   1.446   3.586   1.105 -0.3583 -0.9750 -0.8169
14780TIP3    H265756   1.299   3.562   1.077 -1.1119  1.5247  0.6606
14781TIP3   OH265757   3.393   2.476  14.936 -0.0366  0.3050  0.3243
14781TIP3    H165758   3.363   2.473  14.845 -0.7034  0.0523  0.5437
14781TIP3    H265759   3.332   2.536  14.979  0.0024  0.0751  0.7034
14782TIP3   OH265760   2.562   4.727   6.549  0.8667  0.0192 -0.5079
14782TIP3    H165761   2.493   4.680   6.503 -1.0936  1.2461  0.9691
14782TIP3    H265762   2.642   4.709   6.499 -0.5011 -1.4770 -2.2985
14783TIP3   OH265763   2.660   4.805   4.722  0.3928 -0.3668  0.0294
14783TIP3    H165764   2.708   4.727   4.692  1.3504  0.7652 -1.5435
14783TIP3    H265765   2.653   4.860   4.644 -0.7816  0.8797  0.9701
14784TIP3   OH265766   1.302   1.067   6.078 -0.5107 -0.2963  0.2110
14784TIP3    H165767   1.316   0.985   6.124 -0.4666  0.6383  1.9241
14784TIP3    H265768   1.375   1.123   6.105  0.1684 -0.0494 -1.8873
14785TIP3   OH265769   5.232   1.918  13.722  0.1053 -0.4738  0.8187
14785TIP3    H165770   5.139   1.897  13.734 -0.3135  0.2680 -0.8883
14785TIP3    H265771   5.278   1.839  13.750 -1.1437 -1.5293  0.0153
14786TIP3   OH265772   5.567   0.196   0.287  0.1845  0.4382  0.0728
14786TIP3    H165773   5.521   0.267   0.332 -1.7436  1.2246 -2.8867
14786TIP3    H265774   5.520   0.184   0.205  1.9066 -2.6944 -0.6281
14787TIP3   OH265775   4.100   3.144   3.710  0.2061  0.3504  0.1980
14787TIP3    H165776   4.030   3.207   3.728 -0.6449 -0.3371 -0.6535
14787TIP3    H265777   4.079   3.068   3.763  0.6707  0.3782  0.4317
14788TIP3   OH265778   5.074   3.178  13.142 -0.6620  0.1440  0.1413
14788TIP3    H165779   5.022   3.195  13.221  0.0241  0.4611  0.5343
14788TIP3    H265780   5.163   3.203  13.166 -0.4004  0.0173 -0.6621
14789TIP3   OH265781   6.107   5.784   0.462 -0.3523 -0.2083 -0.4759
14789TIP3    H165782   6.201   5.768   0.471 -0.3181 -1.0677 -1.9920
14789TIP3    H265783   6.068   5.735   0.534  0.2727 -0.9957 -0.6545
14790TIP3   OH265784   4.395   3.347   0.766  0.0167  0.2213  0.0973
14790TIP3    H165785   4.389   3.443   0.758 -0.0033  0.1753 -0.4553
14790TIP3    H265786   4.315   3.315   0.726  0.6810 -0.0885 -1.0035
14791TIP3   OH265787   4.909   5.380  11.998  0.1393 -0.6246 -0.4364
14791TIP3    H165788   4.832   5.377  11.941  0.0243 -1.7828 -0.2409
14791TIP3    H265789   4.891   5.317  12.067  0.8704 -0.2259  0.1389
14792TIP3   OH265790   2.722   2.858   1.546 -0.5128  0.9172  0.3225
14792TIP3    H165791   2.703   2.829   1.635 -0.1498  1.7990  0.7024
14792TIP3    H265792   2.817   2.868   1.544 -0.2448 -1.3168 -0.8788
14793TIP3   OH265793   6.174   3.287  17.219 -0.2724  0.0806 -0.4101
14793TIP3    H165794   6.202   3.228  17.149  0.0692  0.8864 -0.9687
14793TIP3    H265795   6.140   3.229  17.287 -0.4058 -0.7340 -1.1487
14794TIP3   OH265796   2.456   2.901   4.551  1.0056  0.2690  0.0253
14794TIP3    H165797   2.383   2.920   4.493 -1.0070 -0.5709  2.1099
14794TIP3    H265798   2.527   2.957   4.520 -1.1578  2.7659 -0.8053
14795TIP3   OH265799   1.281   2.348  13.011 -0.1807  0.1168  0.1958
14795TIP3    H165800   1.201   2.317  12.969  0.4930 -0.2834 -0.8269
14795TIP3    H265801   1.352   2.312  12.958  0.6878  3.8126 -1.5045
14796TIP3   OH265802   5.952   0.092  15.220 -0.0521 -0.6652  0.0449
14796TIP3    H165803   5.873   0.097  15.274  0.3815  2.0287  0.5992
14796TIP3    H265804   5.922   0.056  15.137 -2.3779  1.9737 -0.4381
14797TIP3   OH265805   6.357   5.785   5.634 -0.5674  0.2506  0.2025
14797TIP3    H165806   6.368   5.733   5.555 -1.0214 -1.8216  1.4458
14797TIP3    H265807   6.263   5.801   5.640 -0.6665 -0.4833  0.8240
14798TIP3   OH265808   4.944   5.833   0.519 -0.1812  0.4729  0.0131
14798TIP3    H165809   4.939   5.788   0.604  3.3970  1.7056  1.0498
14798TIP3    H265810   4.995   5.912   0.537 -0.6051  1.5702 -3.0403
14799TIP3   OH265811   4.228   3.200   1.690 -0.4316  0.2338  0.0376
14799TIP3    H165812   4.245   3.280   1.739 -1.9459 -0.2615  1.4522
14799TIP3    H265813   4.273   3.213   1.606 -0.9985  2.7362  0.0517
14800TIP3   OH265814   3.462   4.156  10.608 -0.1788 -0.3478  0.1075
14800TIP3    H165815   3.407   4.079  10.625  0.2712 -0.7819 -0.3914
14800TIP3    H265816   3.528   4.125  10.546  0.6504  0.1645  0.7182
14801TIP3   OH265817   4.113   0.178   1.473 -0.2359 -0.6683 -0.1321
14801TIP3    H165818   4.066   0.227   1.406  1.8136 -0.7031 -1.6629
14801TIP3    H265819   4.182   0.132   1.426  4.1270  2.5754  2.3156
14802TIP3   OH265820   0.818   3.136   1.000  0.7639 -0.1535  0.4182
14802TIP3    H165821   0.855   3.160   0.915  2.3421  0.0374  1.1245
14802TIP3    H265822   0.780   3.049   0.986  2.9855 -1.1296  0.0335
14803TIP3   OH265823   4.436   0.801  16.289  0.4996  0.2718 -0.0709
14803TIP3    H165824   4.491   0.870  16.328 -0.9082 -0.0823  2.8160
14803TIP3    H265825   4.483   0.720  16.309  0.8692  0.2056 -1.1647
14804TIP3   OH265826   2.164   5.321  15.937 -0.1461 -0.0209 -0.2784
14804TIP3    H165827   2.085   5.279  15.904  0.3853 -1.2913  0.0230
14804TIP3    H265828   2.220   5.249  15.965  0.8363  0.8878  0.1681
14805TIP3   OH265829   2.287   0.218   2.721 -0.1305 -0.1877 -0.3526
14805TIP3    H165830   2.322   0.264   2.797  0.5418  1.7452 -1.7609
14805TIP3    H265831   2.330   0.132   2.722 -1.5017 -0.9353  2.4044
14806TIP3   OH265832   1.428   6.273  15.564 -0.0231  0.2060 -0.1344
14806TIP3    H165833   1.474   6.305  15.486 -0.3075 -0.0451 -0.4073
14806TIP3    H265834   1.386   6.351  15.600  0.2626  0.3576 -0.1257
14807TIP3   OH265835   6.394   3.100  17.008 -0.3464  0.2816  0.0954
14807TIP3    H165836   6.429   3.018  17.043  0.4565  0.4239 -0.3361
14807TIP3    H265837   6.299   3.088  17.007 -0.9054  1.6023  5.7452
14808TIP3   OH265838   0.564   0.461   2.509 -0.2818  0.4746  0.0397
14808TIP3    H165839   0.498   0.413   2.559  0.3814 -0.0371  0.4461
14808TIP3    H265840   0.525   0.547   2.493 -1.1481  0.0894  0.0371
14809TIP3   OH265841   1.653   4.746   2.712  0.5636 -0.5122  0.2702
14809TIP3    H165842   1.713   4.702   2.651  1.5763  0.3639  0.6044
14809TIP3    H265843   1.709   4.803   2.764 -0.6993  1.1950 -0.1480
14810TIP3   OH265844   3.399   1.703   4.907 -0.3639 -0.2632 -0.1863
14810TIP3    H165845   3.382   1.634   4.971  0.3444 -0.0656  0.2181
14810TIP3    H265846   3.483   1.741   4.933 -0.5907  0.5422 -0.5982
14811TIP3   OH265847   0.033   0.265  13.131  0.1652 -0.3875 -0.1317
14811TIP3    H165848  -0.004   0.218  13.056  0.9553  0.1790 -0.9054
14811TIP3    H265849   0.059   0.196  13.192  1.1357 -0.9656 -1.1604
14812TIP3   OH265850   4.683   2.033   4.872  0.1201 -0.1559  0.5817
14812TIP3    H165851   4.778   2.025   4.881  0.4115 -0.6326 -2.0557
14812TIP3    H265852   4.655   1.950   4.834 -1.0610  0.6648 -0.4135
14813TIP3   OH265853   0.252   5.324   2.766 -0.3695  0.5169  0.0620
14813TIP3    H165854   0.195   5.360   2.698 -1.0001  1.1545  0.9086
14813TIP3    H265855   0.314   5.268   2.718 -1.7563 -0.2717 -0.8597
14814TIP3   OH265856   4.224   4.923  10.387  0.5140  0.7720  0.1560
14814TIP3    H165857   4.249   4.830  10.381  0.3148  0.8361 -2.6628
14814TIP3    H265858   4.307   4.970  10.388  0.8119  0.7429 -4.4554
14815TIP3   OH265859   4.907   6.026   3.645  0.5701 -0.0034 -0.0252
14815TIP3    H165860   4.878   6.107   3.602 -0.3276 -0.4840 -0.3481
14815TIP3    H265861   4.956   5.980   3.579  3.2782  1.3768  0.8797
14816TIP3   OH265862   4.799   5.303  16.591 -0.0925  0.3057 -0.0434
14816TIP3    H165863   4.775   5.385  16.547  0.0316 -0.6449 -1.9681
14816TIP3    H265864   4.738   5.238  16.556  0.1342 -0.5435  1.0792
14817TIP3   OH265865   1.522   3.357   6.018 -0.2377 -0.4267 -0.0974
14817TIP3    H165866   1.426   3.349   6.019 -0.3986  1.1413  0.0921
14817TIP3    H265867   1.538   3.444   5.980  1.0970 -0.4974  0.2649
14818TIP3   OH265868   6.272   1.694   4.679 -0.3492 -0.3819 -0.1248
14818TIP3    H165869   6.251   1.632   4.748 -0.9440  0.8312  0.8232
14818TIP3    H265870   6.355   1.663   4.643 -1.0385 -2.1908 -0.2720
14819TIP3   OH265871   4.366   2.610  15.225  0.0377  0.1798 -0.3781
14819TIP3    H165872   4.390   2.536  15.169  2.7623  0.6389  0.0637
14819TIP3    H265873   4.276   2.591  15.252  0.7173 -3.1676 -0.0034
14820TIP3   OH265874   5.304   3.401   2.392  0.1635 -0.4484 -0.1453
14820TIP3    H165875   5.369   3.459   2.431  0.2690 -1.5085  1.3484
14820TIP3    H265876   5.220   3.430   2.429  0.3572 -1.9865  1.6385
14821TIP3   OH265877   3.548   2.510   2.152  0.0675  0.0646 -0.8210
14821TIP3    H165878   3.498   2.429   2.156  0.6077 -0.2260  0.7254
14821TIP3    H265879   3.489   2.572   2.109 -0.9115 -0.7525 -0.7003
14822TIP3   OH265880   1.250   2.735   3.009  0.3293  0.1383 -0.2805
14822TIP3    H165881   1.327   2.783   2.978  0.2725 -0.3681 -1.2453
14822TIP3    H265882   1.219   2.784   3.085  0.9624  0.9612 -0.5511
14823TIP3   OH265883   1.205   6.174  13.437  0.6851  0.1612  0.2034
14823TIP3    H165884   1.156   6.231  13.378 -0.2616 -0.1127  0.6928
14823TIP3    H265885   1.215   6.225  13.517 -0.9631 -0.6410  0.9711
14824TIP3   OH265886   0.078   5.457   2.613 -0.1549  0.3291  0.2367
14824TIP3    H165887   0.041   5.545   2.609  0.2004  0.4780  0.2123
14824TIP3    H265888   0.082   5.429   2.522 -0.3748  0.2412  0.2531
14825TIP3   OH265889   1.272   2.635  13.050 -0.1774  0.3492  0.2959
14825TIP3    H165890   1.303   2.544  13.046  0.6199  0.5742  1.0262
14825TIP3    H265891   1.229   2.649  12.966 -0.2592 -0.6847  0.1440
14826TIP3   OH265892   2.197   1.020   1.590  0.1687 -0.3810 -0.4393
14826TIP3    H165893   2.223   1.060   1.508 -0.4660  0.0910 -0.4138
14826TIP3    H265894   2.233   0.931   1.586 -1.0623 -0.8587 -1.8552
14827TIP3   OH265895   3.739   0.260   3.027 -0.0321  0.3787  0.3496
14827TIP3    H165896   3.674   0.209   3.075 -0.2071  0.2268 -0.0409
14827TIP3    H265897   3.823   0.220   3.049 -0.2554 -0.8146 -0.8169
14828TIP3   OH265898   0.727   2.743  17.098  0.3328  0.6979  0.2254
14828TIP3    H165899   0.634   2.767  17.109 -0.1591 -0.9133 -0.1659
14828TIP3    H265900   0.769   2.776  17.177 -0.6333  1.1913  0.5542
14829TIP3   OH265901   2.057   0.400   2.344  0.2360 -0.5489  0.2408
14829TIP3    H165902   2.046   0.430   2.254 -1.2324  1.1133  0.9107
14829TIP3    H265903   2.148   0.373   2.350  1.0729  1.6826 -1.1035
14830TIP3   OH265904   3.752   2.560  16.681  0.1892  0.0631 -0.1095
14830TIP3    H165905   3.801   2.635  16.646  1.9388 -0.8627  0.2350
14830TIP3    H265906   3.666   2.567  16.640  0.5465  1.8332 -0.6646
14831TIP3   OH265907   6.232   0.261  16.185 -0.4047 -0.2428 -0.6030
14831TIP3    H165908   6.211   0.190  16.124  1.0569  0.6881 -2.2770
14831TIP3    H265909   6.242   0.338  16.130 -1.2224  1.1469  1.0946
14832TIP3   OH265910   2.812   4.163  13.655 -0.4167 -0.5147  0.2326
14832TIP3    H165911   2.775   4.167  13.743 -1.1050 -0.0232 -0.0641
14832TIP3    H265912   2.736   4.175  13.597 -0.0471 -1.3221 -0.4374
14833TIP3   OH265913   1.869   0.517  12.527  0.1286  0.2237 -0.4631
14833TIP3    H165914   1.838   0.597  12.571  0.3844  0.1672 -0.1755
14833TIP3    H265915   1.908   0.548  12.446 -0.9159  0.2756 -0.9654
14834TIP3   OH265916   6.614   6.091   1.059 -0.8985 -0.0132 -0.3408
14834TIP3    H165917   6.589   6.085   1.151 -0.5706 -0.8078 -0.2934
14834TIP3    H265918   6.683   6.157   1.057 -3.1870  2.5652 -0.5370
14835TIP3   OH265919   0.426   0.527   1.397 -0.2212 -0.3548  0.4611
14835TIP3    H165920   0.398   0.451   1.447 -1.0475  0.1919  0.8601
14835TIP3    H265921   0.490   0.571   1.453 -0.9975  0.1471  0.9857
14836TIP3   OH265922   6.172   0.929  10.692  0.1784 -0.2994 -0.2027
14836TIP3    H165923   6.231   1.001  10.667  1.0058 -1.0556 -0.4971
14836TIP3    H265924   6.084   0.965  10.680  0.5037 -0.1824 -3.0868
14837TIP3   OH265925   0.260   2.824   5.838 -0.1761 -0.6830  0.0059
14837TIP3    H165926   0.240   2.842   5.930  0.9407 -1.1527  0.3621
14837TIP3    H265927   0.315   2.898   5.812 -2.0313  0.4477 -0.8700
14838TIP3   OH265928   2.613   6.616   4.893  0.4072  0.1363 -0.0149
14838TIP3    H165929   2.604   6.594   4.800  0.3718  1.8696 -0.4555
14838TIP3    H265930   2.703   6.592   4.915  1.0569  1.4688 -1.0487
14839TIP3   OH265931   6.639   6.543  13.300 -0.3601  0.6425  0.2877
14839TIP3    H165932   6.709   6.505  13.354 -1.4154 -2.5469 -0.3482
14839TIP3    H265933   6.680   6.555  13.214  0.7435  3.8108  1.1073
14840TIP3   OH265934   6.366   2.370   4.852  0.2641  0.1641 -0.1794
14840TIP3    H165935   6.436   2.425   4.817 -0.6543  0.6987 -1.2409
14840TIP3    H265936   6.356   2.398   4.943  0.8670  0.6361 -0.2537
14841TIP3   OH265937   2.267   2.002   4.885 -0.3876 -0.4217  0.5681
14841TIP3    H165938   2.259   2.063   4.958 -1.2426  1.0214 -0.6756
14841TIP3    H265939   2.178   1.970   4.871 -0.2094 -0.7901  0.2534
14842TIP3   OH265940   3.290   4.112   2.606 -0.2381 -0.8929 -0.2601
14842TIP3    H165941   3.232   4.177   2.567 -0.7517 -0.4023  1.2579
14842TIP3    H265942   3.314   4.054   2.533 -2.7399 -1.1909 -0.9396
14843TIP3   OH265943   6.732   2.232  15.418  0.1226 -0.4586 -0.2088
14843TIP3    H165944   6.726   2.252  15.512  0.6472  3.6824 -0.8504
14843TIP3    H265945   6.818   2.191  15.408  0.3811 -0.2610  1.0331
14844TIP3   OH265946   4.515   2.733  15.425  0.0546  0.5150  0.4473
14844TIP3    H165947   4.468   2.716  15.343  1.1958  1.1726 -0.3853
14844TIP3    H265948   4.589   2.672  15.424 -1.4064 -1.4090  2.3629
14845TIP3   OH265949   0.826   6.014   0.186 -0.2097  0.2132 -0.1208
14845TIP3    H165950   0.784   5.997   0.270 -0.1554 -0.4810 -0.2232
14845TIP3    H265951   0.874   5.933   0.167  0.4742  0.6836 -0.4086
14846TIP3   OH265952   3.690   5.094  15.593  1.0612 -0.2704 -0.2285
14846TIP3    H165953   3.710   5.134  15.508  2.3233  1.3693  0.7736
14846TIP3    H265954   3.595   5.103  15.602  0.9379 -0.2721 -1.3555
14847TIP3   OH265955   5.119   1.708  16.370  0.0686  0.3347 -0.8268
14847TIP3    H165956   5.116   1.785  16.314  1.0311  0.3964 -0.8177
14847TIP3    H265957   5.138   1.636  16.310  2.0564  0.5331 -0.5092
14848TIP3   OH265958   1.407   1.232  15.613  0.2429 -0.0590  0.0831
14848TIP3    H165959   1.417   1.317  15.572  2.4895 -1.1695 -1.9219
14848TIP3    H265960   1.351   1.248  15.689  0.7777  3.1988 -0.0862
14849TIP3   OH265961   5.447   5.866  15.203 -0.2881  0.0735 -0.1777
14849TIP3    H165962   5.478   5.790  15.252  1.2231  0.8345  0.1248
14849TIP3    H265963   5.460   5.843  15.111  1.2568  0.3591 -0.0618
14850TIP3   OH265964   1.471   6.630   4.002  0.0916  0.0127  0.3661
14850TIP3    H165965   1.456   6.549   3.955  0.1892 -0.1521  0.6151
14850TIP3    H265966   1.563   6.651   3.986 -0.0504  0.3106 -0.0621
14851TIP3   OH265967   5.946   2.371  11.751  0.1496 -0.7017 -0.2193
14851TIP3    H165968   6.025   2.416  11.781  0.9704 -1.2977 -1.3914
14851TIP3    H265969   5.894   2.358  11.830  0.4730  1.1359  0.3459
14852TIP3   OH265970   5.703   3.603  16.696 -0.3814 -0.6695 -0.4549
14852TIP3    H165971   5.624   3.566  16.655  0.8066 -0.8245 -2.7572
14852TIP3    H265972   5.759   3.527  16.713 -1.0015 -0.6602  1.9838
14853TIP3   OH265973   2.502   5.819  13.490 -0.4997 -0.1809 -0.4187
14853TIP3    H165974   2.497   5.838  13.584 -1.8877 -0.9260 -0.3204
14853TIP3    H265975   2.537   5.899  13.452  0.0901  0.1374  0.7296
14854TIP3   OH265976   2.479   5.777  11.648 -0.8425 -0.3756  0.4128
14854TIP3    H165977   2.531   5.713  11.599 -1.6783 -2.2565  1.8413
14854TIP3    H265978   2.497   5.756  11.740 -1.4958  1.1922  0.9274
14855TIP3   OH265979   4.935   4.722  15.725 -0.7642 -0.1784 -0.2211
14855TIP3    H165980   4.893   4.808  15.725 -0.3082  0.0531 -1.3808
14855TIP3    H265981   4.891   4.675  15.796 -0.6112  1.1991  0.8347
14856TIP3   OH265982   2.973   3.205  14.658 -0.4056 -0.1763  0.1570
14856TIP3    H165983   2.995   3.112  14.655 -1.3991 -0.4031 -0.5783
14856TIP3    H265984   2.881   3.207  14.686  0.1387  0.6864  2.0272
14857TIP3   OH265985   5.499   3.662  13.459  0.3396  0.0136  0.1457
14857TIP3    H165986   5.475   3.716  13.385  1.2068  0.3563  0.1075
14857TIP3    H265987   5.570   3.607  13.427 -0.0363 -0.6402  0.3971
14858TIP3   OH265988   1.583   5.099  12.818 -0.4718  0.2157 -0.7167
14858TIP3    H165989   1.551   5.184  12.787 -1.5440 -0.3416 -1.1391
14858TIP3    H265990   1.565   5.038  12.747 -0.6488 -0.5781 -0.0002
14859TIP3   OH265991   0.806   3.388  12.282  0.0253 -0.2575 -0.0995
14859TIP3    H165992   0.849   3.461  12.327  0.4441  0.5422 -1.7218
14859TIP3    H265993   0.868   3.363  12.213 -0.7695 -1.1726 -0.4981
14860TIP3   OH265994   4.140   3.974   4.687 -0.1289  0.0915 -0.1362
14860TIP3    H165995   4.101   3.982   4.600  0.0478 -0.2740 -0.2529
14860TIP3    H265996   4.152   3.880   4.698 -0.0309  0.1481  0.2328
14861TIP3   OH265997   0.286   4.399   6.496  0.0530  0.1651 -0.1630
14861TIP3    H165998   0.378   4.373   6.491 -0.2226 -0.6627 -1.1251
14861TIP3    H265999   0.280   4.451   6.577  1.6157  1.2732 -0.7269
14862TIP3   OH266000   2.740   3.332   1.749 -0.3326  0.3249  0.3685
14862TIP3    H166001   2.747   3.423   1.721 -0.4169  0.1057 -0.4131
14862TIP3    H266002   2.737   3.335   1.844 -0.1641  1.1249  0.3502
14863TIP3   OH266003   1.575   3.666   2.946  0.4497  0.5970 -0.3399
14863TIP3    H166004   1.487   3.630   2.936  0.7244 -0.4794  0.9848
14863TIP3    H266005   1.633   3.590   2.949  1.5036  1.2969 -1.6018
14864TIP3   OH266006   3.334   2.528   3.463 -0.1334  0.1575 -0.2068
14864TIP3    H166007   3.398   2.509   3.395  0.5119  0.1735  0.3921
14864TIP3    H266008   3.279   2.450   3.466  0.4266 -0.2352 -0.0826
14865TIP3   OH266009   4.591   1.723  15.551  0.3240 -0.1947 -0.6395
14865TIP3    H166010   4.555   1.750  15.466 -1.4843  0.8885  0.4076
14865TIP3    H266011   4.600   1.628  15.545  0.2220 -0.1307 -2.0396
14866TIP3   OH266012   3.939   2.018  14.776 -0.6197 -0.3234 -0.1983
14866TIP3    H166013   3.906   2.100  14.740 -0.8646 -0.0219  0.6896
14866TIP3    H266014   3.961   2.039  14.867 -1.9773 -1.5634  0.4545
14867TIP3   OH266015   6.687   1.521  13.995 -0.5057  0.3829 -0.0552
14867TIP3    H166016   6.728   1.459  14.056 -0.1290  0.4834 -0.1984
14867TIP3    H266017   6.759   1.580  13.970 -0.6078  0.2233 -0.7514
14868TIP3   OH266018   1.231   1.797  11.010  0.6426 -0.1614  0.7299
14868TIP3    H166019   1.144   1.762  10.989  0.9309 -0.0842 -0.6477
14868TIP3    H266020   1.228   1.814  11.104 -1.2875  1.1346  0.4671
14869TIP3   OH266021   2.844   4.772   1.728 -0.3116  0.2427 -0.2430
14869TIP3    H166022   2.835   4.707   1.798 -0.4549  1.1726  0.6250
14869TIP3    H266023   2.828   4.723   1.647 -2.7190 -0.3698  0.5251
14870TIP3   OH266024   4.457   4.188  16.863 -0.3168 -0.0276  0.0323
14870TIP3    H166025   4.500   4.269  16.890 -1.4620  0.6917 -0.2311
14870TIP3    H266026   4.487   4.173  16.774 -1.2843  0.9863 -0.4944
14871TIP3   OH266027   1.146   5.955  12.956 -0.3714  0.0475 -0.7223
14871TIP3    H166028   1.214   5.925  12.895  0.0426  0.2468 -0.3610
14871TIP3    H266029   1.191   6.016  13.014 -0.8395  0.1049 -0.4182
14872TIP3   OH266030   2.874   6.380  11.236 -0.4498 -0.1364 -0.7271
14872TIP3    H166031   2.840   6.296  11.204 -2.2211  0.0955  0.3740
14872TIP3    H266032   2.951   6.356  11.288 -0.9976 -1.1068 -0.3235
14873TIP3   OH266033   4.942   1.850   1.226  0.2762 -0.3100 -0.6010
14873TIP3    H166034   4.893   1.769   1.212 -0.3948 -0.1531  0.6515
14873TIP3    H266035   4.920   1.906   1.152 -1.7721 -0.1102  0.0959
14874TIP3   OH266036   4.879   5.242   0.066  0.1187 -0.2276  0.0837
14874TIP3    H166037   4.881   5.147   0.054 -2.3014 -0.4562  0.9670
14874TIP3    H266038   4.960   5.273   0.025  2.3652 -2.9010  2.0724
14875TIP3   OH266039   2.264   4.984  14.134  0.0355 -0.1193 -0.1448
14875TIP3    H166040   2.330   4.930  14.090 -0.5046 -2.0076  1.2245
14875TIP3    H266041   2.226   5.038  14.065  2.3735  0.3879 -1.1333
14876TIP3   OH266042   5.227   0.909   0.701 -0.5427 -0.3444  0.3227
14876TIP3    H166043   5.164   0.958   0.649 -0.3721  0.3485  0.7510
14876TIP3    H266044   5.277   0.976   0.748 -0.1911 -0.9204  0.7968
14877TIP3   OH266045   5.584   2.185  14.095 -0.2853  0.1117 -0.0162
14877TIP3    H166046   5.550   2.258  14.043 -0.8862  0.1206  0.3759
14877TIP3    H266047   5.582   2.110  14.036 -1.8528 -0.0893  0.2542
14878TIP3   OH266048   3.196   4.706   5.229 -0.0175  0.9504  0.5083
14878TIP3    H166049   3.249   4.713   5.149  0.7186  1.4574  1.0276
14878TIP3    H266050   3.121   4.765   5.213 -0.7639 -0.2213 -0.4649
14879TIP3   OH266051   0.988   2.699   3.856 -0.1674 -0.0423  0.5834
14879TIP3    H166052   0.979   2.604   3.845  1.9857 -0.1917 -0.5132
14879TIP3    H266053   1.035   2.709   3.939  0.3654 -0.0109  0.2851
14880TIP3   OH266054   6.417   5.334  16.108  0.1432  0.2799  0.8143
14880TIP3    H166055   6.481   5.404  16.100 -1.3573  1.7115  0.8829
14880TIP3    H266056   6.332   5.377  16.102 -0.8515 -1.4501  1.4839
14881TIP3   OH266057   6.719   2.264   5.203 -0.3154 -0.1181 -0.3192
14881TIP3    H166058   6.808   2.266   5.238 -1.1022 -1.4670  1.9780
14881TIP3    H266059   6.669   2.320   5.261 -1.1604 -0.1126 -1.0293
14882TIP3   OH266060   5.399   0.485  10.929 -0.4268  0.1446 -0.2920
14882TIP3    H166061   5.313   0.481  10.969 -0.1337  2.5832  0.7672
14882TIP3    H266062   5.385   0.457  10.838 -2.1034 -0.5091  0.1401
14883TIP3   OH266063   5.484   1.707  11.282  0.4479  0.6725 -0.3615
14883TIP3    H166064   5.428   1.631  11.298  1.9353 -0.2123  0.8579
14883TIP3    H266065   5.438   1.779  11.324 -0.6466  0.3354 -0.9341
14884TIP3   OH266066   1.235   2.013   0.298 -0.7636  0.3677  0.1268
14884TIP3    H166067   1.287   2.019   0.218 -0.4013 -0.7017  0.2677
14884TIP3    H266068   1.299   1.995   0.367 -1.2765 -0.7109  0.3399
14885TIP3   OH266069   1.695   6.128   0.519  0.1451 -0.5122  0.1588
14885TIP3    H166070   1.628   6.066   0.548  0.0728  0.3991  2.1201
14885TIP3    H266071   1.678   6.207   0.570  1.5911  0.3697 -0.6576
14886TIP3   OH266072   2.076   3.916   3.254 -0.0323 -0.0090  0.1095
14886TIP3    H166073   2.032   3.842   3.296 -0.4558  0.2357  0.1101
14886TIP3    H266074   2.004   3.968   3.217  0.2366  0.5799  0.4049
14887TIP3   OH266075   2.648   0.710  13.010  0.3858  0.6273  0.1346
14887TIP3    H166076   2.650   0.630  13.063  0.5548  0.3576 -0.2748
14887TIP3    H266077   2.726   0.704  12.954  1.6571  2.1367  1.6280
14888TIP3   OH266078   4.761   1.531  10.725  0.3399 -0.6046  0.0640
14888TIP3    H166079   4.743   1.613  10.679  0.0688 -1.4488 -1.4071
14888TIP3    H266080   4.822   1.484  10.668 -0.2769 -1.8436  0.3776
14889TIP3   OH266081   5.944   4.933   6.155 -0.2938  0.2398  0.5351
14889TIP3    H166082   5.850   4.953   6.148 -0.7261 -1.8129 -0.3586
14889TIP3    H266083   5.957   4.917   6.248 -0.7606  0.7739  0.7053
14890TIP3   OH266084   1.130   0.346   1.615  0.0187  0.3568  0.4081
14890TIP3    H166085   1.043   0.324   1.582 -0.6976  0.7301  1.9693
14890TIP3    H266086   1.169   0.261   1.637 -0.3071  0.2354  0.5314
14891TIP3   OH266087   6.716   2.440   4.321 -0.2504 -0.4760  0.3993
14891TIP3    H166088   6.736   2.346   4.330  1.2897 -0.1761  0.4440
14891TIP3    H266089   6.785   2.484   4.372 -0.3344  0.7097 -0.4715
14892TIP3   OH266090   5.966   5.539   2.030 -0.6428 -0.4955  0.0139
14892TIP3    H166091   5.888   5.573   2.073 -2.1546 -1.6917 -1.6538
14892TIP3    H266092   6.002   5.476   2.092 -0.6858  0.4189  1.0002
14893TIP3   OH266093   1.040   1.630   3.533 -0.5218  0.0985 -0.3961
14893TIP3    H166094   0.978   1.683   3.483 -1.4478 -0.3216  0.2919
14893TIP3    H266095   1.077   1.570   3.468 -0.4660  0.6668 -0.9047
14894TIP3   OH266096   2.426   5.241   3.510  0.1228  0.2280  0.1086
14894TIP3    H166097   2.336   5.241   3.477 -0.0972 -0.9400  0.6811
14894TIP3    H266098   2.420   5.281   3.597 -0.1530 -1.4343  0.8893
14895TIP3   OH266099   3.698   5.235   0.701 -0.1951 -0.0874 -0.0635
14895TIP3    H166100   3.639   5.191   0.762 -0.6951 -0.3672 -0.7409
14895TIP3    H266101   3.659   5.322   0.688  0.5946  0.4544  0.9861
14896TIP3   OH266102   4.910   4.835  13.326  0.4159  0.3771 -0.0117
14896TIP3    H166103   4.995   4.877  13.340  0.8325 -0.2416 -0.6314
14896TIP3    H266104   4.920   4.786  13.245  0.1925 -1.5639  1.0759
14897TIP3   OH266105   4.020   4.094  15.732 -0.4151 -0.3072 -0.0658
14897TIP3    H166106   3.997   4.186  15.724 -1.0611 -0.5446 -1.3515
14897TIP3    H266107   4.076   4.077  15.656  1.0614 -0.6074  1.0437
14898TIP3   OH266108   6.738   3.709  12.847 -0.4459  0.0914  0.5683
14898TIP3    H166109   6.791   3.655  12.788 -0.6522 -1.4799  1.7687
14898TIP3    H266110   6.789   3.712  12.928 -1.7938 -0.7946  1.4764
14899TIP3   OH266111   1.011   4.078   2.957 -0.3881 -0.7763 -0.1681
14899TIP3    H166112   1.039   3.991   2.930 -2.6481 -1.8044  0.6308
14899TIP3    H266113   1.033   4.134   2.882  1.9361 -1.7970 -0.3446
14900TIP3   OH266114   0.016   5.203  13.615 -0.0663 -0.2563 -0.0122
14900TIP3    H166115  -0.019   5.174  13.699  0.0000  1.0605  0.4810
14900TIP3    H266116  -0.049   5.264  13.581  1.4767  1.9119  0.7191
14901TIP3   OH266117   6.562   4.058   1.253 -0.5233  0.5871  0.1238
14901TIP3    H166118   6.482   4.069   1.201 -0.3070  0.9646 -0.1381
14901TIP3    H266119   6.627   4.028   1.190  0.1119  2.3908 -0.1531
14902TIP3   OH266120   4.874   6.093  16.635  0.8191  0.6166 -0.3952
14902TIP3    H166121   4.806   6.133  16.580  0.6276 -0.6955 -1.1627
14902TIP3    H266122   4.833   6.085  16.721  0.9162  2.1666 -0.1728
14903TIP3   OH266123   2.511   5.306  13.035 -0.2202  0.2608  0.3753
14903TIP3    H166124   2.463   5.249  12.976 -0.2139  0.2166  0.4125
14903TIP3    H266125   2.599   5.269  13.040  0.3268  1.2867 -1.0133
14904TIP3   OH266126   2.275   3.505   0.656  0.1503  0.5711  0.3528
14904TIP3    H166127   2.368   3.524   0.667  0.2797  0.1855 -0.0536
14904TIP3    H266128   2.272   3.434   0.593 -0.3547 -0.2769  1.2930
14905TIP3   OH266129   0.568   5.834  14.558 -0.0480 -0.1574 -0.5480
14905TIP3    H166130   0.552   5.923  14.589 -1.9779 -0.4857 -0.4832
14905TIP3    H266131   0.482   5.803  14.529  0.0284 -2.8396  1.6323
14906TIP3   OH266132   0.445   4.887  17.159  0.2645 -0.0475  0.1213
14906TIP3    H166133   0.445   4.941  17.238  1.1584 -0.9204  0.7279
14906TIP3    H266134   0.516   4.923  17.105 -0.7048  0.9125 -0.5744
14907TIP3   OH266135   0.350   5.238   3.034 -0.3569  0.1303  0.0865
14907TIP3    H166136   0.417   5.171   3.020  0.7935  1.3556 -0.4456
14907TIP3    H266137   0.332   5.272   2.947 -0.0909  1.2830  0.4684
14908TIP3   OH266138   0.799   6.521   3.036 -0.6135  0.1355  0.0267
14908TIP3    H166139   0.787   6.614   3.015  2.3198 -0.1411 -3.7976
14908TIP3    H266140   0.853   6.521   3.115 -1.6469  1.5852  0.7865
14909TIP3   OH266141   0.851   6.104  15.808  0.0804  0.2991  0.3015
14909TIP3    H166142   0.841   6.069  15.896 -2.3199 -0.3771 -0.1694
14909TIP3    H266143   0.849   6.027  15.751 -0.7142  0.8720 -0.4717
14910TIP3   OH266144   0.057   2.128  16.287  0.3853  0.0176 -0.2955
14910TIP3    H166145   0.152   2.129  16.296  0.2467 -0.0598  1.5993
14910TIP3    H266146   0.025   2.166  16.368 -1.2393 -1.9272  0.0631
14911TIP3   OH266147   3.145   3.443  14.700  0.6051 -0.2948  0.3998
14911TIP3    H166148   3.093   3.363  14.702 -0.2684  0.2684  1.4504
14911TIP3    H266149   3.165   3.461  14.792  1.9716 -0.0409  0.0702
14912TIP3   OH266150   1.440   5.911   2.211 -0.6279  0.4834 -0.0644
14912TIP3    H166151   1.373   5.975   2.187 -0.2285  0.4251 -1.4278
14912TIP3    H266152   1.410   5.829   2.170  0.0918  0.3777 -0.3892
14913TIP3   OH266153   1.881   4.165   6.613  0.1659 -0.2873  0.7730
14913TIP3    H166154   1.958   4.109   6.605  0.1025 -0.4120  1.0458
14913TIP3    H266155   1.854   4.182   6.523 -0.6772 -1.8643  0.7021
14914TIP3   OH266156   6.321   0.452   3.155 -0.2503 -0.5286  0.2015
14914TIP3    H166157   6.395   0.408   3.197 -0.0250 -4.2379 -3.4100
14914TIP3    H266158   6.247   0.434   3.212  0.9994  0.5570  2.3029
14915TIP3   OH266159   2.621   3.543  16.943 -0.0327 -0.4840 -0.6279
14915TIP3    H166160   2.561   3.564  17.015 -0.0077  0.7500 -0.9511
14915TIP3    H266161   2.609   3.449  16.929  0.4657 -0.8949  1.4261
14916TIP3   OH266162   6.406   0.311   2.553 -0.2601  0.2791  0.8257
14916TIP3    H166163   6.358   0.393   2.565 -0.6247  0.0331  1.0557
14916TIP3    H266164   6.360   0.265   2.483 -0.0451  0.2779  0.6836
14917TIP3   OH266165   5.991   5.874  16.853  0.1781 -0.4865  0.2378
14917TIP3    H166166   6.037   5.790  16.857  0.8360 -0.2831 -1.7505
14917TIP3    H266167   5.992   5.907  16.943  1.2800 -1.8850  0.7728
14918TIP3   OH266168   2.930   0.180  13.482 -0.2141 -0.0348 -0.5059
14918TIP3    H166169   2.951   0.238  13.555 -0.5493  0.0261 -0.4558
14918TIP3    H266170   2.916   0.239  13.408  0.4139 -0.1108 -0.6996
14919TIP3   OH266171   5.019   6.565   0.754 -0.0263  0.4556 -0.2101
14919TIP3    H166172   5.091   6.624   0.777  0.9164 -0.9128  0.5391
14919TIP3    H266173   4.974   6.608   0.681  0.4561  2.1920  0.4869
14920TIP3   OH266174   6.132   3.015   5.227  0.1481 -0.2169 -0.1115
14920TIP3    H166175   6.103   3.076   5.159  1.9734 -0.3726 -1.1005
14920TIP3    H266176   6.204   3.061   5.270 -0.6931 -0.3127  1.4464
14921TIP3   OH266177   5.327   0.029   5.897  0.1286  0.1531 -0.2027
14921TIP3    H166178   5.383  -0.048   5.897  0.3492  0.2911 -1.4602
14921TIP3    H266179   5.388   0.103   5.903  0.0550  0.2846 -1.0029
14922TIP3   OH266180   2.098   2.518   5.870  0.1301  0.2193 -0.1217
14922TIP3    H166181   2.134   2.433   5.844  1.4934  1.0772 -1.2040
14922TIP3    H266182   2.115   2.523   5.964 -1.8653 -1.5393  0.4132
14923TIP3   OH266183   4.425   4.207   1.415 -0.5265  0.3637  0.6170
14923TIP3    H166184   4.457   4.133   1.363  1.3596  2.7208 -1.8785
14923TIP3    H266185   4.353   4.243   1.363 -0.0923  1.4171  0.7000
14924TIP3   OH266186   6.637   3.299  10.419 -0.0040 -0.4954  0.3846
14924TIP3    H166187   6.583   3.231  10.380 -2.0095  1.7896 -1.1048
14924TIP3    H266188   6.611   3.300  10.511 -2.4174  0.3759 -0.2516
14925TIP3   OH266189   3.358   3.441   3.254 -0.0428  0.1064  0.2492
14925TIP3    H166190   3.331   3.418   3.343  1.3111  0.4708  0.7785
14925TIP3    H266191   3.363   3.358   3.208  0.2647 -0.1858  0.8093
14926TIP3   OH266192   2.870   6.527   0.004 -0.1595  0.7200 -0.2649
14926TIP3    H166193   2.909   6.599  -0.046 -1.0792  0.1193 -1.9188
14926TIP3    H266194   2.917   6.449  -0.027 -0.2927  0.4132  0.2984
14927TIP3   OH266195   3.831   4.459   2.980  0.0971 -0.2727 -0.6131
14927TIP3    H166196   3.869   4.477   3.066  0.2360 -0.4577 -0.6361
14927TIP3    H266197   3.793   4.372   2.988 -1.4917  0.4151 -0.1810
14928TIP3   OH266198   1.350   2.070  16.359 -0.4895 -0.1280 -0.1711
14928TIP3    H166199   1.335   1.996  16.301 -0.4371 -1.3176  1.2925
14928TIP3    H266200   1.273   2.126  16.348 -0.6374 -0.5035 -1.1008
14929TIP3   OH266201   0.342   1.509  16.590  0.4116  0.5326 -0.3012
14929TIP3    H166202   0.269   1.480  16.645 -0.0868  2.7439  0.3260
14929TIP3    H266203   0.301   1.542  16.511  0.7026  1.6926  0.0114
14930TIP3   OH266204   1.245   2.319   5.800  0.3911 -0.6769 -0.7963
14930TIP3    H166205   1.293   2.400   5.816  2.2860 -1.8242 -0.3210
14930TIP3    H266206   1.226   2.285   5.887 -1.2044 -0.3450 -0.9777
14931TIP3   OH266207   2.755   2.254   0.236 -0.1785  0.4216  0.0031
14931TIP3    H166208   2.674   2.248   0.187 -0.3349  2.4450 -0.0977
14931TIP3    H266209   2.729   2.289   0.322  0.4651  0.0607  0.3543
14932TIP3   OH266210   5.459   6.666  12.445  0.6291 -0.0033 -0.5490
14932TIP3    H166211   5.407   6.701  12.373  1.4173  1.2929 -0.5123
14932TIP3    H266212   5.550   6.684  12.421  1.0659 -1.6713 -0.3124
14933TIP3   OH266213   0.515   2.947  15.631  0.0818  0.0346 -0.0466
14933TIP3    H166214   0.475   3.031  15.651  0.5461  0.3243 -0.3136
14933TIP3    H266215   0.574   2.965  15.557  1.0571 -0.2690  0.6264
14934TIP3   OH266216   2.101   3.904   6.236  0.2982  0.4125  0.2960
14934TIP3    H166217   2.007   3.889   6.229  0.3736 -1.2609  1.9990
14934TIP3    H266218   2.109   3.983   6.289 -0.1421  0.4059  0.3768
14935TIP3   OH266219   4.732   4.368  12.622 -0.2326  0.1499 -0.4029
14935TIP3    H166220   4.733   4.274  12.641  0.0893 -0.5798 -3.4678
14935TIP3    H266221   4.824   4.393  12.625  0.2199 -0.7022 -3.6292
14936TIP3   OH266222   4.986   1.395   4.810  0.5026  0.1027 -0.0162
14936TIP3    H166223   5.068   1.442   4.798  0.7991  0.1178  1.8584
14936TIP3    H266224   4.977   1.383   4.905 -1.3302 -0.4866 -0.2059
14937TIP3   OH266225   4.975   3.728   4.126  0.6968 -0.1469 -0.1744
14937TIP3    H166226   5.053   3.781   4.140 -0.3743  1.4034  0.2864
14937TIP3    H266227   4.999   3.640   4.155  2.2025  0.3243  0.0866
14938TIP3   OH266228   4.866   4.126  14.895 -0.6166  0.1397  0.2262
14938TIP3    H166229   4.881   4.176  14.975 -0.8717  0.3149  0.1630
14938TIP3    H266230   4.784   4.079  14.911 -0.3957 -0.2302  0.2729
14939TIP3   OH266231   3.805   4.757   4.767 -0.0964  0.0811 -0.1849
14939TIP3    H166232   3.799   4.850   4.792 -0.8482  0.4007 -1.4696
14939TIP3    H266233   3.748   4.713   4.830  0.1049  0.5058  0.3111
14940TIP3   OH266234   5.084   5.780  13.403 -0.4729 -0.0736  0.5866
14940TIP3    H166235   5.090   5.872  13.378 -1.7687 -0.1118  0.0687
14940TIP3    H266236   5.160   5.765  13.460 -1.0203  1.6707  1.8211
14941TIP3   OH266237   2.989   3.572  13.865 -0.1898  0.4512 -0.0771
14941TIP3    H166238   2.931   3.516  13.916  0.3824  0.7278  0.8947
14941TIP3    H266239   3.015   3.517  13.791 -0.2788 -0.2917  0.4294
14942TIP3   OH266240   2.898   4.319   4.579 -0.5442 -0.2114 -0.2787
14942TIP3    H166241   2.935   4.241   4.622 -0.7557 -0.4864 -0.5899
14942TIP3    H266242   2.852   4.284   4.503  2.9863  0.4747 -3.0189
14943TIP3   OH266243   6.385   4.238  13.675  0.1618 -0.3421 -0.6026
14943TIP3    H166244   6.472   4.265  13.646  0.4211 -0.9035 -0.3609
14943TIP3    H266245   6.338   4.219  13.594 -0.9965  3.5227 -1.0369
14944TIP3   OH266246   1.186   3.431  16.071  0.0498  0.2186  0.7578
14944TIP3    H166247   1.261   3.373  16.085  1.9801  1.3416 -3.2559
14944TIP3    H266248   1.120   3.376  16.029 -0.8998 -0.4530  3.0233
14945TIP3   OH266249   1.365   6.353  14.759 -0.1929 -0.3773 -0.2017
14945TIP3    H166250   1.319   6.315  14.834  2.3258  0.4753  1.8924
14945TIP3    H266251   1.346   6.447  14.765  1.6162 -0.0327  0.6238
14946TIP3   OH266252   6.426   5.567   1.988 -0.2788  0.1115  0.0042
14946TIP3    H166253   6.484   5.568   1.913 -2.0450 -0.6776 -1.4531
14946TIP3    H266254   6.421   5.659   2.016  1.1609  0.2676 -0.2153
14947TIP3   OH266255   5.311   5.736  13.549  0.0946 -0.3548  0.0776
14947TIP3    H166256   5.378   5.757  13.485 -0.2017 -0.1334 -0.1648
14947TIP3    H266257   5.354   5.745  13.634  0.1500  0.6298 -0.0433
14948TIP3   OH266258   4.778   4.145  13.916  0.9972 -0.3760  0.6183
14948TIP3    H166259   4.698   4.107  13.880  0.9810  0.2699 -0.0376
14948TIP3    H266260   4.812   4.077  13.975 -0.2243 -0.5083  1.2023
14949TIP3   OH266261   5.113   0.933  11.859 -0.8907 -0.2239 -1.1174
14949TIP3    H166262   5.110   0.897  11.948 -1.1467  1.9270 -0.1867
14949TIP3    H266263   5.075   0.864  11.804 -1.6950 -1.2104  0.5823
14950TIP3   OH266264   2.243   3.654  12.215 -0.8333  0.4836  0.1745
14950TIP3    H166265   2.281   3.594  12.151  0.6613  0.8585  0.6593
14950TIP3    H266266   2.308   3.658  12.285 -1.0815  2.3172  0.3464
14951TIP3   OH266267   5.633   2.526  16.183  0.2373 -0.5359 -0.1858
14951TIP3    H166268   5.540   2.508  16.194 -0.2383  1.6714 -0.0828
14951TIP3    H266269   5.653   2.497  16.094 -0.7011 -0.4672 -0.4313
14952TIP3   OH266270   4.226   3.059  12.344  0.0647 -0.4470 -0.5959
14952TIP3    H166271   4.251   2.966  12.348 -3.9280 -1.7912 -2.0543
14952TIP3    H266272   4.206   3.075  12.252 -1.0240  1.3426 -0.0965
14953TIP3   OH266273   0.297   2.955   1.588 -0.3594 -0.4261  0.4959
14953TIP3    H166274   0.259   2.942   1.675 -2.2945  1.5948  0.0623
14953TIP3    H266275   0.284   3.049   1.571  0.2996 -0.7130 -1.8164
14954TIP3   OH266276   0.625   2.740  12.158  0.0366 -0.0334 -0.0212
14954TIP3    H166277   0.688   2.767  12.092 -1.0133 -0.1441 -1.1075
14954TIP3    H266278   0.673   2.679  12.214  0.4331 -1.5568 -1.9058
14955TIP3   OH266279   4.179   0.390  11.731 -0.1131 -0.4380 -0.4505
14955TIP3    H166280   4.198   0.317  11.790 -0.1933  1.2885  1.8696
14955TIP3    H266281   4.089   0.415  11.753 -0.0009  0.5146 -1.0101
14956TIP3   OH266282   3.292   1.046  12.634  0.3096  0.0465  0.0257
14956TIP3    H166283   3.353   0.994  12.581 -0.2805 -1.6584  0.9451
14956TIP3    H266284   3.248   0.982  12.689 -1.3003  1.4205  0.4038
14957TIP3   OH266285   4.602   2.567  12.698  0.4467 -0.7768 -0.0328
14957TIP3    H166286   4.545   2.622  12.752  0.8116 -0.9760  0.5616
14957TIP3    H266287   4.563   2.572  12.610 -0.4994 -0.9126  0.3589
14958TIP3   OH266288   2.422   3.249  13.537 -0.1369  0.5251 -0.3627
14958TIP3    H166289   2.378   3.207  13.463  1.1051 -0.1845 -0.7299
14958TIP3    H266290   2.491   3.188  13.562 -0.2645  0.9501  1.1229
14959TIP3   OH266291   0.901   1.366  17.190  0.3728 -0.2465  0.1015
14959TIP3    H166292   0.975   1.354  17.248 -0.3011 -3.2355  0.5196
14959TIP3    H266293   0.834   1.408  17.244  1.1606  0.9394  0.1874
14960TIP3   OH266294   3.421   3.210   3.814 -0.1905  0.1449  0.3020
14960TIP3    H166295   3.431   3.204   3.909  3.0760  0.7409  0.1332
14960TIP3    H266296   3.447   3.300   3.793 -2.5939  0.6050 -1.0598
14961TIP3   OH266297   0.656   3.742  15.324 -0.1861 -0.1290  0.0418
14961TIP3    H166298   0.719   3.740  15.395  0.6763 -0.4448 -0.7173
14961TIP3    H266299   0.650   3.834  15.299  0.1952 -0.1394 -0.0848
14962TIP3   OH266300   0.248   1.524   0.877  0.0494 -0.0831  0.3802
14962TIP3    H166301   0.214   1.595   0.824  3.0659  2.4386  1.5318
14962TIP3    H266302   0.287   1.463   0.814 -2.6493 -0.9652 -0.6158
14963TIP3   OH266303   1.702   0.557  16.480  0.0009 -0.1676 -0.6029
14963TIP3    H166304   1.670   0.490  16.540 -0.2261 -0.2396 -0.8051
14963TIP3    H266305   1.771   0.602  16.529  1.6145 -1.8860 -1.1875
14964TIP3   OH266306   6.255   3.148  15.278 -0.5422 -0.5974  0.1811
14964TIP3    H166307   6.341   3.178  15.248 -0.7737 -1.8211 -1.9720
14964TIP3    H266308   6.275   3.091  15.352  0.5475 -0.9895 -0.3794
14965TIP3   OH266309   3.982   3.615  11.983  0.2506 -0.3479  0.5309
14965TIP3    H166310   4.069   3.636  11.949  0.4291 -2.2386 -0.3058
14965TIP3    H266311   3.937   3.700  11.987  2.1904  0.7194  1.2653
14966TIP3   OH266312   5.290   6.701   1.035 -0.2262 -0.2234 -0.0094
14966TIP3    H166313   5.202   6.726   1.005 -0.6710  1.6423  2.4453
14966TIP3    H266314   5.348   6.767   0.996 -0.1363 -0.5552 -0.4357
14967TIP3   OH266315   3.834   3.369  12.669 -0.0146  0.3774 -0.0559
14967TIP3    H166316   3.877   3.333  12.747 -1.3895 -1.3836 -0.0591
14967TIP3    H266317   3.771   3.303  12.644 -0.8163  1.6939 -1.6699
14968TIP3   OH266318   1.023   1.750  13.317  0.3151 -0.4595  0.4998
14968TIP3    H166319   1.100   1.805  13.329  1.6366 -1.6742 -1.7677
14968TIP3    H266320   1.031   1.683  13.384  2.2293 -1.5620 -0.7465
14969TIP3   OH266321   1.772   2.587   5.571 -0.0362 -0.5791 -0.2163
14969TIP3    H166322   1.716   2.510   5.586  0.3394 -0.6581  0.8459
14969TIP3    H266323   1.861   2.553   5.576  0.2013  0.2435  2.4517
14970TIP3   OH266324   5.136   1.619  15.236  0.6227  0.3531  0.1487
14970TIP3    H166325   5.116   1.554  15.169  0.3839  1.3570 -0.7794
14970TIP3    H266326   5.055   1.627  15.287  0.9106 -0.6613  0.8143
14971TIP3   OH266327   2.844   0.377  16.003 -0.1337 -0.1284 -0.0329
14971TIP3    H166328   2.885   0.295  16.031  1.7904  0.5482 -0.7296
14971TIP3    H266329   2.850   0.434  16.080 -1.1237 -0.4608  0.3230
14972TIP3   OH266330   2.258   6.190  13.895  0.3393  0.2894 -0.3344
14972TIP3    H166331   2.174   6.217  13.932 -0.5759 -1.6274 -0.9168
14972TIP3    H266332   2.290   6.124  13.956  0.8718  0.1745 -0.7358
14973TIP3   OH266333   0.906   6.546  15.735 -0.0574 -0.2293  0.1275
14973TIP3    H166334   0.892   6.457  15.701 -0.3887 -0.4585  0.8451
14973TIP3    H266335   0.852   6.550  15.814 -1.0431  1.0356 -0.5797
14974TIP3   OH266336   2.533   0.267   4.066 -0.1308  0.0391  0.2334
14974TIP3    H166337   2.503   0.221   4.145  0.0599 -0.4701  0.0063
14974TIP3    H266338   2.537   0.359   4.093  0.2754 -0.1770  0.9196
14975TIP3   OH266339   1.735   3.486   2.647 -0.1033 -0.1960  0.5237
14975TIP3    H166340   1.763   3.533   2.568  1.2556  1.2645  1.7898
14975TIP3    H266341   1.815   3.444   2.679 -0.5071 -0.2875  1.4331
14976TIP3   OH266342   1.109   1.831  16.946  0.0558  0.4503  0.9657
14976TIP3    H166343   1.181   1.768  16.952  0.1257  0.5603  1.3727
14976TIP3    H266344   1.124   1.877  16.864 -2.0885 -2.5551 -1.3170
14977TIP3   OH266345   0.321   5.473   3.162 -0.0635  0.5972 -0.2340
14977TIP3    H166346   0.313   5.382   3.133 -2.3204  1.4211 -2.6234
14977TIP3    H266347   0.390   5.471   3.228  1.1636 -2.5496 -1.3964
14978TIP3   OH266348   6.381   2.452   2.944  0.0262 -0.0269  0.2685
14978TIP3    H166349   6.286   2.450   2.942  0.0160  0.1971  0.4579
14978TIP3    H266350   6.408   2.361   2.954 -0.1117 -0.3746 -2.0924
14979TIP3   OH266351   3.326   4.990   1.755 -0.0197  0.3993  0.5094
14979TIP3    H166352   3.281   5.070   1.729 -0.6392 -1.0155 -3.4916
14979TIP3    H266353   3.419   5.011   1.748 -0.0318  1.6514  2.9967
14980TIP3   OH266354   5.629   1.617  16.688 -0.2197 -0.4044  0.6870
14980TIP3    H166355   5.599   1.646  16.602 -0.6592  0.4900  1.1244
14980TIP3    H266356   5.549   1.592  16.734  0.1165 -1.9077  0.4815
14981TIP3   OH266357   4.560   6.621  12.532 -0.8573 -0.3156 -0.5187
14981TIP3    H166358   4.522   6.556  12.591  1.9460 -0.5418  1.2504
14981TIP3    H266359   4.562   6.701  12.584  0.4629 -0.1675 -0.7775
14982TIP3   OH266360   4.105   2.973   2.890  0.0480 -0.4121  0.0044
14982TIP3    H166361   4.057   2.983   2.972 -0.4470  0.6949 -0.4012
14982TIP3    H266362   4.083   3.051   2.839 -0.7737 -1.6978 -1.7639
14983TIP3   OH266363   2.064   1.514  13.459  0.7053 -0.0498 -0.6048
14983TIP3    H166364   2.087   1.432  13.503 -2.2288 -0.8033 -0.1990
14983TIP3    H266365   2.040   1.487  13.371  0.0950  0.4072 -0.5810
14984TIP3   OH266366   1.728   1.421   2.373 -0.0882 -0.4000 -0.7141
14984TIP3    H166367   1.749   1.509   2.403  0.9812 -1.1175  0.8236
14984TIP3    H266368   1.813   1.380   2.356 -0.3631 -1.9069  1.1182
14985TIP3   OH266369   5.483   5.464   4.646  0.5731 -0.1704  0.4330
14985TIP3    H166370   5.463   5.535   4.707  0.2396  1.4879 -1.5182
14985TIP3    H266371   5.398   5.433   4.615  0.7482  0.8618 -1.1934
14986TIP3   OH266372   3.785   2.563  17.250  0.5807 -0.0719  0.1914
14986TIP3    H166373   3.864   2.514  17.271 -0.2412 -0.6772  2.1771
14986TIP3    H266374   3.780   2.562  17.155  1.6608 -2.1604  0.0991
14987TIP3   OH266375   1.286   4.503  14.935  0.4029  0.7666  0.2663
14987TIP3    H166376   1.323   4.415  14.930 -2.3371 -0.4133 -1.0130
14987TIP3    H266377   1.301   4.530  15.026  1.2648 -1.0072  0.6828
14988TIP3   OH266378   4.324   4.290  11.101  0.3722  0.8368 -0.1428
14988TIP3    H166379   4.349   4.256  11.015 -1.5047  2.9126 -1.6326
14988TIP3    H266380   4.383   4.364  11.116  1.4921 -0.2496  0.9699
14989TIP3   OH266381   0.458   5.983   3.252  0.0777 -0.1875 -0.3748
14989TIP3    H166382   0.522   5.956   3.319  0.5282  0.3396 -0.5850
14989TIP3    H266383   0.503   5.967   3.169  0.1901  0.7887 -0.5104
14990TIP3   OH266384   4.485   4.737  16.542  0.0355 -0.5173  0.1074
14990TIP3    H166385   4.499   4.827  16.512 -0.3060 -0.4240  0.2266
14990TIP3    H266386   4.430   4.746  16.619 -1.4135 -0.9284 -0.8512
14991TIP3   OH266387   0.501   2.016   0.295  0.5393 -0.3849 -0.3150
14991TIP3    H166388   0.443   1.967   0.353  2.2659 -0.2495  1.6162
14991TIP3    H266389   0.468   2.106   0.298 -0.1465 -0.6179 -0.6019
14992TIP3   OH266390   5.428   6.377  13.435 -0.3747 -0.1351  0.0603
14992TIP3    H166391   5.342   6.341  13.459 -0.1162 -0.9232 -0.1331
14992TIP3    H266392   5.468   6.307  13.382  0.9968 -0.4305  1.4067
14993TIP3   OH266393   3.306   3.984   2.883 -0.0553 -0.4413  0.0107
14993TIP3    H166394   3.224   3.936   2.873 -0.1202 -0.2271 -0.5220
14993TIP3    H266395   3.308   4.044   2.808  0.9151 -0.9267 -0.3640
14994TIP3   OH266396   4.372   2.589   3.572 -0.0132  0.0100 -0.0954
14994TIP3    H166397   4.463   2.562   3.564 -0.5345 -2.4146  1.1210
14994TIP3    H266398   4.366   2.629   3.659 -0.2365 -0.4178  0.0875
14995TIP3   OH266399   4.397   1.948   4.536 -0.1335  0.6836  0.1069
14995TIP3    H166400   4.386   1.859   4.503 -0.8247  0.9334 -0.3569
14995TIP3    H266401   4.370   2.004   4.463  2.5896  1.3379 -0.4966
14996TIP3   OH266402   2.833   4.487   3.533 -0.0812  0.5815 -0.3921
14996TIP3    H166403   2.870   4.454   3.452  0.0711 -0.6252  0.1357
14996TIP3    H266404   2.746   4.446   3.538  0.0070  0.4489  0.1604
14997TIP3   OH266405   5.859   0.439   4.866 -0.1461 -0.3275  0.1363
14997TIP3    H166406   5.870   0.369   4.931  0.6177  0.3104  0.6928
14997TIP3    H266407   5.904   0.514   4.903 -0.7048  0.3859 -0.6057
14998TIP3   OH266408   3.016   6.741  14.848  0.2286 -0.5974  0.2595
14998TIP3    H166409   3.059   6.800  14.787 -0.3616 -0.3778  0.0456
14998TIP3    H266410   3.072   6.663  14.850  1.5489  0.3411  1.3083
14999TIP3   OH266411   5.426   2.768  15.212 -0.1738  0.3089 -0.2475
14999TIP3    H166412   5.473   2.685  15.215 -0.3723  0.1256 -1.4638
14999TIP3    H266413   5.334   2.745  15.225 -0.1497  0.4300  0.1480
15000TIP3   OH266414   4.402   4.163   2.747  0.2600 -0.2962  0.4190
15000TIP3    H166415   4.352   4.105   2.804 -0.4185  0.5751  0.7208
15000TIP3    H266416   4.339   4.197   2.685  1.2637 -2.4827 -1.9659
15001TIP3   OH266417   1.733   2.060  14.194 -0.2848  0.2890 -0.0481
15001TIP3    H166418   1.762   2.135  14.142 -0.9986  1.5602  1.2933
15001TIP3    H266419   1.805   1.997  14.190 -0.3298  0.3132 -2.5487
15002TIP3   OH266420   5.292   5.080  11.843  0.0575 -0.6957 -0.1052
15002TIP3    H166421   5.219   5.139  11.828  0.8341  0.5822  0.9231
15002TIP3    H266422   5.273   5.003  11.789 -0.1461  1.1773 -2.9161
15003TIP3   OH266423   5.591   0.524   3.704 -0.0735  0.4644  0.7013
15003TIP3    H166424   5.534   0.525   3.627  2.0772  0.4463 -0.9839
15003TIP3    H266425   5.627   0.613   3.709  1.2654 -0.0318  0.4826
15004TIP3   OH266426   1.169   1.045   4.270  0.2465 -0.1178 -0.8192
15004TIP3    H166427   1.256   1.024   4.305 -0.4183 -1.0027  0.4041
15004TIP3    H266428   1.112   0.979   4.309 -1.1310  1.0027 -0.8791
15005TIP3   OH266429   4.195   6.614  12.610 -0.2896 -0.1196  0.3078
15005TIP3    H166430   4.226   6.692  12.656  2.2633 -0.6874 -0.2793
15005TIP3    H266431   4.193   6.546  12.677 -1.0467  0.0813  0.4996
15006TIP3   OH266432   3.576   3.569   4.981  0.4988 -0.1994  0.2635
15006TIP3    H166433   3.513   3.499   4.997  1.4343 -1.6404 -1.8923
15006TIP3    H266434   3.523   3.641   4.947 -0.4462  0.1398  2.3060
15007TIP3   OH266435   1.266   5.655   2.422 -0.3047  0.3523 -0.2346
15007TIP3    H166436   1.172   5.667   2.422 -0.2869  0.5505 -1.3314
15007TIP3    H266437   1.282   5.589   2.490 -1.2677  0.0185 -0.3261
15008TIP3   OH266438   6.447   5.783   0.338  0.4596 -0.2754 -0.1656
15008TIP3    H166439   6.420   5.733   0.261  0.5721 -0.7480  0.0970
15008TIP3    H266440   6.513   5.844   0.305 -0.1755  0.1849 -0.6176
15009TIP3   OH266441   2.786   2.939  15.545  0.1203  0.4220  0.0353
15009TIP3    H166442   2.733   3.015  15.521 -0.1062  0.9745  2.0959
15009TIP3    H266443   2.724   2.867  15.552  0.6756 -1.0367 -5.2491
15010TIP3   OH266444   1.466   5.747   3.043  0.3032  0.8798  0.5431
15010TIP3    H166445   1.412   5.824   3.062 -2.7639  0.0045 -3.2660
15010TIP3    H266446   1.480   5.751   2.948  1.8036 -2.2370  0.5070
15011TIP3   OH266447   5.820   0.185   4.969  0.3157  0.6097 -0.5674
15011TIP3    H166448   5.811   0.150   4.880  2.3460 -0.7076 -0.3155
15011TIP3    H266449   5.783   0.117   5.025 -0.8026  1.3632 -0.3400
15012TIP3   OH266450   0.549   5.689   4.044 -0.0473  0.3283 -0.1482
15012TIP3    H166451   0.581   5.614   4.094  0.4071 -0.3444 -1.4205
15012TIP3    H266452   0.513   5.747   4.111  1.0892 -0.2539  1.0389
15013TIP3   OH266453   1.622   3.667  14.955 -0.0871  0.0125 -0.2001
15013TIP3    H166454   1.561   3.631  15.018 -0.2204 -0.2742 -0.4882
15013TIP3    H266455   1.570   3.679  14.875  0.3374 -0.6733 -0.5919
15014TIP3   OH266456   4.861   3.234  13.804  0.3329 -0.4865  0.8537
15014TIP3    H166457   4.931   3.182  13.765  0.5276  0.4233 -0.0642
15014TIP3    H266458   4.867   3.318  13.760 -1.8033 -0.6158  0.2028
15015TIP3   OH266459   4.239   5.213  13.194  0.1077 -0.1306  0.5403
15015TIP3    H166460   4.243   5.219  13.099 -2.2361 -1.0944  0.2927
15015TIP3    H266461   4.274   5.126  13.214 -0.3472 -0.3427  0.4343
15016TIP3   OH266462   5.510   3.994   1.126  0.1034  0.3009  0.8428
15016TIP3    H166463   5.482   3.942   1.201  1.2057 -0.4084  0.7842
15016TIP3    H266464   5.552   4.072   1.165  1.8444 -0.6764  1.0331
15017TIP3   OH266465   2.680   1.057   6.054  0.7650 -0.2294  0.5626
15017TIP3    H166466   2.711   1.118   5.987  2.3231 -2.7469 -1.1932
15017TIP3    H266467   2.757   1.042   6.109  0.4632 -0.7491  0.8487
15018TIP3   OH266468   6.706   1.477  16.276  0.1655  0.5231  0.3052
15018TIP3    H166469   6.776   1.411  16.275 -0.6510 -0.3804  0.2320
15018TIP3    H266470   6.751   1.561  16.283  1.1658 -0.1375  2.3973
15019TIP3   OH266471   6.311   0.384   1.061  0.2148  0.8993 -0.4482
15019TIP3    H166472   6.251   0.404   1.133  0.3300  0.5791 -0.2631
15019TIP3    H266473   6.382   0.446   1.070 -0.0317  1.2082 -0.6018
15020TIP3   OH266474   1.837   4.795   3.195 -0.0971  0.0338  0.1289
15020TIP3    H166475   1.862   4.712   3.236  1.1492  1.4612  2.4400
15020TIP3    H266476   1.742   4.790   3.188 -0.2602 -0.7681  2.2181
15021TIP3   OH266477   1.113   0.656   0.450 -0.2896  0.6412 -0.0714
15021TIP3    H166478   1.207   0.639   0.439 -0.1536  1.0709  0.4296
15021TIP3    H266479   1.095   0.731   0.394 -0.1523  1.1113  0.5078
15022TIP3   OH266480   0.116   5.684  15.261  0.2795 -0.2051  0.1323
15022TIP3    H166481   0.096   5.710  15.351  1.3874  0.4758  0.2007
15022TIP3    H266482   0.203   5.643  15.267 -0.7400 -2.6097 -0.2190
15023TIP3   OH266483   3.609   2.428   6.397 -0.2426 -0.1938 -0.0273
15023TIP3    H166484   3.579   2.517   6.418 -0.4635 -0.5430  1.2134
15023TIP3    H266485   3.530   2.382   6.370  0.2312  0.6225 -3.2153
15024TIP3   OH266486   5.509   3.480   5.596  0.1058 -0.3245 -0.1613
15024TIP3    H166487   5.558   3.491   5.677  1.5566 -0.6531 -0.9639
15024TIP3    H266488   5.418   3.494   5.621  0.6098  0.4589  1.3423
15025TIP3   OH266489   2.467   0.849  15.411  0.1240 -0.0346 -0.2720
15025TIP3    H166490   2.407   0.921  15.431  1.2568  1.0001 -0.4902
15025TIP3    H266491   2.529   0.848  15.484  1.1432  0.3486 -1.1131
15026TIP3   OH266492   5.306   3.526   4.272 -0.0390  0.5193 -0.2313
15026TIP3    H166493   5.324   3.583   4.346 -1.9322  0.6311  0.2011
15026TIP3    H266494   5.216   3.495   4.287 -0.3608  0.3006 -2.3150
15027TIP3   OH266495   1.998   2.753  14.039 -0.6696  0.0341  0.0019
15027TIP3    H166496   2.038   2.726  13.957  0.4087  0.7039  0.2914
15027TIP3    H266497   1.935   2.821  14.014  0.7519  1.3575 -0.1527
15028TIP3   OH266498   2.099   5.623   3.588  0.2912 -0.2599  0.4634
15028TIP3    H166499   2.174   5.584   3.544  1.0803 -0.0690  1.5783
15028TIP3    H266500   2.119   5.717   3.591 -1.0977  0.1486 -1.2666
15029TIP3   OH266501   0.628   1.020  16.438  0.1793  0.7914 -0.0333
15029TIP3    H166502   0.638   1.112  16.460 -1.5850  1.2468 -0.8814
15029TIP3    H266503   0.635   1.017  16.342 -0.1285  0.1041 -0.0440
15030TIP3   OH266504   5.985   4.008  10.768 -0.0929 -0.2428  0.3906
15030TIP3    H166505   5.903   4.054  10.752  0.1006 -0.0635 -0.0704
15030TIP3    H266506   5.978   3.927  10.717 -0.0324 -0.2851  0.4487
15031TIP3   OH266507   0.478   6.427  12.393 -0.5794 -0.0315 -0.2404
15031TIP3    H166508   0.417   6.456  12.325  1.9250  3.2662 -1.3514
15031TIP3    H266509   0.534   6.363  12.350  0.0063  0.8678 -0.8349
15032TIP3   OH266510   5.667   6.076  13.112 -0.7554 -0.1584 -0.4758
15032TIP3    H166511   5.643   6.012  13.178 -0.9105  0.1223 -0.2589
15032TIP3    H266512   5.763   6.074  13.110 -0.7671 -0.7119 -0.7877
15033TIP3   OH266513   5.858   4.113  12.483  0.1241  0.0908 -0.2873
15033TIP3    H166514   5.869   4.018  12.476  1.6451  0.1886  0.2669
15033TIP3    H266515   5.932   4.150  12.435  0.7973  0.9388  1.2999
15034TIP3   OH266516   4.882   0.452  12.281  0.1212  0.0392  0.2469
15034TIP3    H166517   4.975   0.440  12.300 -0.1724  0.7434  2.4328
15034TIP3    H266518   4.863   0.542  12.307 -1.5943 -0.7247  1.9029
15035TIP3   OH266519   6.191   5.855   4.362  0.1714  0.1611  0.2775
15035TIP3    H166520   6.238   5.789   4.313 -0.7584 -0.5625  0.3195
15035TIP3    H266521   6.203   5.831   4.454 -0.5002 -0.2062  0.2796
15036TIP3   OH266522   2.347   4.982   3.158 -0.0786  0.5401  0.0365
15036TIP3    H166523   2.432   4.973   3.114  1.1637 -1.0976  2.4786
15036TIP3    H266524   2.297   4.906   3.129  1.1904 -1.2243  2.1669
15037TIP3   OH266525   1.303   5.917  13.581 -0.1784  0.4773  0.0613
15037TIP3    H166526   1.243   5.978  13.538 -0.1089  0.2378 -0.3781
15037TIP3    H266527   1.247   5.847  13.613 -0.0745 -0.0793 -0.9250
15038TIP3   OH266528   4.098   5.450   0.591  0.0759  0.3960  0.1879
15038TIP3    H166529   4.087   5.355   0.599  0.4249  0.3776  0.4608
15038TIP3    H266530   4.039   5.475   0.520 -2.0738  0.3574  1.8252
15039TIP3   OH266531   0.110   3.817  15.585 -0.2572 -0.8850  0.1453
15039TIP3    H166532   0.172   3.756  15.546 -0.5173 -0.8182 -0.3803
15039TIP3    H266533   0.113   3.798  15.679  1.1089 -0.3629  0.2259
15040TIP3   OH266534   2.775   4.182  15.722 -0.6404 -0.0058 -0.3857
15040TIP3    H166535   2.862   4.222  15.729 -0.4031 -0.7122  0.9583
15040TIP3    H266536   2.791   4.090  15.702 -1.1710  0.3460 -2.6833
15041TIP3   OH266537   3.896   3.540  11.114  0.8363  0.2786 -0.4356
15041TIP3    H166538   3.861   3.617  11.068  0.9295 -0.1779 -1.2921
15041TIP3    H266539   3.853   3.466  11.073  2.3195 -0.2597 -1.1061
15042TIP3   OH266540   5.233   4.593  10.538 -0.0476  0.4440 -0.1125
15042TIP3    H166541   5.306   4.614  10.479  0.2814 -1.0608 -0.2704
15042TIP3    H266542   5.225   4.671  10.593  1.8973  0.5291  0.1396
15043TIP3   OH266543   6.590   2.529   0.106  0.0437 -0.1415  0.4408
15043TIP3    H166544   6.681   2.501   0.094 -0.5241 -1.9933  0.0862
15043TIP3    H266545   6.561   2.482   0.184 -0.8994 -0.3971 -0.0439
15044TIP3   OH266546   3.530   3.183   1.703 -0.2134 -0.3455  0.5232
15044TIP3    H166547   3.601   3.211   1.761  0.3786 -2.1808  0.7630
15044TIP3    H266548   3.501   3.099   1.740 -2.0427  0.0229  0.0221
15045TIP3   OH266549   5.526   3.266   1.607  0.2734  0.0944  0.0688
15045TIP3    H166550   5.480   3.186   1.582  1.3600  0.3717 -3.3119
15045TIP3    H266551   5.618   3.240   1.615  0.4310  0.7335  0.4312
15046TIP3   OH266552   5.831   5.207  14.557  0.2498 -0.0676  0.2653
15046TIP3    H166553   5.887   5.143  14.600  1.2896  0.4178 -0.3087
15046TIP3    H266554   5.798   5.162  14.479 -1.3037 -0.8090  1.3003
15047TIP3   OH266555   0.973   1.539   4.002 -0.3036  0.2104  0.7360
15047TIP3    H166556   1.029   1.562   3.928 -1.2078  3.0953  0.8397
15047TIP3    H266557   0.961   1.444   3.994  1.8729  0.0036 -1.1639
15048TIP3   OH266558   3.134   6.232   5.799  0.0320  0.2806 -0.0866
15048TIP3    H166559   3.103   6.162   5.857 -1.0923  0.1981 -0.7547
15048TIP3    H266560   3.210   6.269   5.845 -0.9899  0.4227  1.5804
15049TIP3   OH266561   5.955   1.891  12.161  0.6124  0.2501 -0.2558
15049TIP3    H166562   6.019   1.934  12.104  0.4668 -1.3690 -1.7172
15049TIP3    H266563   5.987   1.801  12.169  1.2605  0.6670  3.2503
15050TIP3   OH266564   0.540   5.124   1.068 -0.3919  0.2393 -0.8210
15050TIP3    H166565   0.516   5.064   0.997  1.0744  0.0784 -1.2231
15050TIP3    H266566   0.592   5.070   1.128  0.0845  0.8615 -0.6645
15051TIP3   OH266567   3.238   1.076   3.640 -1.0243 -0.1848  0.4767
15051TIP3    H166568   3.329   1.102   3.624 -0.4932 -1.6845  0.8687
15051TIP3    H266569   3.187   1.155   3.622  0.2760  0.4695 -0.5408
15052TIP3   OH266570   5.395   0.510   6.161  0.2106  0.4434 -0.2173
15052TIP3    H166571   5.440   0.514   6.245  2.0530 -2.0016 -0.9546
15052TIP3    H266572   5.310   0.472   6.181  0.3373  0.6098  0.6511
15053TIP3   OH266573   2.818   1.955   0.419 -0.7410 -0.1556 -0.4476
15053TIP3    H166574   2.834   1.909   0.501  0.1079  0.1986 -0.4081
15053TIP3    H266575   2.798   2.045   0.445 -1.7213 -0.3191 -0.5673
15054TIP3   OH266576   2.802   6.538  12.088 -0.3724 -0.1016 -0.1193
15054TIP3    H166577   2.742   6.484  12.036 -1.4666  0.8153  0.1585
15054TIP3    H266578   2.796   6.625  12.048  1.3592 -0.1498 -0.5528
15055TIP3   OH266579   1.973   3.528   1.364 -0.6773 -0.5152 -0.2591
15055TIP3    H166580   1.979   3.509   1.457  0.5909 -2.3210 -0.6397
15055TIP3    H266581   2.060   3.562   1.340 -0.8822 -0.3797 -0.8311
15056TIP3   OH266582   0.531   5.954   1.903 -0.3047 -0.6306  0.3862
15056TIP3    H166583   0.524   5.869   1.946  0.4283 -0.0486  1.6984
15056TIP3    H266584   0.620   5.956   1.868 -0.6402 -0.7796 -0.5269
15057TIP3   OH266585   2.925   0.200   3.925  0.4035 -0.1167  0.5821
15057TIP3    H166586   2.916   0.243   4.010  0.4333 -3.1119  2.2267
15057TIP3    H266587   2.836   0.185   3.895  0.3032 -1.6830  1.5757
15058TIP3   OH266588   3.124   3.731  12.352 -0.5347 -0.4545 -0.0133
15058TIP3    H166589   3.099   3.819  12.325 -1.2837  0.1793  2.4654
15058TIP3    H266590   3.107   3.729  12.446  0.1591 -3.0291  0.1398
15059TIP3   OH266591   4.893   5.272   2.357 -1.3597 -0.1642  0.3646
15059TIP3    H166592   4.961   5.248   2.294  0.1291 -0.6912  2.0890
15059TIP3    H266593   4.814   5.230   2.323 -0.5788 -0.5563 -1.0715
15060TIP3   OH266594   0.694   0.239   3.689 -0.5626 -0.0261 -0.2315
15060TIP3    H166595   0.739   0.156   3.700 -1.9604 -1.3342 -3.1700
15060TIP3    H266596   0.758   0.295   3.645 -0.2195 -0.2276  0.0138
15061TIP3   OH266597   3.616   6.047  15.665 -0.4456 -0.5779 -0.4379
15061TIP3    H166598   3.603   6.001  15.582 -2.4637 -0.8254 -0.0364
15061TIP3    H266599   3.528   6.072  15.692  0.4029  2.1881  0.1430
15062TIP3   OH266600   3.495   1.928   0.023 -0.3668  0.0348  0.1595
15062TIP3    H166601   3.427   1.862   0.036  0.2857 -0.3888  1.5936
15062TIP3    H266602   3.449   2.011   0.029 -0.8758 -0.2524  0.3362
15063TIP3   OH266603   6.523   6.663   4.949 -0.0710 -0.3817 -0.2161
15063TIP3    H166604   6.609   6.706   4.952 -0.3289  0.1406 -0.1859
15063TIP3    H266605   6.523   6.603   5.024  0.6375 -1.1046 -0.7760
15064TIP3   OH266606   5.841   0.195  15.844  0.0270 -1.5580  0.6169
15064TIP3    H166607   5.848   0.122  15.781  1.4192 -0.0174 -1.1164
15064TIP3    H266608   5.899   0.262  15.809 -3.4797  1.6605  0.3755
15065TIP3   OH266609   4.256   5.796  12.348  0.2686 -0.4816  0.0641
15065TIP3    H166610   4.222   5.859  12.285  0.2987 -0.7442 -0.2121
15065TIP3    H266611   4.308   5.735  12.297 -1.1306 -1.7279  0.0748
15066TIP3   OH266612   2.716   3.977   3.470 -0.3249 -0.3431  0.2511
15066TIP3    H166613   2.745   3.940   3.387  1.7606  0.8988  0.3569
15066TIP3    H266614   2.785   3.954   3.533 -0.1540  1.5682  0.8417
15067TIP3   OH266615   3.110   0.405  12.756 -0.1471 -0.0850  0.2947
15067TIP3    H166616   3.015   0.394  12.765 -0.2449  1.0854  0.8192
15067TIP3    H266617   3.121   0.455  12.675 -0.0021  0.1809  0.4802
15068TIP3   OH266618   2.890   1.199  13.282  0.3564  0.2872  0.3513
15068TIP3    H166619   2.823   1.265  13.263  0.5781  0.0346 -1.4373
15068TIP3    H266620   2.862   1.121  13.233  1.6803  0.0146 -0.0082
15069TIP3   OH266621   1.937   1.707   4.474 -0.0217 -0.5364 -0.5531
15069TIP3    H166622   1.982   1.654   4.408  1.1665  1.3605 -1.3471
15069TIP3    H266623   1.848   1.715   4.442  0.8788  1.5810 -2.8333
15070TIP3   OH266624   5.228   5.280  15.606  0.0212  0.2712 -0.2766
15070TIP3    H166625   5.217   5.194  15.647  0.9095 -0.3799 -1.3269
15070TIP3    H266626   5.199   5.343  15.672 -0.6530 -0.8355  0.5083
15071TIP3   OH266627   3.131   6.107  13.022  0.4020 -0.1497  0.5796
15071TIP3    H166628   3.092   6.032  13.067 -0.3014  0.2178  0.6032
15071TIP3    H266629   3.179   6.069  12.949  1.0027 -0.7043  1.2569
15072TIP3   OH266630   5.088   2.045  12.140  0.1834  0.2803 -0.5107
15072TIP3    H166631   5.038   1.973  12.103 -0.3917  0.9825 -1.1023
15072TIP3    H266632   5.089   2.027  12.235 -0.8980  0.0930 -0.5289
15073TIP3   OH266633   1.785   5.817  13.717 -0.2631 -0.0930  0.1070
15073TIP3    H166634   1.766   5.736  13.670 -0.3223  0.1697 -0.3338
15073TIP3    H266635   1.854   5.859  13.666 -0.9169  0.6000 -0.2326
15074TIP3   OH266636   1.123   2.909   1.995 -0.1972  0.0884 -0.6248
15074TIP3    H166637   1.028   2.896   1.994 -0.3282  0.9900 -2.1864
15074TIP3    H266638   1.137   2.987   1.942  1.3210  0.7902  0.7170
15075TIP3   OH266639   6.570   1.409   1.114  0.2621 -0.3261 -0.3431
15075TIP3    H166640   6.510   1.473   1.152 -1.6726 -1.9763 -0.4001
15075TIP3    H266641   6.577   1.340   1.180  0.5078 -1.0724 -1.1239
15076TIP3   OH266642   2.391   1.954   2.686  0.1665 -0.6647  0.4553
15076TIP3    H166643   2.298   1.974   2.679  0.0837 -1.3212 -0.4687
15076TIP3    H266644   2.433   2.040   2.695 -0.4297 -0.2702 -0.3472
15077TIP3   OH266645   3.548   5.350  16.198  0.3793 -0.6303  0.0052
15077TIP3    H166646   3.481   5.341  16.130  0.6739  1.6652 -0.6772
15077TIP3    H266647   3.526   5.283  16.263 -3.1355  0.6208  0.2860
15078TIP3   OH266648   3.703   3.789   5.160  0.3202  0.2079 -0.2249
15078TIP3    H166649   3.720   3.828   5.245  1.1777 -0.8550  0.1095
15078TIP3    H266650   3.638   3.721   5.176 -0.2263  0.6324 -0.5900
15079TIP3   OH266651   6.651   5.991   4.392 -0.4299 -0.0273 -0.1079
15079TIP3    H166652   6.633   6.067   4.335 -1.2646  0.1332  0.3584
15079TIP3    H266653   6.600   6.008   4.471 -0.1899 -0.8216  0.2220
15080TIP3   OH266654   4.760   3.291  11.478  0.0201 -0.0969  0.0202
15080TIP3    H166655   4.855   3.278  11.467  0.0584  0.0440  0.1749
15080TIP3    H266656   4.734   3.225  11.542  0.5616  1.7549  2.2932
15081TIP3   OH266657   5.425   4.604   3.627  0.0468 -0.5008  0.0918
15081TIP3    H166658   5.431   4.577   3.535 -2.2819  0.6238 -0.4557
15081TIP3    H266659   5.385   4.690   3.624 -0.0909 -0.4476  2.1806
15082TIP3   OH266660   4.209   2.571  14.313  0.3300  0.3857  0.3755
15082TIP3    H166661   4.264   2.582  14.391 -0.5191 -1.1199  1.2453
15082TIP3    H266662   4.171   2.657  14.298  0.5902  0.7337  1.5767
15083TIP3   OH266663   4.730   2.901  15.350 -0.6885 -0.3178 -0.0495
15083TIP3    H166664   4.661   2.847  15.390  0.7191 -0.1286  2.9316
15083TIP3    H266665   4.803   2.841  15.338 -0.2447  0.1911  0.0878
15084TIP3   OH266666   4.788   5.218  15.069 -0.0830  0.7824  0.1559
15084TIP3    H166667   4.694   5.210  15.086 -0.3829  2.1530 -0.7185
15084TIP3    H266668   4.814   5.299  15.111  0.7985  0.2441  0.6782
15085TIP3   OH266669   5.935   2.585  15.938  0.1088  0.1565  0.5437
15085TIP3    H166670   5.953   2.632  16.020  2.6242 -1.3542  0.9647
15085TIP3    H266671   6.000   2.620  15.877  2.8054 -3.2621  1.1635
15086TIP3   OH266672   6.695   5.430  14.663 -0.4417 -0.3129  0.0834
15086TIP3    H166673   6.697   5.340  14.629 -1.9652 -0.1055 -0.6599
15086TIP3    H266674   6.636   5.425  14.738 -0.0537 -0.0316  0.4121
15087TIP3   OH266675   5.536   4.991   2.184 -0.3465  0.1463  0.1611
15087TIP3    H166676   5.609   5.053   2.186 -0.5609  0.4921 -1.2718
15087TIP3    H266677   5.507   4.984   2.274 -0.7785  2.6911  0.2761
15088TIP3   OH266678   2.209   3.383  14.728  0.1573  0.3381 -0.1750
15088TIP3    H166679   2.219   3.290  14.710  0.9105 -0.1720  2.5396
15088TIP3    H266680   2.297   3.419  14.720  0.4897  0.1270  1.9969
15089TIP3   OH266681   2.854   1.908   2.753  0.3804 -0.3217 -0.2240
15089TIP3    H166682   2.863   1.824   2.709  1.3911  0.5157 -1.7419
15089TIP3    H266683   2.942   1.947   2.749 -0.6122  2.0310 -2.2805
15090TIP3   OH266684   3.696   1.174   4.841 -0.0469 -0.2607  0.3162
15090TIP3    H166685   3.706   1.184   4.936 -1.1529  1.8120  0.2697
15090TIP3    H266686   3.611   1.131   4.830  0.0674 -0.4730  0.2673
15091TIP3   OH266687   3.499   6.729  16.608 -0.2036 -0.3445 -0.0406
15091TIP3    H166688   3.520   6.747  16.700 -0.8716 -2.9432  0.7134
15091TIP3    H266689   3.403   6.723  16.607 -0.2671  0.5685 -1.1288
15092TIP3   OH266690   3.362   2.956  15.119  0.0515 -0.4703  0.3760
15092TIP3    H166691   3.374   3.050  15.105 -0.0805 -0.7349 -1.7279
15092TIP3    H266692   3.433   2.932  15.179 -0.1385  1.0220  1.2433
15093TIP3   OH266693   1.727   1.591   0.387 -0.4770  0.5033  0.1495
15093TIP3    H166694   1.659   1.547   0.335 -2.0798  1.5190  1.3033
15093TIP3    H266695   1.742   1.674   0.340  0.8847 -0.2293 -0.7659
15094TIP3   OH266696   2.380   0.810   2.936 -0.3657 -0.1459 -0.0901
15094TIP3    H166697   2.475   0.820   2.949 -0.3112 -0.5701 -0.1676
15094TIP3    H266698   2.343   0.885   2.983  0.0258  0.2389 -0.3781
15095TIP3   OH266699   5.246   5.569   0.462  0.1029  0.1055 -0.0206
15095TIP3    H166700   5.242   5.555   0.367  0.1951 -0.0909  0.0034
15095TIP3    H266701   5.271   5.660   0.471  0.1625  0.1069 -0.1858
15096TIP3   OH266702   5.136   3.786  12.783 -0.3266  0.3667  0.6524
15096TIP3    H166703   5.063   3.725  12.795  0.7048 -0.9972  0.3039
15096TIP3    H266704   5.190   3.746  12.714  1.0019  1.0622  1.2432
15097TIP3   OH266705   3.259   0.169  11.170  0.3034 -0.1437  0.6052
15097TIP3    H166706   3.268   0.216  11.253  1.3805  0.8248 -0.0302
15097TIP3    H266707   3.164   0.163  11.157  0.1022 -0.4665  1.9635
15098TIP3   OH266708   0.582   4.337   1.045  0.1151 -0.2364 -0.2566
15098TIP3    H166709   0.559   4.286   0.968  1.6618  0.5515 -1.2913
15098TIP3    H266710   0.501   4.383   1.068 -0.5711 -1.0877 -0.9086
15099TIP3   OH266711   4.063   2.738  13.434 -0.2791 -0.1197  0.4745
15099TIP3    H166712   4.091   2.805  13.372 -0.1891 -0.0240  0.6158
15099TIP3    H266713   4.064   2.783  13.519 -1.9547  0.2211  0.3467
15100TIP3   OH266714   2.007   1.096   1.836 -0.0113 -0.6003 -0.0202
15100TIP3    H166715   2.014   1.109   1.741 -1.3003 -0.1292 -0.0652
15100TIP3    H266716   2.079   1.036   1.857  0.1357 -0.9116 -1.3278
15101TIP3   OH266717   0.578   4.037  11.232 -0.4244 -0.1893 -0.3790
15101TIP3    H166718   0.578   4.095  11.308 -0.6588  0.0970 -0.5932
15101TIP3    H266719   0.549   4.092  11.160 -2.4495 -1.0023 -0.2439
15102TIP3   OH266720   3.398   1.067   5.294  0.1488 -0.0538 -0.3522
15102TIP3    H166721   3.342   1.039   5.366 -0.4813 -1.0562 -1.2180
15102TIP3    H266722   3.485   1.077   5.334 -0.2023 -0.5644  0.5512
15103TIP3   OH266723   0.362   4.090   0.454 -0.5322 -0.2237  0.0586
15103TIP3    H166724   0.428   4.028   0.485 -0.6176 -1.1727 -1.5727
15103TIP3    H266725   0.380   4.170   0.504  2.0638 -0.3403 -0.5374
15104TIP3   OH266726   5.818   0.017  17.284 -0.3699 -0.0687 -0.2036
15104TIP3    H166727   5.837   0.111  17.280 -0.2442 -0.0672  0.3352
15104TIP3    H266728   5.735   0.007  17.237 -1.4845  0.6333  1.5267
15105TIP3   OH266729   1.820   2.843   1.036  0.3916  0.4902  0.2826
15105TIP3    H166730   1.780   2.804   1.113  0.5695 -1.1021 -0.3925
15105TIP3    H266731   1.806   2.780   0.966  2.0080  0.9467 -0.5257
15106TIP3   OH266732   6.504   6.639   1.696 -0.5795  0.2598  0.1024
15106TIP3    H166733   6.479   6.685   1.776 -0.0472  0.5623  0.0987
15106TIP3    H266734   6.587   6.679   1.670 -2.2734  2.5021 -2.4233
15107TIP3   OH266735   5.679   4.639  15.060  0.6106 -0.0755 -0.0565
15107TIP3    H166736   5.595   4.666  15.022  1.2100  0.0826 -1.3116
15107TIP3    H266737   5.661   4.633  15.154 -0.3496  1.6877 -0.0742
15108TIP3   OH266738   1.023   1.973  12.039 -0.0960  0.2570 -0.2738
15108TIP3    H166739   0.972   2.055  12.040  0.2932  0.5040 -0.6461
15108TIP3    H266740   0.975   1.915  12.099 -1.1447  0.2900 -1.0359
15109TIP3   OH266741   2.232   1.063  13.415  0.0503  0.4092 -0.0224
15109TIP3    H166742   2.255   1.013  13.493  0.6963  0.6607 -0.0528
15109TIP3    H266743   2.190   0.999  13.357  1.1801 -0.1954 -0.2078
15110TIP3   OH266744   2.247   2.799  15.251  0.8050 -0.5111  0.1021
15110TIP3    H166745   2.331   2.843  15.262  1.5188 -1.4814 -1.2014
15110TIP3    H266746   2.237   2.747  15.331 -0.0373  1.8631  1.6504
15111TIP3   OH266747   5.725   2.349  10.725  0.1676  0.3331 -0.2808
15111TIP3    H166748   5.808   2.313  10.694 -0.0584 -0.3684 -0.0988
15111TIP3    H266749   5.659   2.290  10.688 -0.0980 -0.6614  1.6578
15112TIP3   OH266750   6.192   2.403  12.296  0.4877 -0.0907 -0.2025
15112TIP3    H166751   6.181   2.308  12.288  0.9381 -0.0588 -1.3327
15112TIP3    H266752   6.126   2.429  12.360 -0.6286 -0.9668 -0.9602
15113TIP3   OH266753   6.300   2.289   6.069 -0.1554 -0.0456  0.4965
15113TIP3    H166754   6.323   2.366   6.016 -0.2276 -0.5251 -0.2414
15113TIP3    H266755   6.212   2.310   6.102 -1.9331 -1.3532 -2.8374
15114TIP3   OH266756   1.285   2.368  16.791 -0.3509  0.3720 -0.5713
15114TIP3    H166757   1.305   2.275  16.798 -1.6049  0.0670 -0.7499
15114TIP3    H266758   1.351   2.403  16.731 -0.7708 -0.7059 -1.7049
15115TIP3   OH266759   4.319   1.754   0.127 -0.4891 -0.0725  0.8064
15115TIP3    H166760   4.322   1.710   0.043  0.8743 -0.3595  0.9878
15115TIP3    H266761   4.331   1.685   0.192  1.3236  0.4660  1.1050
15116TIP3   OH266762   5.707   1.934   5.937  0.0452  0.5257 -0.3620
15116TIP3    H166763   5.672   1.859   5.984  1.0686 -0.9167 -1.7954
15116TIP3    H266764   5.641   1.955   5.871 -0.1627  0.7901 -0.0729
15117TIP3   OH266765   6.187   2.320  11.422 -0.2209 -0.2376  0.2742
15117TIP3    H166766   6.225   2.246  11.375  0.6917  0.7978 -0.6721
15117TIP3    H266767   6.220   2.311  11.512 -1.6635 -2.0103  0.6897
15118TIP3   OH266768   6.350   5.462  12.165 -0.0896  0.0926 -0.3062
15118TIP3    H166769   6.320   5.425  12.083 -1.1489 -0.7221  0.4274
15118TIP3    H266770   6.411   5.397  12.200 -1.2137 -0.5512  0.5193
15119TIP3   OH266771   1.822   3.928   1.727  0.4842  0.1775 -0.0551
15119TIP3    H166772   1.834   3.894   1.816  0.4702 -0.1964 -0.1978
15119TIP3    H266773   1.752   3.875   1.690 -0.0928  0.8823 -0.0073
15120TIP3   OH266774   1.270   3.134   2.229  0.2703  0.5151 -0.3930
15120TIP3    H166775   1.357   3.097   2.242 -0.8524 -1.4395  2.9402
15120TIP3    H266776   1.273   3.220   2.271  0.5608  0.3538 -0.0803
15121TIP3   OH266777   5.036   1.868  16.705  0.7729 -0.0726 -0.0980
15121TIP3    H166778   5.024   1.937  16.640 -2.4657 -1.4776 -1.1826
15121TIP3    H266779   5.118   1.825  16.680  0.9190  1.0252 -1.6563
15122TIP3   OH266780   2.312   3.240  15.899 -0.0539  0.5933 -0.1654
15122TIP3    H166781   2.249   3.309  15.921 -0.5190  0.3916 -0.8578
15122TIP3    H266782   2.351   3.269  15.816  1.9490  1.5327  1.0159
15123TIP3   OH266783   3.245   1.377   5.904  0.4525  0.0384 -0.9356
15123TIP3    H166784   3.286   1.291   5.913  0.8292  0.2657 -0.4531
15123TIP3    H266785   3.307   1.429   5.854  1.7883  1.0308  1.5726
15124TIP3   OH266786   2.288   5.785   4.364 -0.1956 -0.2818  0.6134
15124TIP3    H166787   2.305   5.713   4.303 -2.8957  1.6865 -2.8562
15124TIP3    H266788   2.349   5.853   4.338  0.7970 -0.4439  2.3634
15125TIP3   OH266789   3.597   0.569   5.323 -0.2192 -0.5530 -0.0442
15125TIP3    H166790   3.677   0.596   5.277  0.2567  1.5937  1.8350
15125TIP3    H266791   3.626   0.552   5.413 -1.7559 -0.3356  0.5295
15126TIP3   OH266792   3.739   2.229   5.982 -0.4754 -0.8065 -0.0751
15126TIP3    H166793   3.736   2.236   6.077 -1.9794  0.1589 -0.1688
15126TIP3    H266794   3.737   2.320   5.951  0.1948 -1.1008 -1.0349
15127TIP3   OH266795   0.009   5.141   4.061  0.1634 -0.2702 -0.5415
15127TIP3    H166796   0.104   5.139   4.070 -0.0106 -0.8286  2.0485
15127TIP3    H266797  -0.007   5.203   3.990  2.4274  1.4022  0.2703
15128TIP3   OH266798   1.520   6.134  15.829  0.5443 -0.4107  0.0468
15128TIP3    H166799   1.477   6.169  15.752 -0.8183 -0.8244  0.5975
15128TIP3    H266800   1.452   6.130  15.896  1.7943  0.4326  1.4562
15129TIP3   OH266801   2.511   0.234  16.348 -0.2233  0.6407  0.2517
15129TIP3    H166802   2.565   0.166  16.387 -1.0808  0.3587  0.9711
15129TIP3    H266803   2.478   0.195  16.268 -0.6686  0.2225  0.6336
15130TIP3   OH266804   1.219   3.328  11.131 -0.1729  0.3946 -0.0101
15130TIP3    H166805   1.222   3.328  11.035 -0.3598 -0.0148 -0.0186
15130TIP3    H266806   1.132   3.292  11.152  0.1726 -0.2700  0.3158
15131TIP3   OH266807   0.956   0.979   2.800 -0.4573 -0.0180 -0.3347
15131TIP3    H166808   0.868   0.968   2.763 -0.3134  0.1448 -0.7330
15131TIP3    H266809   1.013   0.986   2.723  0.0170 -0.9868 -0.0957
15132TIP3   OH266810   4.145   6.051  13.669  0.6957  0.5812 -0.1389
15132TIP3    H166811   4.055   6.082  13.665  0.7928  0.9166  0.1559
15132TIP3    H266812   4.161   6.037  13.763  0.5494 -0.6934 -0.2878
15133TIP3   OH266813   1.807   5.370   3.534  0.0771  0.2725  0.0953
15133TIP3    H166814   1.777   5.449   3.490 -0.0567  0.0141 -0.2880
15133TIP3    H266815   1.838   5.399   3.619  0.3074  0.7783 -0.1582
15134TIP3   OH266816   3.750   0.314  12.579 -0.3007 -0.0136  0.1838
15134TIP3    H166817   3.740   0.361  12.496 -0.0867  0.8325  0.6246
15134TIP3    H266818   3.843   0.319  12.599 -0.1429 -1.3027 -0.1333
15135TIP3   OH266819   3.844   3.313   3.619  0.0122  0.0837  0.1896
15135TIP3    H166820   3.853   3.236   3.563 -0.5768  1.9563 -2.6645
15135TIP3    H266821   3.770   3.292   3.677 -0.3057 -1.4024 -0.7057
15136TIP3   OH266822   4.042   6.679  11.262  0.4181 -0.4829  0.7278
15136TIP3    H166823   4.135   6.658  11.268  0.1737 -2.3103 -0.7743
15136TIP3    H266824   3.999   6.614  11.317 -0.0569 -0.5850  0.2454
15137TIP3   OH266825   5.383   2.615   5.136 -0.2017  0.1127  0.0079
15137TIP3    H166826   5.356   2.707   5.133  1.7699  0.8295  1.7003
15137TIP3    H266827   5.315   2.572   5.188 -0.7218  0.7783 -0.1015
15138TIP3   OH266828   4.536   3.847   5.113  0.0935  0.1833  0.0459
15138TIP3    H166829   4.578   3.921   5.157  2.1330  0.1119 -1.6390
15138TIP3    H266830   4.525   3.876   5.022 -0.2228 -1.1352 -0.3619
15139TIP3   OH266831   2.707   5.342  15.396  0.0587  0.3758  0.4574
15139TIP3    H166832   2.798   5.347  15.426  0.5876 -0.7658 -0.8046
15139TIP3    H266833   2.712   5.360  15.302 -0.6254 -2.1386 -0.1352
15140TIP3   OH266834   0.505   5.739   6.166 -0.0670  0.3850  0.1041
15140TIP3    H166835   0.530   5.664   6.111  1.3983  0.1901  0.9846
15140TIP3    H266836   0.498   5.702   6.254 -0.1102  1.1383  0.4231
15141TIP3   OH266837   4.888   4.328   5.501  0.4974  0.1284  0.6068
15141TIP3    H166838   4.875   4.423   5.491 -1.2249 -0.2685 -2.2073
15141TIP3    H266839   4.829   4.303   5.571 -0.9645  0.8518 -0.3081
15142TIP3   OH266840   0.264   0.420  13.951 -0.1225 -0.0083  0.0735
15142TIP3    H166841   0.184   0.472  13.944 -0.3475 -0.4370 -0.7306
15142TIP3    H266842   0.250   0.363  14.027 -1.9071 -2.2369 -1.7624
15143TIP3   OH266843   0.918   5.141   5.333  0.6127  0.0356  0.2299
15143TIP3    H166844   0.835   5.137   5.286 -0.1297 -0.4517  1.5240
15143TIP3    H266845   0.975   5.080   5.286 -0.2305 -0.7444  0.1893
15144TIP3   OH266846   2.080   5.388   6.321  0.3182  0.1524  0.0154
15144TIP3    H166847   2.028   5.466   6.301 -0.6235 -0.8793 -1.7725
15144TIP3    H266848   2.171   5.419   6.319 -0.0994  1.5558  1.1658
15145TIP3   OH266849   5.340   2.436   3.714 -0.0604  0.0340  0.2051
15145TIP3    H166850   5.274   2.373   3.685  0.3840 -0.8693  1.0859
15145TIP3    H266851   5.398   2.447   3.638 -0.2379 -0.4903 -0.0109
15146TIP3   OH266852   3.376   2.820  14.793  0.4973  0.6661 -0.5328
15146TIP3    H166853   3.468   2.800  14.774  0.7355  2.2201 -1.1878
15146TIP3    H266854   3.327   2.777  14.724  0.9491  1.8346 -1.6112
15147TIP3   OH266855   5.469   4.487  11.219 -0.5122 -0.0957 -0.3644
15147TIP3    H166856   5.375   4.499  11.201 -0.6118 -0.1431  0.1236
15147TIP3    H266857   5.492   4.559  11.277  0.2585  1.2059 -2.1737
15148TIP3   OH266858   2.679   6.745  13.770  0.1981  0.4944 -0.7929
15148TIP3    H166859   2.702   6.804  13.698  1.7948 -1.0976 -1.6588
15148TIP3    H266860   2.762   6.724  13.812 -0.6419  0.9412  1.2269
15149TIP3   OH266861   2.558   5.106   1.919  0.5042  0.5180  0.2675
15149TIP3    H166862   2.638   5.152   1.893 -0.2899  2.1543  0.5935
15149TIP3    H266863   2.582   5.013   1.917  1.6352  0.7785 -2.3167
15150TIP3   OH266864   5.194   5.040  15.174 -0.3331  0.1419 -0.9206
15150TIP3    H166865   5.106   5.008  15.156 -0.7835 -0.0307  1.3225
15150TIP3    H266866   5.184   5.135  15.181 -0.1778  0.1983 -1.3986
15151TIP3   OH266867   6.675   5.020   0.243 -0.1471  0.2364  0.1376
15151TIP3    H166868   6.598   5.072   0.267 -0.0953 -0.3336  1.5945
15151TIP3    H266869   6.738   5.035   0.312 -0.1933 -1.8552  0.7287
15152TIP3   OH266870   5.711   4.476  12.291 -0.0291 -0.3462 -0.3207
15152TIP3    H166871   5.774   4.457  12.360  0.7617 -2.6670 -1.5800
15152TIP3    H266872   5.678   4.563  12.312  2.0073  0.0524  1.5829
15153TIP3   OH266873   1.667   1.508   6.377  0.0659  0.0184  0.2344
15153TIP3    H166874   1.625   1.449   6.440 -0.1973  0.0257  0.0676
15153TIP3    H266875   1.689   1.586   6.427 -0.4285  0.1502  0.2460
15154TIP3   OH266876   5.737   5.289  13.595 -0.4019 -0.0877 -0.5061
15154TIP3    H166877   5.690   5.316  13.516 -0.7075 -1.2518 -0.7471
15154TIP3    H266878   5.677   5.310  13.667 -0.1481  0.9176 -0.5807
15155TIP3   OH266879   0.354   0.021  14.405  0.2818 -0.0001  0.1299
15155TIP3    H166880   0.281   0.037  14.465  0.4293 -0.8575  0.5514
15155TIP3    H266881   0.312  -0.001  14.321  0.0740  0.9152 -0.0128
15156TIP3   OH266882   5.053   5.891  15.521 -0.0167  0.8802  0.5355
15156TIP3    H166883   5.146   5.892  15.544  0.1551  1.0976 -0.1364
15156TIP3    H266884   5.017   5.968  15.566  0.6186  2.1741 -1.0495
15157TIP3   OH266885   1.603   5.467   2.423  0.3694  0.3588  0.5550
15157TIP3    H166886   1.579   5.442   2.333 -0.6038 -0.7265  1.0948
15157TIP3    H266887   1.664   5.400   2.452 -0.9498 -0.5086  1.4202
15158TIP3   OH266888   5.508   5.678  16.051  0.0698 -0.2685  0.4463
15158TIP3    H166889   5.439   5.674  16.118  1.2370 -0.8916  1.6439
15158TIP3    H266890   5.523   5.586  16.027  0.8688 -0.1927  0.6245
15159TIP3   OH266891   3.638   5.901  12.499 -0.5695 -0.2335 -0.3166
15159TIP3    H166892   3.624   5.939  12.412  0.2260  0.6929 -0.0533
15159TIP3    H266893   3.553   5.866  12.524 -1.0254  0.2958 -1.0916
15160TIP3   OH266894   6.253   6.270   0.731 -0.0891  0.8143  0.6748
15160TIP3    H166895   6.254   6.360   0.697  2.1136  0.8474  0.6717
15160TIP3    H266896   6.257   6.215   0.652 -2.0676  0.6481  0.6446
15161TIP3   OH266897   2.794   0.385  12.453  0.2924 -0.4525 -1.1240
15161TIP3    H166898   2.757   0.334  12.524  0.4455  0.3025 -0.4846
15161TIP3    H266899   2.719   0.406  12.397 -0.3064  1.0190  0.1291
15162TIP3   OH266900   2.013   3.542  12.981 -0.2764  0.2219  0.5741
15162TIP3    H166901   1.985   3.632  12.995 -0.8888  0.1177  0.0623
15162TIP3    H266902   1.940   3.489  13.012  0.4691 -0.1349  1.7886
15163TIP3   OH266903   5.803   3.739   0.579  0.3604 -0.5957 -0.5058
15163TIP3    H166904   5.801   3.650   0.613  0.5427 -0.5135 -0.2771
15163TIP3    H266905   5.797   3.795   0.657  1.4028 -0.4051 -0.5471
15164TIP3   OH266906   3.662   0.461   2.300  0.2347  0.2732  0.6631
15164TIP3    H166907   3.582   0.410   2.303  1.7919 -2.3345  0.7631
15164TIP3    H266908   3.723   0.414   2.358  2.5398  0.7813 -1.1805
15165TIP3   OH266909   0.850   3.141   1.310  0.0107 -0.0054  0.6482
15165TIP3    H166910   0.902   3.061   1.317 -0.3556 -0.3889 -0.7891
15165TIP3    H266911   0.832   3.150   1.217  0.9850  2.3838  0.6255
15166TIP3   OH266912   0.116   4.390   0.720  0.0911  0.6009 -0.5509
15166TIP3    H166913   0.118   4.313   0.778  0.8158  1.7834  1.0867
15166TIP3    H266914   0.205   4.399   0.688  0.0220  0.7740 -0.6961
15167TIP3   OH266915   4.335   1.201  14.002 -0.6092  0.4697 -0.0431
15167TIP3    H166916   4.335   1.200  14.098  2.8290 -1.5820  0.0945
15167TIP3    H266917   4.358   1.111  13.977  2.0068  1.6752 -2.6225
15168TIP3   OH266918   3.365   3.437  15.522 -0.0810  0.2467 -0.6867
15168TIP3    H166919   3.356   3.430  15.426  1.4266 -1.5584 -0.7525
15168TIP3    H266920   3.449   3.396  15.541 -0.1059  1.0624  1.3909
15169TIP3   OH266921   3.947   5.397   3.416 -0.6220 -0.3170 -0.2766
15169TIP3    H166922   4.023   5.454   3.401  1.6401 -2.8102  0.8597
15169TIP3    H266923   3.924   5.412   3.508 -0.5630 -0.6090 -0.2133
15170TIP3   OH266924   5.610   1.036   2.461  0.2178 -0.7079 -0.0934
15170TIP3    H166925   5.604   0.941   2.451 -1.9533 -1.4939  5.1908
15170TIP3    H266926   5.536   1.071   2.412  1.1415 -1.5887 -2.2277
15171TIP3   OH266927   0.845   5.750   1.435  0.2940  0.1149 -0.5452
15171TIP3    H166928   0.890   5.689   1.493  0.8658  0.2350 -0.8528
15171TIP3    H266929   0.895   5.831   1.442  1.3983 -0.3327 -2.4354
15172TIP3   OH266930   2.710   4.651   4.177  0.4918  0.2040  0.6413
15172TIP3    H166931   2.731   4.743   4.162 -0.2100  0.1728 -0.6212
15172TIP3    H266932   2.715   4.641   4.272 -2.7782  2.3929  1.2079
15173TIP3   OH266933   6.409   6.622   2.150  0.4066  0.1822 -0.1238
15173TIP3    H166934   6.489   6.656   2.191 -0.7358  3.9076 -0.5719
15173TIP3    H266935   6.339   6.648   2.210 -0.7168 -0.4898 -1.1068
15174TIP3   OH266936   1.159   3.832   3.899  0.3780  0.6403 -0.2575
15174TIP3    H166937   1.160   3.736   3.897  1.5362  0.6493 -1.3388
15174TIP3    H266938   1.088   3.857   3.840  1.1235  0.4329 -1.2766
15175TIP3   OH266939   2.871   3.462   0.314 -0.1549 -0.6459 -0.7878
15175TIP3    H166940   2.965   3.476   0.300 -0.5308  1.5477 -1.3931
15175TIP3    H266941   2.848   3.525   0.383 -1.2493 -0.9446 -0.8681
15176TIP3   OH266942   6.365   0.888  17.063  0.3172 -0.1122  0.3159
15176TIP3    H166943   6.343   0.844  16.981  2.8099 -1.1446  0.0886
15176TIP3    H266944   6.283   0.927  17.093 -0.7474  0.0267 -2.4801
15177TIP3   OH266945   2.976   1.290   5.301 -0.1745 -0.0341  0.4756
15177TIP3    H166946   2.966   1.301   5.396  0.0830 -1.2853  0.6539
15177TIP3    H266947   2.926   1.211   5.281  3.5107 -2.5702  0.3446
15178TIP3   OH266948   1.048   1.990   0.087  0.1223 -0.4060  0.3726
15178TIP3    H166949   1.119   1.984   0.152 -0.5106 -0.4303  1.0697
15178TIP3    H266950   1.044   2.083   0.065  0.3828 -0.4061  0.3163
15179TIP3   OH266951   4.818   4.195  16.198  0.5366  0.4876 -0.8445
15179TIP3    H166952   4.838   4.102  16.204 -1.7810  0.0115  1.2399
15179TIP3    H266953   4.744   4.200  16.138 -0.2037  0.7696  0.0570
15180TIP3   OH266954   1.535   0.750   3.004  0.3640 -0.3268  0.2883
15180TIP3    H166955   1.453   0.726   3.046 -0.2453 -1.3102 -1.3521
15180TIP3    H266956   1.579   0.667   2.987  1.7533  0.1898  1.1998
15181TIP3   OH266957   1.205   6.662  16.666  0.3628 -0.3221 -0.1622
15181TIP3    H166958   1.197   6.654  16.761  1.3804  0.4561 -0.0063
15181TIP3    H266959   1.124   6.705  16.639  0.1008 -0.4795  0.3557
15182TIP3   OH266960   1.305   3.021   3.705  0.0300 -1.2164 -0.2952
15182TIP3    H166961   1.353   3.055   3.629  1.9926  1.0978  1.7810
15182TIP3    H266962   1.311   2.926   3.696  3.3740 -1.0503 -1.2361
15183TIP3   OH266963   2.616   2.305  11.155 -0.2882  0.2437 -0.1204
15183TIP3    H166964   2.537   2.262  11.122 -0.6680  0.1929  0.8468
15183TIP3    H266965   2.590   2.346  11.237  0.5648  0.6646 -0.0434
15184TIP3   OH266966   6.615   0.056   2.496 -0.4007 -0.2327 -0.0045
15184TIP3    H166967   6.610   0.101   2.581 -0.3794 -0.2252 -0.0073
15184TIP3    H266968   6.530   0.073   2.455 -0.9990 -1.5108  0.6558
15185TIP3   OH266969   2.663   2.424  10.922 -0.4327  0.2140  0.0086
15185TIP3    H166970   2.660   2.376  11.004 -1.6200 -1.6651 -1.0446
15185TIP3    H266971   2.588   2.483  10.925 -2.2110 -1.8447 -0.7602
15186TIP3   OH266972   6.303   0.231   6.059  0.0801  0.2669  0.0221
15186TIP3    H166973   6.291   0.319   6.094  2.3008  0.5958  0.1180
15186TIP3    H266974   6.351   0.185   6.127  0.6079 -0.4224 -0.7997
15187TIP3   OH266975   3.320   4.755  16.482 -0.6416 -0.0604 -0.1188
15187TIP3    H166976   3.337   4.679  16.538  0.9056  0.8003  0.6730
15187TIP3    H266977   3.268   4.721  16.410 -1.3708 -1.5357  1.0348
15188TIP3   OH266978   4.738   6.369  13.419  0.6744 -0.3331  0.4617
15188TIP3    H166979   4.705   6.386  13.331  0.7743 -0.3665  0.4177
15188TIP3    H266980   4.665   6.392  13.477  0.6039 -0.3252  0.3704
15189TIP3   OH266981   4.475   3.658  17.275 -0.0703  0.1378 -0.3772
15189TIP3    H166982   4.430   3.712  17.210 -0.0312 -0.4078 -0.8679
15189TIP3    H266983   4.480   3.713  17.353  0.5402  1.0799 -1.0620
15190TIP3   OH266984   3.133   5.844   2.716 -0.6625 -0.3008 -0.0087
15190TIP3    H166985   3.088   5.872   2.796 -1.3933  0.7615 -0.7759
15190TIP3    H266986   3.139   5.923   2.663  0.2686 -0.8886 -0.8038
15191TIP3   OH266987   4.284   1.061   4.778  0.0755 -0.0199  0.1937
15191TIP3    H166988   4.285   1.071   4.873  0.3439 -0.3328  0.2269
15191TIP3    H266989   4.371   1.089   4.750  0.0258 -0.0081  0.0509
15192TIP3   OH266990   0.637   6.521  11.324 -0.1557  0.4732 -0.1064
15192TIP3    H166991   0.651   6.541  11.231 -0.4179 -0.6383 -0.3989
15192TIP3    H266992   0.589   6.596  11.358 -1.1088  0.3679 -1.1572
15193TIP3   OH266993   4.574   1.486   5.414  0.5481 -0.3055 -0.2514
15193TIP3    H166994   4.491   1.514   5.376 -0.2164 -1.6094  0.4098
15193TIP3    H266995   4.637   1.493   5.342 -0.4177 -0.6756 -1.1551
15194TIP3   OH266996   1.074   4.039  11.454  0.6936  0.0674  0.3022
15194TIP3    H166997   1.124   3.981  11.511  2.0441 -0.6069 -1.4711
15194TIP3    H266998   1.140   4.092  11.410 -0.3517  1.0627 -0.1098
15195TIP3   OH266999   4.459   2.800   0.742  1.2928 -0.0151  0.3935
15195TIP3    H167000   4.365   2.784   0.746  1.1399  0.7946  0.1573
15195TIP3    H267001   4.491   2.739   0.676  0.5348  1.4494 -1.3784
15196TIP3   OH267002   3.360   6.343   2.492 -0.1165  0.4841 -0.1014
15196TIP3    H167003   3.352   6.433   2.525 -1.6798  0.0368  0.8434
15196TIP3    H267004   3.438   6.308   2.536  0.2591  1.2325 -0.1572
15197TIP3   OH267005   0.165   1.811  12.085 -0.2390  0.1166  0.3409
15197TIP3    H167006   0.191   1.817  12.177  2.1386 -0.9703 -0.1736
15197TIP3    H267007   0.241   1.772  12.041 -1.1052  1.0636 -2.1891
15198TIP3   OH267008   5.754   5.566   0.294 -0.2601 -0.0599 -0.2122
15198TIP3    H167009   5.660   5.578   0.280 -0.2731 -0.2564 -0.3065
15198TIP3    H267010   5.791   5.653   0.287 -0.4231  0.0040 -0.2879
15199TIP3   OH267011   4.920   6.742  12.586 -0.5452 -0.4146  0.6021
15199TIP3    H167012   4.990   6.807  12.595 -1.3848  0.4890  0.8359
15199TIP3    H267013   4.844   6.793  12.560 -0.8098 -1.5718 -0.9957
15200TIP3   OH267014   5.495   5.891   4.802 -0.7424  0.2757 -0.8382
15200TIP3    H167015   5.577   5.932   4.774  0.2325  1.0320  2.6441
15200TIP3    H267016   5.433   5.964   4.809 -0.8412  0.1714 -0.6259
15201TIP3   OH267017   3.641   1.266   2.952  0.0748 -0.2456 -0.2430
15201TIP3    H167018   3.619   1.347   2.998  0.0129 -0.2588 -0.2497
15201TIP3    H267019   3.568   1.252   2.892  0.0940 -0.2969 -0.2540
15202TIP3   OH267020   1.870   1.044   0.484 -0.2327  0.2508  0.1557
15202TIP3    H167021   1.934   1.013   0.548  0.4097 -0.2349 -0.6929
15202TIP3    H267022   1.793   0.988   0.497  0.7006 -1.3698 -0.9561
15203TIP3   OH267023   3.313   1.605  14.265 -0.1184  0.3327 -0.0425
15203TIP3    H167024   3.312   1.642  14.177  0.7943  0.8763  0.1543
15203TIP3    H267025   3.385   1.651  14.309 -1.1115  0.7151  1.2606
15204TIP3   OH267026   3.904   1.303  11.814  0.4356 -0.7895  0.0573
15204TIP3    H167027   3.973   1.325  11.751  1.1086  2.1186  1.6139
15204TIP3    H267028   3.822   1.316  11.766  0.9481  0.2159 -0.5712
15205TIP3   OH267029   2.632   5.048  14.224  0.0706 -0.3850 -0.3863
15205TIP3    H167030   2.561   5.107  14.199  1.3713  1.5450  0.2619
15205TIP3    H267031   2.667   5.017  14.140  0.3803  1.0717 -0.8335
15206TIP3   OH267032   2.837   0.937   0.773  0.1042 -0.7140  0.1451
15206TIP3    H167033   2.755   0.891   0.758  0.3907 -0.6756 -1.7702
15206TIP3    H267034   2.896   0.870   0.807  0.4081 -1.7700 -2.2513
15207TIP3   OH267035   5.099   5.079  12.403 -1.0151  0.0499  0.7125
15207TIP3    H167036   5.044   5.124  12.467  0.7271  0.7658  1.7761
15207TIP3    H267037   5.147   5.014  12.453 -0.1027  0.1672  0.0115
15208TIP3   OH267038   2.963   6.148  14.810  0.2826  0.0327  0.3737
15208TIP3    H167039   2.991   6.221  14.756  1.8535 -0.8562 -0.0777
15208TIP3    H267040   2.876   6.126  14.777  0.8131  0.1213 -1.1845
15209TIP3   OH267041   3.206   5.535  16.975  0.2193  0.1868 -0.6655
15209TIP3    H167042   3.204   5.455  16.922 -0.7939 -0.0290 -0.3123
15209TIP3    H267043   3.171   5.509  17.060 -1.6139  1.3399 -1.0234
15210TIP3   OH267044   6.459   0.305  17.132  0.2799 -0.4901 -0.1787
15210TIP3    H167045   6.462   0.233  17.069 -2.0663 -0.2729 -0.6350
15210TIP3    H267046   6.459   0.384  17.078 -0.3204 -0.2572  0.1516
15211TIP3   OH267047   4.301   0.075  16.609 -0.4653  0.2852  0.2277
15211TIP3    H167048   4.294   0.168  16.591  0.7536  0.4290  0.3762
15211TIP3    H267049   4.356   0.070  16.688  0.0778 -0.5584 -0.1837
15212TIP3   OH267050   1.782   2.715  15.759 -0.1137 -0.4287  0.3135
15212TIP3    H167051   1.722   2.646  15.730  0.2839 -0.2976 -0.8924
15212TIP3    H267052   1.804   2.692  15.849 -0.2527 -1.6828  0.0426
15213TIP3   OH267053   5.890   3.578   0.046  0.4012 -0.2872 -0.5430
15213TIP3    H167054   5.943   3.648   0.008  0.7204  0.1691  0.6909
15213TIP3    H267055   5.951   3.506   0.060  0.1534 -0.6889 -1.4466
15214TIP3   OH267056   2.175   6.219  12.681  0.2311  0.1116  0.0975
15214TIP3    H167057   2.099   6.254  12.728  0.4749  0.6947  0.0732
15214TIP3    H267058   2.168   6.258  12.593  0.6213  0.2554  0.1315
15215TIP3   OH267059   3.484   4.170   0.869  0.1656 -0.4861 -0.5150
15215TIP3    H167060   3.525   4.237   0.923  1.8973 -1.3710 -0.6635
15215TIP3    H267061   3.421   4.218   0.815  0.9297  0.9321 -0.2048
15216TIP3   OH267062   0.519   4.009  16.243  0.3960  0.1617  0.3003
15216TIP3    H167063   0.614   4.008  16.229  0.5606  1.1116  1.2245
15216TIP3    H267064   0.506   3.959  16.323  0.1215  0.0366  0.1778
15217TIP3   OH267065   1.948   0.734  14.739 -0.1825  0.0163 -0.5761
15217TIP3    H167066   1.909   0.817  14.712  1.3919  1.4787  1.3121
15217TIP3    H267067   2.021   0.722  14.679  0.0109  0.4018 -0.4270
15218TIP3   OH267068   5.730   6.193  11.607 -0.4234  0.7592 -0.5754
15218TIP3    H167069   5.762   6.105  11.587 -0.4537  0.7010 -0.3714
15218TIP3    H267070   5.785   6.251  11.553  1.3362  0.8047  1.1388
15219TIP3   OH267071   1.651   1.814  15.868 -0.0870 -0.5248  0.1839
15219TIP3    H167072   1.616   1.752  15.804 -0.6546  1.8455 -1.9456
15219TIP3    H267073   1.744   1.794  15.873  0.2146 -0.0123 -2.3738
15220TIP3   OH267074   5.951   3.397   3.785  0.5103 -0.0377 -0.5185
15220TIP3    H167075   5.961   3.306   3.756 -1.6577 -0.5533  0.1284
15220TIP3    H267076   6.023   3.411   3.846  1.5283 -0.9406 -1.4774
15221TIP3   OH267077   0.584   6.012   5.797  0.4558  0.1792 -0.3418
15221TIP3    H167078   0.557   6.053   5.879  2.1091  0.8683 -0.1072
15221TIP3    H267079   0.643   5.942   5.824  0.7944  0.2349 -0.9305
15222TIP3   OH267080   3.042   1.277  13.625  0.3067  0.1096  0.2567
15222TIP3    H167081   3.048   1.370  13.606  0.8753  0.5002  2.0982
15222TIP3    H267082   2.954   1.265  13.659  0.2899  0.0042  0.1773
15223TIP3   OH267083   1.784   1.959  16.439 -0.1691 -0.4055  0.4940
15223TIP3    H167084   1.711   2.002  16.484 -0.0972 -0.6371  0.8346
15223TIP3    H267085   1.841   1.928  16.509  0.9608  0.9618  0.2132
15224TIP3   OH267086   6.241   1.430   2.729 -0.0406  0.1019  0.0947
15224TIP3    H167087   6.156   1.458   2.695 -0.7216 -0.1540  1.5237
15224TIP3    H267088   6.275   1.506   2.775  0.4575  0.1611 -0.3576
15225TIP3   OH267089   1.733   4.802   3.875 -0.0875 -0.0439 -0.0713
15225TIP3    H167090   1.682   4.729   3.911  0.9158 -0.6729  0.1112
15225TIP3    H267091   1.812   4.805   3.929  0.1820  0.7712 -0.4892
15226TIP3   OH267092   2.604   4.226  11.275 -0.1335  0.3622  0.3428
15226TIP3    H167093   2.548   4.154  11.304 -1.0378  1.6719  2.0545
15226TIP3    H267094   2.564   4.257  11.194 -1.3692  0.6613  1.0427
15227TIP3   OH267095   1.987   0.983  16.150  0.3451 -0.0041 -0.7386
15227TIP3    H167096   2.070   0.941  16.128  0.4162 -0.2249 -0.0683
15227TIP3    H267097   1.921   0.915  16.138  0.2603  0.1670 -1.2572
15228TIP3   OH267098   1.894   0.967   2.939 -0.0545 -0.0927 -0.4300
15228TIP3    H167099   1.949   0.949   2.862  1.8038 -1.5788  1.1410
15228TIP3    H267100   1.950   0.946   3.014 -2.2146  0.0685  1.3238
15229TIP3   OH267101   0.163   2.263   3.842 -0.2637 -0.0387  0.2346
15229TIP3    H167102   0.069   2.279   3.853  0.0942  1.8110  0.9710
15229TIP3    H267103   0.200   2.281   3.929  1.1509  2.7119 -0.8277
15230TIP3   OH267104   5.637   1.873   4.512 -0.0363 -0.2147  0.1494
15230TIP3    H167105   5.700   1.840   4.448 -0.2425 -1.1060  0.4058
15230TIP3    H267106   5.611   1.959   4.477  0.3687 -0.3900 -0.6023
15231TIP3   OH267107   1.735   4.626  13.941  0.3177 -0.0810  0.0737
15231TIP3    H167108   1.783   4.702  13.975 -0.2790 -0.0513  0.8537
15231TIP3    H267109   1.643   4.644  13.960  0.2480 -1.5127  1.3214
15232TIP3   OH267110   5.470   0.572   5.293 -0.2447 -0.1101 -0.2477
15232TIP3    H167111   5.518   0.623   5.228 -1.6630  3.0166  0.9261
15232TIP3    H267112   5.381   0.566   5.258 -0.8574  1.0298  0.9921
15233TIP3   OH267113   4.467   5.260  12.180  0.1836  0.0070 -0.1786
15233TIP3    H167114   4.547   5.243  12.130  0.0956  0.7672 -0.5843
15233TIP3    H267115   4.442   5.174  12.215  0.3027 -0.5200 -1.3359
15234TIP3   OH267116   3.960   1.050  12.887  0.1731 -0.2460  0.0720
15234TIP3    H167117   4.012   0.995  12.946  0.8295  0.9106  0.6161
15234TIP3    H267118   3.897   1.094  12.945  1.5301  1.7385  0.1672
15235TIP3   OH267119   6.156   6.481  14.862  0.2992  0.1045  0.0196
15235TIP3    H167120   6.199   6.557  14.821  1.4844 -0.4620  0.1602
15235TIP3    H267121   6.109   6.438  14.791 -0.3829  0.9555 -0.0649
15236TIP3   OH267122   4.839   6.313   6.465  0.7884 -0.0182  0.2660
15236TIP3    H167123   4.899   6.254   6.419  1.0777 -0.8678  1.6852
15236TIP3    H267124   4.841   6.394   6.414  0.9682 -0.9639 -1.3055
15237TIP3   OH267125   2.689   6.321  11.916 -0.1154  0.3272  0.2068
15237TIP3    H167126   2.733   6.237  11.902 -0.8286 -0.0918  0.4111
15237TIP3    H267127   2.596   6.300  11.912 -0.3138  0.8771  1.5594
15238TIP3   OH267128   6.377   5.478   3.998 -0.5902 -0.4319  0.4872
15238TIP3    H167129   6.416   5.542   3.938 -0.3121 -0.8293  0.2421
15238TIP3    H267130   6.442   5.409   4.005  0.5445  0.7869  3.2833
15239TIP3   OH267131   0.182   2.024  12.877  0.6141 -0.2886 -0.0431
15239TIP3    H167132   0.147   2.007  12.965  0.1048 -1.0953 -0.3972
15239TIP3    H267133   0.105   2.049  12.826  0.8805 -0.0195 -0.3133
15240TIP3   OH267134   2.986   1.536   0.383  0.3128  0.4444 -0.1099
15240TIP3    H167135   3.051   1.484   0.429  0.0678 -0.6091 -0.9287
15240TIP3    H267136   2.902   1.507   0.420  0.1437 -0.1021 -0.9055
15241TIP3   OH267137   1.049   4.572  13.717 -0.1968 -0.4020 -0.1256
15241TIP3    H167138   1.108   4.570  13.792  0.8726 -0.1574 -0.9349
15241TIP3    H267139   1.090   4.514  13.653 -0.3431  0.4922 -1.0473
15242TIP3   OH267140   0.750   2.363   5.479 -0.2488 -0.0521 -0.2388
15242TIP3    H167141   0.669   2.369   5.529  1.2316 -1.8763  2.6602
15242TIP3    H267142   0.749   2.275   5.443  1.0439 -0.6600  1.1077
15243TIP3   OH267143   0.025   5.727   0.943 -0.3737  0.1957  0.2027
15243TIP3    H167144   0.058   5.638   0.934 -2.5270 -0.7166  0.7006
15243TIP3    H267145   0.093   5.782   0.903  1.7335 -1.4870  1.2606
15244TIP3   OH267146   0.198   3.886  15.175 -0.4862  0.6716  0.3228
15244TIP3    H167147   0.266   3.889  15.109 -0.6795  0.0171  0.0908
15244TIP3    H267148   0.245   3.887  15.258 -0.1389 -0.7222  0.1641
15245TIP3   OH267149   4.119   6.426   1.715  0.3283 -0.1465  0.3543
15245TIP3    H167150   4.211   6.445   1.697  0.3313 -1.8275 -1.7947
15245TIP3    H267151   4.077   6.512   1.722  2.0294  0.6485  1.4883
15246TIP3   OH267152   3.624   6.362  15.385  0.2065  0.1992 -0.3637
15246TIP3    H167153   3.683   6.292  15.356  0.4872  1.0452 -1.9626
15246TIP3    H267154   3.655   6.440  15.338  0.2257  1.5439  1.7343
15247TIP3   OH267155   4.438   2.169  12.549 -0.1023 -0.6841  0.4013
15247TIP3    H167156   4.417   2.165  12.643 -2.1006 -0.4895  0.0216
15247TIP3    H267157   4.368   2.224  12.512  1.0664 -0.1552 -1.1002
15248TIP3   OH267158   2.171   3.424  15.162 -0.1780  0.1002 -0.3705
15248TIP3    H167159   2.148   3.346  15.111 -0.3944  0.5695 -1.0022
15248TIP3    H267160   2.091   3.475  15.165  0.1668  0.6587 -0.6129
15249TIP3   OH267161   4.991   6.145   6.626 -1.0658 -0.2003  0.6016
15249TIP3    H167162   4.929   6.072   6.617  0.6440 -1.6709  0.2250
15249TIP3    H267163   5.057   6.113   6.687 -0.3514  1.0958  0.5444
15250TIP3   OH267164   4.444   4.173  11.361  0.5366 -0.1215 -0.5886
15250TIP3    H167165   4.364   4.151  11.312  0.5398 -0.9654 -0.2352
15250TIP3    H267166   4.424   4.256  11.404 -1.4117 -1.8645  2.1498
15251TIP3   OH267167   2.082   2.121   0.021 -0.0937  0.3759  0.1217
15251TIP3    H167168   2.124   2.036   0.028  1.2392  1.0009 -0.0242
15251TIP3    H267169   2.006   2.105  -0.036  0.6448 -0.5391 -0.6439
15252TIP3   OH267170   0.102   6.440  11.217  0.6299  0.3795 -0.0618
15252TIP3    H167171   0.074   6.433  11.309  3.1708 -0.0407  0.7719
15252TIP3    H267172   0.152   6.521  11.214  1.0861  0.0734 -0.9125
15253TIP3   OH267173   4.748   6.651  11.637  0.5062  0.2997 -0.0304
15253TIP3    H167174   4.748   6.706  11.715  2.2476  0.9670 -0.4517
15253TIP3    H267175   4.827   6.598  11.645  0.5517  0.1703 -1.1891
15254TIP3   OH267176   6.427   3.918  11.491  0.4513  0.1307 -0.0322
15254TIP3    H167177   6.394   3.832  11.515  0.1857 -0.5915 -2.6956
15254TIP3    H267178   6.518   3.919  11.521  0.1870 -0.6933  0.8363
15255TIP3   OH267179   4.623   3.442   5.612  0.2964 -0.3123 -0.1273
15255TIP3    H167180   4.531   3.421   5.633  0.0771 -0.5895 -1.2980
15255TIP3    H267181   4.673   3.381   5.667 -0.1136  1.1801  2.0529
15256TIP3   OH267182   6.139   1.968  15.622  0.3387 -0.2709  0.2848
15256TIP3    H167183   6.109   1.922  15.701  1.4592 -1.2348  0.1582
15256TIP3    H267184   6.144   2.060  15.649 -2.5091 -0.0262  0.3723
15257TIP3   OH267185   3.587   1.989  16.231 -0.5150 -0.3888  0.1137
15257TIP3    H167186   3.575   1.973  16.137 -1.0444 -0.8568  0.2509
15257TIP3    H267187   3.556   2.079  16.244  1.2212  0.3226 -0.4415
15258TIP3   OH267188   3.478   1.798  16.375 -0.2956  0.0484  0.1153
15258TIP3    H167189   3.538   1.858  16.330  0.7237  0.3014  1.7185
15258TIP3    H267190   3.503   1.712  16.343 -1.7956  0.4012 -2.2335
15259TIP3   OH267191   4.320   0.819   0.658 -0.3301  0.1964 -0.4086
15259TIP3    H167192   4.359   0.766   0.589  1.3667 -0.1945  0.7942
15259TIP3    H267193   4.313   0.760   0.733 -0.9989  0.9388  0.1358
15260TIP3   OH267194   4.236   3.487  14.442 -0.1030  0.3352 -0.5134
15260TIP3    H167195   4.257   3.545  14.515  0.4809  0.0365 -0.4430
15260TIP3    H267196   4.178   3.421  14.481 -2.2895  1.8730 -0.9801
15261TIP3   OH267197   3.272   2.548  14.070  0.2972  0.4788 -0.1815
15261TIP3    H167198   3.302   2.614  14.133 -0.3896  0.9023 -0.2901
15261TIP3    H267199   3.353   2.513  14.033  0.6897  0.8146  0.3284
15262TIP3   OH267200   0.840   1.652  14.163 -0.0956 -0.2518 -0.0547
15262TIP3    H167201   0.935   1.645  14.167 -0.0014  0.4646 -0.7149
15262TIP3    H267202   0.819   1.724  14.223 -0.2979 -0.9100  0.6724
15263TIP3   OH267203   2.183   1.630   5.414  0.3882  0.0545  0.3908
15263TIP3    H167204   2.226   1.583   5.485  2.3023  2.8667  1.2948
15263TIP3    H267205   2.239   1.707   5.399 -2.2643  1.8651 -1.1589
15264TIP3   OH267206   6.117   3.418  12.258  0.5137  0.3010 -0.3152
15264TIP3    H167207   6.107   3.396  12.166  0.7349  1.7349 -0.7048
15264TIP3    H267208   6.146   3.509  12.258  1.4442  0.0352  1.1473
15265TIP3   OH267209   0.717   1.480  14.349 -0.1492  0.5041 -0.0296
15265TIP3    H167210   0.625   1.498  14.368  0.6465  1.9516  3.1231
15265TIP3    H267211   0.737   1.535  14.273 -1.5746  1.1659  0.0382
15266TIP3   OH267212   5.262   5.187   0.271 -0.0289  0.1415  0.2875
15266TIP3    H167213   5.289   5.261   0.327  0.6958 -0.3450  0.6047
15266TIP3    H267214   5.345   5.143   0.250 -0.4261 -0.3919 -0.1611
15267TIP3   OH267215   1.971   1.351  11.740  0.1225 -0.5028 -0.0137
15267TIP3    H167216   2.056   1.307  11.745 -0.8784 -2.7910 -1.3472
15267TIP3    H267217   1.959   1.368  11.646  0.0654  1.9301  0.3757
15268TIP3   OH267218   0.082   5.908  12.996  0.1784 -0.7133  0.2063
15268TIP3    H167219   0.006   5.855  13.021  0.1217 -1.3885 -1.2893
15268TIP3    H267220   0.148   5.887  13.061 -1.5802  1.7066  3.0461
15269TIP3   OH267221   4.682   4.665   3.029  0.4696 -0.5385 -0.6393
15269TIP3    H167222   4.624   4.721   3.080  2.7387 -0.0848  1.5969
15269TIP3    H267223   4.626   4.631   2.959 -2.4548 -0.0834  1.3022
15270TIP3   OH267224   5.885   1.765   1.950  0.3686 -0.2856 -0.1231
15270TIP3    H167225   5.809   1.719   1.985  0.1548  1.4686  1.9755
15270TIP3    H267226   5.950   1.759   2.021  1.3888  0.0971 -1.0059
15271TIP3   OH267227   0.565   0.578   6.316  0.4089  0.2742  0.3171
15271TIP3    H167228   0.472   0.592   6.331  0.4918  0.7844  0.3800
15271TIP3    H267229   0.608   0.636   6.379  0.7827 -0.9365  1.2192
15272TIP3   OH267230   2.468   1.711   3.193 -0.2392 -0.4555  0.2065
15272TIP3    H167231   2.440   1.620   3.186 -0.5553 -0.3224 -0.4064
15272TIP3    H267232   2.421   1.755   3.122  0.1648  0.1183  0.2918
15273TIP3   OH267233   2.173   4.669   0.494  0.3133  0.1967  0.1845
15273TIP3    H167234   2.152   4.720   0.573  0.2861 -2.5000  2.0459
15273TIP3    H267235   2.267   4.653   0.500  0.3140 -0.0009 -0.3439
15274TIP3   OH267236   1.841   1.623   2.604 -0.3310 -0.0572 -0.0202
15274TIP3    H167237   1.879   1.556   2.661 -0.7690  0.9895  1.5704
15274TIP3    H267238   1.767   1.658   2.653 -1.2133  0.3706 -1.5806
15275TIP3   OH267239   0.541   2.536   4.317  0.1509  0.4557  0.0212
15275TIP3    H167240   0.608   2.543   4.249  1.0987  0.2017  0.9041
15275TIP3    H267241   0.540   2.623   4.357  0.3396  0.2969  0.3680
15276TIP3   OH267242   1.381   4.470  15.948  0.1864 -0.1155  0.0368
15276TIP3    H167243   1.298   4.488  15.904  1.2193  1.4051 -1.3996
15276TIP3    H267244   1.388   4.374  15.947 -0.8271 -0.2112 -1.2274
15277TIP3   OH267245   4.564   4.803  10.812 -0.1489  0.1175  0.2451
15277TIP3    H167246   4.571   4.867  10.741  1.0689  0.2337  0.4562
15277TIP3    H267247   4.625   4.733  10.788 -2.1108 -1.4542 -0.4408
15278TIP3   OH267248   0.003   1.535   1.656  0.0251 -0.0107 -0.1372
15278TIP3    H167249   0.037   1.577   1.735 -1.7362 -0.4283  0.8833
15278TIP3    H267250   0.076   1.483   1.623  0.7892  0.1751  1.2004
15279TIP3   OH267251   2.300   6.472  14.713  0.1263 -0.9094  0.0767
15279TIP3    H167252   2.385   6.506  14.743  1.2498 -1.6052 -2.0810
15279TIP3    H267253   2.289   6.510  14.626 -2.4210  0.1367  0.7817
15280TIP3   OH267254   3.568   1.489  13.689 -0.1990  0.2138  0.4772
15280TIP3    H167255   3.618   1.530  13.760  1.2863 -0.3464 -0.2108
15280TIP3    H267256   3.569   1.396  13.710  3.1359 -0.4505 -1.8742
15281TIP3   OH267257   5.522   0.766  14.728 -0.0082  0.0886  0.3535
15281TIP3    H167258   5.467   0.842  14.747  0.4360  0.4740  0.1122
15281TIP3    H267259   5.588   0.798  14.666 -0.1144 -0.6185 -0.1338
15282TIP3   OH267260   4.950   0.966   2.255 -0.3114  1.0239 -0.6498
15282TIP3    H167261   4.875   0.927   2.300  0.6951 -0.6905 -0.3785
15282TIP3    H267262   4.946   1.059   2.278 -0.2600  0.3653  2.3966
15283TIP3   OH267263   3.060   6.159  11.536 -0.6733 -0.0131  0.3551
15283TIP3    H167264   3.041   6.200  11.621 -1.6790  2.4409 -0.9539
15283TIP3    H267265   3.137   6.105  11.553  1.0785  2.7685  2.2461
15284TIP3   OH267266   4.201   3.060   4.581 -0.0281 -0.4037 -0.2657
15284TIP3    H167267   4.256   3.104   4.515  1.2842  1.0231  1.6649
15284TIP3    H267268   4.145   3.130   4.615 -0.3818 -1.0201  0.4362
15285TIP3   OH267269   3.438   1.222   4.722 -0.2155 -0.4242 -0.1005
15285TIP3    H167270   3.470   1.196   4.636 -0.1800 -0.9143  0.0584
15285TIP3    H267271   3.480   1.307   4.738  0.7321 -0.8793 -0.0550
15286TIP3   OH267272   1.777   5.534  16.063 -0.0567 -0.8760 -0.4832
15286TIP3    H167273   1.873   5.544  16.059 -0.2187  0.9095 -0.8572
15286TIP3    H267274   1.748   5.547  15.973 -0.6389 -1.7693 -0.4330
15287TIP3   OH267275   4.137   3.630  14.691 -0.3022  0.8313 -0.0451
15287TIP3    H167276   4.212   3.681  14.659 -2.0539  2.2827 -2.1718
15287TIP3    H267277   4.083   3.695  14.737 -1.2279  0.2955 -0.3555
15288TIP3   OH267278   5.968   2.253   4.273 -0.4264  0.0490  0.4537
15288TIP3    H167279   5.891   2.202   4.245  0.2465 -1.0030  0.4655
15288TIP3    H267280   6.018   2.267   4.193 -0.3539  0.2619  0.5358
15289TIP3   OH267281   0.411   0.135  11.983  0.2847 -0.6180 -0.5276
15289TIP3    H167282   0.422   0.058  12.038  1.0976 -0.0151  0.1852
15289TIP3    H267283   0.373   0.102  11.902 -0.3179 -1.6174  0.1441
15290TIP3   OH267284   2.873   0.549   4.555 -0.3173 -0.2353 -0.1755
15290TIP3    H167285   2.792   0.592   4.528  0.5789  1.0777 -0.8771
15290TIP3    H267286   2.856   0.455   4.542 -1.5904  0.0429 -0.6416
15291TIP3   OH267287   3.719   0.021   4.610  0.9486  0.0794  0.5070
15291TIP3    H167288   3.695  -0.056   4.558  1.4698 -0.0630  0.4699
15291TIP3    H267289   3.691   0.000   4.699  1.1311 -0.1767  0.5063
15292TIP3   OH267290   0.498   0.477  16.633  0.2434 -0.5006 -0.8339
15292TIP3    H167291   0.449   0.492  16.714 -0.7713 -0.8757 -1.3625
15292TIP3    H267292   0.431   0.465  16.566  1.0611  0.2422 -1.8255
15293TIP3   OH267293   2.202   5.638  15.360  0.1360 -0.0147 -0.1131
15293TIP3    H167294   2.185   5.729  15.384  0.4655  0.5754 -1.9830
15293TIP3    H267295   2.130   5.615  15.301 -0.8469 -1.5279  1.5910
15294TIP3   OH267296   4.754   3.017   6.291  0.1892  0.1963 -0.2563
15294TIP3    H167297   4.847   3.010   6.271  0.2883  0.9043 -0.0772
15294TIP3    H267298   4.749   3.010   6.386  0.1962  1.3805 -0.1532
15295TIP3   OH267299   0.505   6.545  15.264  0.0586 -0.9115 -0.2221
15295TIP3    H167300   0.536   6.610  15.327  0.5720  1.5525 -2.7952
15295TIP3    H267301   0.425   6.509  15.303  1.4647 -1.1258  2.7095
15296TIP3   OH267302   5.104   5.743   6.037  0.5349 -0.0132 -0.2169
15296TIP3    H167303   5.113   5.657   6.079 -1.8246 -0.8298 -1.2424
15296TIP3    H267304   5.140   5.804   6.102  0.2134 -1.5473  1.5092
15297TIP3   OH267305   4.044   5.820   0.289  0.3601  0.0878 -0.1124
15297TIP3    H167306   4.093   5.762   0.231  0.2501  0.0845 -0.2012
15297TIP3    H267307   4.109   5.848   0.354  0.4055 -0.1565 -0.0519
15298TIP3   OH267308   2.112   5.927  11.863 -0.2578 -0.4172  0.5560
15298TIP3    H167309   2.197   5.908  11.903  0.1219 -1.0031 -0.4803
15298TIP3    H267310   2.088   6.013  11.896  0.7050 -0.2848  0.9310
15299TIP3   OH267311   3.519   4.474  13.014  0.2457 -0.1520 -0.5128
15299TIP3    H167312   3.429   4.451  13.034  0.4825 -0.0050  0.7915
15299TIP3    H267313   3.535   4.555  13.063  1.0644 -0.1343 -0.7910
15300TIP3   OH267314   6.450   2.082   4.947 -0.0501 -0.1402  0.0483
15300TIP3    H167315   6.370   2.111   4.990 -0.2178 -0.1607 -0.2468
15300TIP3    H267316   6.480   2.157   4.896 -1.5561 -1.0180 -2.2962
15301TIP3   OH267317   2.557   3.652   0.355 -0.1257  0.6480  0.5027
15301TIP3    H167318   2.466   3.649   0.382 -0.5913  0.3801 -0.9879
15301TIP3    H267319   2.575   3.744   0.337 -0.6409  0.5109 -0.8338
15302TIP3   OH267320   4.178   3.770  13.690 -0.5077 -0.2220  0.1025
15302TIP3    H167321   4.119   3.845  13.679 -1.6315 -1.2571 -1.3815
15302TIP3    H267322   4.120   3.698  13.714  0.3935 -0.9105  0.2522
15303TIP3   OH267323   3.959   0.083   5.686 -0.2524 -0.2748  0.1335
15303TIP3    H167324   3.877   0.075   5.637 -0.0805  0.1996 -0.2375
15303TIP3    H267325   3.947   0.160   5.741 -0.7432 -1.2532  1.4412
15304TIP3   OH267326   6.044   3.789  11.730 -0.2713 -0.4613 -1.0936
15304TIP3    H167327   6.004   3.833  11.655 -0.7729  0.1895 -0.4595
15304TIP3    H267328   6.079   3.860  11.784  2.0022 -1.0212 -1.7326
15305TIP3   OH267329   1.336   3.453  13.836 -0.4735 -0.1143  0.6472
15305TIP3    H167330   1.303   3.502  13.761 -0.4151  0.1319  0.7800
15305TIP3    H267331   1.419   3.496  13.858  0.0613 -0.8682  0.1670
15306TIP3   OH267332   1.784   0.476   1.561  0.3612  0.1355  0.1702
15306TIP3    H167333   1.695   0.512   1.566  0.2718 -0.2241  1.4611
15306TIP3    H267334   1.840   0.543   1.600  0.6384  0.2440 -0.3935
15307TIP3   OH267335   1.143   2.852   0.610 -0.0024  0.4177 -0.2038
15307TIP3    H167336   1.142   2.876   0.703  0.5637 -0.1169 -0.0464
15307TIP3    H267337   1.219   2.794   0.602 -0.0022  0.5251 -1.0214
15308TIP3   OH267338   1.871   5.890   3.583  0.3379 -0.2418  0.2543
15308TIP3    H167339   1.950   5.906   3.531 -0.4896 -0.0898 -0.9917
15308TIP3    H267340   1.903   5.882   3.673  1.8981 -1.1936 -0.3386
15309TIP3   OH267341   5.477   0.283  13.042 -0.0474 -0.8196 -0.0671
15309TIP3    H167342   5.388   0.313  13.020 -0.1615 -0.5956  0.6869
15309TIP3    H267343   5.475   0.189  13.024  0.2161 -0.4911 -2.1556
15310TIP3   OH267344   2.805   1.699   5.834  0.2625  0.0829 -0.5145
15310TIP3    H167345   2.814   1.721   5.741  0.9794 -2.1582 -1.0226
15310TIP3    H267346   2.775   1.608   5.835  0.1252  0.1093  1.4534
15311TIP3   OH267347   2.455   6.022   3.402 -0.2323  0.2359  0.3960
15311TIP3    H167348   2.450   6.099   3.346 -0.1419  0.6436  0.9396
15311TIP3    H267349   2.444   5.948   3.342  0.5338  0.6348 -0.2549
15312TIP3   OH267350   5.784   5.576   5.344 -0.1844 -0.3648  0.6628
15312TIP3    H167351   5.724   5.512   5.307 -1.8313  0.9419  0.9782
15312TIP3    H267352   5.837   5.525   5.407  0.0877 -1.8230 -0.6875
15313TIP3   OH267353   5.620   5.976   3.424 -0.0856  0.6553 -0.1731
15313TIP3    H167354   5.681   5.985   3.351  2.0056  0.2597  1.4332
15313TIP3    H267355   5.592   6.065   3.443  1.6775  1.1358  0.3723
15314TIP3   OH267356   4.420   2.068  17.033 -0.1424 -0.7954  0.2699
15314TIP3    H167357   4.343   2.037  17.081  0.0068 -1.6931 -0.0553
15314TIP3    H267358   4.469   1.989  17.012  0.2215 -0.3453 -0.6409
15315TIP3   OH267359   2.532   4.348  14.770  0.3263 -0.5031 -0.2925
15315TIP3    H167360   2.615   4.306  14.746  0.6611  0.1268 -0.2469
15315TIP3    H267361   2.475   4.333  14.694  1.4436  1.6749 -1.6699
15316TIP3   OH267362   2.630   2.850  12.694 -0.2977 -0.4444  0.0170
15316TIP3    H167363   2.585   2.934  12.705 -0.6588 -0.6914  0.4774
15316TIP3    H267364   2.575   2.788  12.741 -0.1440 -0.9800 -0.5022
15317TIP3   OH267365   0.111   4.784   5.914  0.1779  0.4613 -0.3283
15317TIP3    H167366   0.038   4.729   5.886 -1.9835  2.6424  0.6515
15317TIP3    H267367   0.186   4.725   5.919 -1.3179 -1.7381 -2.1044
15318TIP3   OH267368   4.675   2.345   5.533  0.1135  0.3329  0.4084
15318TIP3    H167369   4.600   2.329   5.476  0.6973  1.1522 -0.6235
15318TIP3    H267370   4.641   2.403   5.602 -0.8138 -1.3541  1.4484
15319TIP3   OH267371   5.992   6.109  15.665  0.0231  0.2282  0.7786
15319TIP3    H167372   6.006   6.156  15.582  1.4179 -0.6849  0.4542
15319TIP3    H267373   5.976   6.178  15.729  2.5810  1.2773  0.4318
15320TIP3   OH267374   3.531   2.988  16.341  0.5725  0.3965  0.0397
15320TIP3    H167375   3.593   3.041  16.390  1.2910  1.4698 -1.9577
15320TIP3    H267376   3.558   2.897  16.358  0.9917  0.7484  1.3270
15321TIP3   OH267377   1.818   1.713   6.501  0.3095  0.1442 -0.3214
15321TIP3    H167378   1.871   1.774   6.451  1.6085 -1.7925 -1.4705
15321TIP3    H267379   1.876   1.681   6.570 -0.3045  0.1347  0.2043
15322TIP3   OH267380   3.258   1.921   4.019  0.7823 -0.1985 -0.5478
15322TIP3    H167381   3.323   1.991   4.014 -0.5669  1.0306 -3.1407
15322TIP3    H267382   3.177   1.962   3.989 -0.6526 -2.2775  0.2575
15323TIP3   OH267383   0.218   5.972  14.551 -0.0973 -0.3216  0.2734
15323TIP3    H167384   0.254   6.056  14.579  0.4722 -0.4071 -0.1693
15323TIP3    H267385   0.273   5.946  14.477  0.7700 -1.8686  1.4119
15324TIP3   OH267386   3.462   0.330   6.136 -0.4965 -0.8755 -0.3319
15324TIP3    H167387   3.458   0.353   6.229 -1.3065 -0.6274 -0.4158
15324TIP3    H267388   3.537   0.270   6.129  0.9184  0.7737  0.1008
15325TIP3   OH267389   5.340   6.181  16.898 -0.6550  0.5975  0.0252
15325TIP3    H167390   5.345   6.117  16.826 -1.7481  2.4300 -1.8120
15325TIP3    H267391   5.247   6.182  16.923 -0.2433 -0.1963  1.6841
15326TIP3   OH267392   4.644   6.053   5.626  0.4357  0.4386 -1.0448
15326TIP3    H167393   4.596   6.031   5.706  0.1131  0.4560 -1.2323
15326TIP3    H267394   4.634   6.147   5.617  1.4649  0.6239 -0.4721
15327TIP3   OH267395   3.547   0.091  11.243  0.7389  0.2346  0.2641
15327TIP3    H167396   3.454   0.104  11.229  0.4788 -1.2687  0.3929
15327TIP3    H267397   3.587   0.103  11.156  0.4235  0.8158  0.1987
15328TIP3   OH267398   0.002   2.198   4.435 -0.1586 -0.0758 -1.0554
15328TIP3    H167399  -0.065   2.134   4.461 -0.5445  0.3544 -0.9804
15328TIP3    H267400   0.066   2.196   4.506 -1.3913  1.3716  0.1814
15329TIP3   OH267401   0.705   3.053   3.198  0.2873  0.0708 -0.6870
15329TIP3    H167402   0.777   3.021   3.143  0.3174  1.0487 -1.2320
15329TIP3    H267403   0.731   3.142   3.222 -1.0276  0.6585 -1.4051
15330TIP3   OH267404   0.444   4.541   1.313 -0.7482  0.2928  0.4953
15330TIP3    H167405   0.434   4.472   1.378 -0.6013  0.0034  0.2122
15330TIP3    H267406   0.357   4.580   1.305 -0.9163 -0.1038  0.3841
15331TIP3   OH267407   6.191   3.110   0.637 -0.2402 -0.0289 -0.4335
15331TIP3    H167408   6.263   3.170   0.617 -0.6028  1.1885  1.6662
15331TIP3    H267409   6.193   3.046   0.565  2.9108 -0.0592 -0.4614
15332TIP3   OH267410   1.410   4.744  15.441  0.1105  0.3003 -0.0445
15332TIP3    H167411   1.423   4.662  15.489  1.0026  0.0826 -0.6200
15332TIP3    H267412   1.447   4.811  15.498  1.6345 -0.0201 -0.5995
15333TIP3   OH267413   1.030   5.803   6.551 -0.1885 -0.1853 -0.2809
15333TIP3    H167414   1.104   5.752   6.516  2.0685  1.9938  1.0364
15333TIP3    H267415   1.007   5.758   6.632  1.7936  0.7602  0.8833
15334TIP3   OH267416   2.833   1.538  17.169 -0.3507  0.2360 -0.1332
15334TIP3    H167417   2.877   1.513  17.250 -1.3589 -0.8328  0.1245
15334TIP3    H267418   2.772   1.608  17.194  0.5333  1.0949 -0.3193
15335TIP3   OH267419   3.146   6.633   6.313 -0.1599 -0.2008 -0.4242
15335TIP3    H167420   3.082   6.581   6.360  0.9583  0.4644  2.0143
15335TIP3    H267421   3.107   6.720   6.307  0.6954  0.3968  1.7091
15336TIP3   OH267422   1.801   4.339   6.185 -0.4002  0.0441  0.4639
15336TIP3    H167423   1.736   4.311   6.121 -0.5875  2.1037 -0.3025
15336TIP3    H267424   1.760   4.413   6.230 -0.1038 -1.0505  2.7204
15337TIP3   OH267425   5.224   3.920   3.798  0.0361 -0.7715 -0.4106
15337TIP3    H167426   5.289   3.941   3.866  0.1765  0.7550 -0.9706
15337TIP3    H267427   5.235   3.826   3.784  1.6647 -0.6906  0.0027
15338TIP3   OH267428   0.930   6.499  12.108  0.0312 -0.3597  0.5963
15338TIP3    H167429   0.919   6.581  12.058  1.2300  0.2693  1.3088
15338TIP3    H267430   1.019   6.504  12.141  0.3089 -2.2365  0.2093
15339TIP3   OH267431   1.421   6.392  13.127  0.3191  0.2189  0.0069
15339TIP3    H167432   1.417   6.460  13.059 -0.2039  0.8328  0.6405
15339TIP3    H267433   1.441   6.439  13.207  0.3572 -0.4350  0.3855
15340TIP3   OH267434   2.378   5.443  16.858 -0.6150  0.1585  0.2602
15340TIP3    H167435   2.441   5.480  16.919  0.4191 -1.2843  0.1151
15340TIP3    H267436   2.302   5.420  16.912 -0.6539  1.0494  0.5934
15341TIP3   OH267437   0.493   4.877  15.751 -0.0728 -0.2091 -0.0842
15341TIP3    H167438   0.483   4.969  15.726 -1.2589 -0.2588  0.1787
15341TIP3    H267439   0.587   4.860  15.742 -0.1079  0.4443 -2.0867
15342TIP3   OH267440   3.078   3.971  15.913  0.2378  0.3633 -0.0412
15342TIP3    H167441   3.172   3.990  15.911  0.1989  0.5569 -0.0767
15342TIP3    H267442   3.068   3.892  15.860  0.6212 -0.7447  1.4891
15343TIP3   OH267443   2.787   0.420   4.855  0.1755 -0.0919 -0.0494
15343TIP3    H167444   2.716   0.356   4.864 -0.4302  0.5160 -0.3601
15343TIP3    H267445   2.776   0.478   4.931 -1.9385  2.1558 -1.8907
15344TIP3   OH267446   0.693   0.025   2.743 -0.3825 -0.0906 -0.0676
15344TIP3    H167447   0.615   0.022   2.798  0.3123  0.2825  0.9642
15344TIP3    H267448   0.726   0.114   2.754  0.3351 -0.3279 -0.2779
15345TIP3   OH267449   6.004   3.621   4.498 -0.0252  0.7341  0.0554
15345TIP3    H167450   6.055   3.543   4.476 -0.5855 -0.4908  2.7190
15345TIP3    H267451   5.955   3.641   4.419  1.2166 -0.7381 -1.1473
15346TIP3   OH267452   5.052   4.426  17.027  0.1881  0.0541  0.0452
15346TIP3    H167453   5.015   4.473  17.101  1.3839  0.7820  0.2118
15346TIP3    H267454   5.141   4.460  17.019  0.0484  0.1120 -1.8188
15347TIP3   OH267455   2.323   0.518  14.336  0.8899  0.0535 -0.0745
15347TIP3    H167456   2.363   0.507  14.422 -2.1935 -0.4672  1.4288
15347TIP3    H267457   2.346   0.438  14.289 -0.8374 -1.7235  1.8866
15348TIP3   OH267458   6.231   2.151   5.077 -0.2560 -0.0393 -0.0825
15348TIP3    H167459   6.185   2.234   5.065  1.1622  0.9634  1.0481
15348TIP3    H267460   6.172   2.099   5.133  0.2287  1.5282  2.0212
15349TIP3   OH267461   0.723   2.401  17.291 -0.7243 -0.0290  0.1673
15349TIP3    H167462   0.765   2.459  17.354  0.9635  0.4102 -1.2704
15349TIP3    H267463   0.654   2.454  17.252  0.1819  0.7249 -0.4525
15350TIP3   OH267464   2.503   6.390   2.298 -0.2764  0.0033 -0.1831
15350TIP3    H167465   2.455   6.460   2.253 -2.3038 -0.3372  1.3341
15350TIP3    H267466   2.542   6.432   2.374  0.5431 -0.0619 -0.5509
15351TIP3   OH267467   1.534   0.359  16.221  0.6553 -0.1153 -0.6103
15351TIP3    H167468   1.492   0.409  16.150  2.0893  0.8991 -0.7788
15351TIP3    H267469   1.621   0.397  16.229  0.2616  0.4111  2.2903
15352TIP3   OH267470   4.386   4.701  13.122  0.4865 -0.6718 -0.1708
15352TIP3    H167471   4.405   4.652  13.202 -0.3458 -1.2886 -0.3445
15352TIP3    H267472   4.299   4.739  13.136 -0.0373 -1.4824 -1.1004
15353TIP3   OH267473   3.169   0.528  15.595  0.4718  0.2886 -0.1774
15353TIP3    H167474   3.239   0.471  15.562  0.4328  0.0074  0.2189
15353TIP3    H267475   3.156   0.500  15.686 -1.3872 -0.8655 -0.7467
15354TIP3   OH267476   2.952   0.860  16.391  0.7566  0.5248 -0.4720
15354TIP3    H167477   3.031   0.845  16.338  0.8088 -1.4455  0.0806
15354TIP3    H267478   2.968   0.812  16.472 -0.3396  1.4961  0.3606
15355TIP3   OH267479   2.732   0.896   1.842 -0.0379  0.0731  0.1735
15355TIP3    H167480   2.685   0.847   1.910  0.6839 -1.0117 -0.0863
15355TIP3    H267481   2.694   0.984   1.845  1.4520  0.7583  3.5126
15356TIP3   OH267482   4.056   4.065   1.351 -0.1043 -0.7113 -0.4620
15356TIP3    H167483   4.032   4.005   1.281 -2.6850 -0.9458  0.4926
15356TIP3    H267484   4.043   4.152   1.314 -0.6814 -0.8269 -0.5485
15357TIP3   OH267485   3.959   3.727  11.369  0.0079  0.0962  0.2459
15357TIP3    H167486   4.021   3.687  11.308  0.6508  1.1574  0.1779
15357TIP3    H267487   4.012   3.754  11.443 -0.2852  1.3431  0.0323
15358TIP3   OH267488   1.081   4.425  12.879  0.5526  0.8307  0.6367
15358TIP3    H167489   1.003   4.447  12.931 -0.9924  0.6330 -1.4614
15358TIP3    H267490   1.106   4.507  12.837  0.8001  0.6590  0.4459
15359TIP3   OH267491   3.370   1.951  11.956 -0.1551  0.0039 -0.0994
15359TIP3    H167492   3.400   2.019  12.016  1.3404  0.7689 -1.6268
15359TIP3    H267493   3.329   2.000  11.884  2.7462 -0.4297 -2.2459
15360TIP3   OH267494   1.478   2.216   1.439 -0.0306  0.0797 -0.0740
15360TIP3    H167495   1.392   2.240   1.474  0.2387  1.1294 -0.1071
15360TIP3    H267496   1.468   2.225   1.344 -0.6542 -2.4162 -0.3196
15361TIP3   OH267497   6.093   5.280   3.291 -0.5076 -0.1903  0.4604
15361TIP3    H167498   6.134   5.220   3.353 -1.1944 -0.3315  0.7938
15361TIP3    H267499   6.113   5.243   3.205  1.0014  0.3597  0.5425
15362TIP3   OH267500   6.462   6.728   6.336  0.1018 -0.2567 -0.5587
15362TIP3    H167501   6.408   6.693   6.407  1.9666 -0.8600  0.6242
15362TIP3    H267502   6.442   6.671   6.261  1.0082 -2.1801  0.5798
15363TIP3   OH267503   4.946   0.537  17.150 -0.3903  0.1371 -0.3838
15363TIP3    H167504   4.904   0.623  17.154 -1.0996 -0.2417  1.0064
15363TIP3    H267505   4.887   0.484  17.096 -2.3079 -0.6519  2.3057
15364TIP3   OH267506   4.577   5.415  14.059 -0.2125  0.2205 -0.1922
15364TIP3    H167507   4.482   5.413  14.070 -0.3308 -0.4942 -1.1367
15364TIP3    H267508   4.607   5.483  14.118 -0.9139 -1.9212  2.8967
15365TIP3   OH267509   0.038   3.217  12.907 -0.3118 -0.2649 -0.0388
15365TIP3    H167510  -0.007   3.299  12.886 -0.2864 -0.1177  0.4706
15365TIP3    H267511  -0.025   3.168  12.960 -0.7769 -1.0880 -1.3228
15366TIP3   OH267512   0.102   2.871  12.549  0.4175 -0.1757  0.8174
15366TIP3    H167513   0.134   2.827  12.471 -1.1431 -0.8626  0.5220
15366TIP3    H267514   0.014   2.901  12.525 -0.3191 -0.9089  2.4790
15367TIP3   OH267515   4.804   1.771   2.721  0.0850 -0.2205 -0.0298
15367TIP3    H167516   4.866   1.720   2.773  0.3885  0.0806 -0.0988
15367TIP3    H267517   4.812   1.860   2.754 -0.9639 -0.3356  0.5817
15368TIP3   OH267518   4.235   3.140  14.965 -0.4334  0.1173 -0.2963
15368TIP3    H167519   4.173   3.190  14.911 -0.8249 -0.0153  0.0331
15368TIP3    H267520   4.183   3.107  15.038  0.4197  1.7834  1.1608
15369TIP3   OH267521   4.000   0.837   3.563 -0.3224 -0.1541 -0.8087
15369TIP3    H167522   4.058   0.894   3.512  0.7169  0.3555  0.8640
15369TIP3    H267523   4.027   0.852   3.654 -1.8899 -1.2791 -0.1367
15370TIP3   OH267524   1.099   0.066  14.345  0.1041  0.0683 -0.4040
15370TIP3    H167525   1.022   0.009  14.338  1.5919 -1.9915 -1.4559
15370TIP3    H267526   1.112   0.099  14.256  0.8554 -0.2269 -0.4111
15371TIP3   OH267527   6.178   1.856  16.935  0.5644  0.2383 -0.1218
15371TIP3    H167528   6.257   1.905  16.956 -0.8683  2.5354  0.1776
15371TIP3    H267529   6.131   1.848  17.018  1.0305 -2.3197 -0.0044
15372TIP3   OH267530   0.754   0.176   0.409 -0.1926 -0.1701  0.1916
15372TIP3    H167531   0.698   0.249   0.382 -1.8740 -0.7587  1.9240
15372TIP3    H267532   0.708   0.135   0.481  1.5764 -1.8994  0.4288
15373TIP3   OH267533   2.191   3.854   5.493 -0.5623  0.5586 -0.1830
15373TIP3    H167534   2.124   3.883   5.554 -1.9023  0.0481 -1.3592
15373TIP3    H267535   2.266   3.912   5.510 -0.7233  0.1429  2.1838
15374TIP3   OH267536   6.396   3.629  15.698 -0.4072 -0.2945 -0.2375
15374TIP3    H167537   6.382   3.541  15.664  0.0066 -1.4869  2.4685
15374TIP3    H267538   6.315   3.651  15.744 -0.2801  0.5067 -0.3706
15375TIP3   OH267539   0.828   2.486   3.267 -0.6901  0.1468 -0.5536
15375TIP3    H167540   0.737   2.459   3.253 -0.9362 -0.1777  1.3195
15375TIP3    H267541   0.824   2.581   3.270 -1.5944  0.1384  2.5027
15376TIP3   OH267542   1.922   4.788   4.801 -0.0548 -0.0296  0.3452
15376TIP3    H167543   1.901   4.699   4.826 -1.4609  0.2878  0.3638
15376TIP3    H267544   1.973   4.779   4.720  0.9294 -0.8721  1.0242
15377TIP3   OH267545   5.991   0.611  13.812  0.0351 -0.1391  0.3372
15377TIP3    H167546   5.988   0.645  13.902 -2.0640 -0.2820  0.3586
15377TIP3    H267547   5.900   0.593  13.790  0.7865 -3.2258 -0.6681
15378TIP3   OH267548   2.492   5.150  10.817 -0.2443  0.2117  0.6670
15378TIP3    H167549   2.584   5.146  10.793 -0.3731  1.3763 -0.1006
15378TIP3    H267550   2.463   5.059  10.821  0.5330 -0.1179 -0.6944
15379TIP3   OH267551   3.787   4.500  16.005  0.3095  0.4000 -0.0312
15379TIP3    H167552   3.724   4.469  16.070  0.0418  1.3124  0.1583
15379TIP3    H267553   3.835   4.570  16.049  1.1395  0.0397 -0.3357
15380TIP3   OH267554   0.914   6.252  16.516  0.1225  0.2941 -0.2309
15380TIP3    H167555   0.896   6.254  16.422 -1.8281 -0.0592  0.0904
15380TIP3    H267556   0.972   6.176  16.527 -1.2212 -0.8864 -0.9453
15381TIP3   OH267557   0.981   5.637   2.737  0.5490  0.3415 -0.1435
15381TIP3    H167558   0.966   5.544   2.750  0.3197  0.3959 -0.0268
15381TIP3    H267559   0.894   5.676   2.739  0.7480  0.7731  1.4512
15382TIP3   OH267560   6.636   2.833  13.578  0.8389  0.4293 -0.1611
15382TIP3    H167561   6.717   2.852  13.625  2.2190 -0.7551 -1.9211
15382TIP3    H267562   6.581   2.787  13.642  0.9891  2.3730  1.4383
15383TIP3   OH267563   5.273   6.022  14.637  0.4567  0.3298 -0.0534
15383TIP3    H167564   5.226   5.960  14.693 -1.1051  1.3844 -0.1192
15383TIP3    H267565   5.311   5.968  14.568  0.3570 -0.7100  0.6803
15384TIP3   OH267566   2.713   5.484  16.724 -0.1357 -0.2089 -0.2247
15384TIP3    H167567   2.780   5.427  16.686 -0.4532  0.9481 -2.7151
15384TIP3    H267568   2.632   5.459  16.680 -0.7360  0.5814  0.3974
15385TIP3   OH267569   5.231   0.169   3.144 -0.0956  0.1670  0.7331
15385TIP3    H167570   5.306   0.147   3.089 -1.3925 -1.6623 -0.4331
15385TIP3    H267571   5.255   0.140   3.232  0.0099 -1.8645  0.0792
15386TIP3   OH267572   0.815   2.889  12.024  0.2923 -0.0181  0.5112
15386TIP3    H167573   0.731   2.910  11.982 -1.8179  1.0035  4.6672
15386TIP3    H267574   0.876   2.954  11.991 -1.1275  0.6273 -0.9691
15387TIP3   OH267575   6.117   2.379  16.744  0.7837  0.1407  0.4563
15387TIP3    H167576   6.196   2.432  16.752  0.7423  0.2498  0.1691
15387TIP3    H267577   6.046   2.442  16.744  0.8048  0.2073 -1.2179
15388TIP3   OH267578   1.908   3.225   4.488 -0.1378 -0.0568  0.7931
15388TIP3    H167579   1.825   3.191   4.454  0.3153  0.2945 -0.6877
15388TIP3    H267580   1.897   3.320   4.489  0.8770  0.1323 -1.2091
15389TIP3   OH267581   4.696   4.586  13.156  0.1132  0.2643  0.0391
15389TIP3    H167582   4.689   4.552  13.067 -0.8301  1.5874 -0.4341
15389TIP3    H267583   4.789   4.580  13.177  0.7123  1.8110 -1.8382
15390TIP3   OH267584   1.963   0.661   4.268  0.2419  0.4044 -0.2379
15390TIP3    H167585   1.928   0.726   4.206  2.4269  1.1025 -0.8556
15390TIP3    H267586   1.971   0.708   4.350 -2.0579 -0.3421  0.4845
15391TIP3   OH267587   2.494   2.797   1.773  0.0562  0.1081 -0.6343
15391TIP3    H167588   2.432   2.788   1.701 -0.3804  2.6833 -0.6809
15391TIP3    H267589   2.524   2.708   1.791 -1.5624 -0.8642 -2.4441
15392TIP3   OH267590   5.904   3.176   4.580 -0.2315  0.5325  0.1423
15392TIP3    H167591   5.999   3.163   4.580 -0.0492  1.5875 -1.2748
15392TIP3    H267592   5.889   3.238   4.509 -2.0448  0.0323  0.0473
15393TIP3   OH267593   0.275   0.803   5.288 -0.4246  0.1930 -0.5209
15393TIP3    H167594   0.231   0.882   5.319 -1.0764 -0.2644 -0.2477
15393TIP3    H267595   0.330   0.832   5.215 -0.7537  0.8702 -0.5037
15394TIP3   OH267596   3.163   3.524   1.780  0.8181 -0.1013  0.6082
15394TIP3    H167597   3.106   3.601   1.786  0.0178 -0.6963  0.7001
15394TIP3    H267598   3.242   3.550   1.829  2.0210  1.9007 -2.1455
15395TIP3   OH267599   1.289   0.891  11.743 -0.3313  0.0116  0.2890
15395TIP3    H167600   1.261   0.921  11.829  0.4038 -0.1767  0.6004
15395TIP3    H267601   1.300   0.971  11.692 -0.2759  0.1514  0.5197
15396TIP3   OH267602   0.761   0.607  15.140 -0.2347  0.1619  0.0330
15396TIP3    H167603   0.768   0.560  15.223 -0.6950 -1.1489 -0.6436
15396TIP3    H267604   0.827   0.566  15.084 -0.2580  0.7087 -0.3930
15397TIP3   OH267605   1.505   1.181   0.583 -0.2442  0.0740 -0.4185
15397TIP3    H167606   1.559   1.210   0.656 -0.3909  0.8456 -0.6031
15397TIP3    H267607   1.418   1.214   0.603 -0.0513  1.3353 -1.4859
15398TIP3   OH267608   5.319   0.134  10.932 -0.1409  0.0162  0.1749
15398TIP3    H167609   5.309   0.172  10.845  0.5071 -0.1678  0.0154
15398TIP3    H267610   5.256   0.181  10.986 -0.0831  0.5925 -0.2507
15399TIP3   OH267611   2.028   4.510  15.665  0.8425 -0.0176 -0.4554
15399TIP3    H167612   1.996   4.569  15.597  0.9653  1.0633  0.3964
15399TIP3    H267613   2.104   4.555  15.702 -0.5272  0.5375  1.9037
15400TIP3   OH267614   1.816   1.980  14.790 -0.4146 -0.5096 -0.7874
15400TIP3    H167615   1.793   2.032  14.713 -1.5165 -1.4178 -1.0931
15400TIP3    H267616   1.796   1.889  14.765  0.4148 -0.9701  0.1268
15401TIP3   OH267617   2.394   5.016   2.567  0.6462  0.2772  0.2593
15401TIP3    H167618   2.377   5.102   2.605  0.4102  0.6426 -0.6494
15401TIP3    H267619   2.489   5.012   2.559  0.5805  1.1080 -1.1477
15402TIP3   OH267620   2.980   5.065  16.569 -0.0784 -0.2818 -0.0384
15402TIP3    H167621   3.022   5.094  16.650  0.8800  0.4689 -0.7843
15402TIP3    H267622   3.052   5.047  16.509 -0.7814  0.7856 -1.2697
15403TIP3   OH267623   3.885   3.820  15.047 -0.0808  0.1303  0.7754
15403TIP3    H167624   3.945   3.868  14.990 -1.6845  1.0624 -0.2223
15403TIP3    H267625   3.940   3.783  15.115  2.0367 -1.5380 -1.6753
15404TIP3   OH267626   6.231   4.461   1.286  0.0812 -0.6408 -0.0937
15404TIP3    H167627   6.308   4.480   1.339 -0.6943  0.7434  0.5821
15404TIP3    H267628   6.246   4.372   1.253  1.7394 -0.5755  0.3878
15405TIP3   OH267629   6.283   5.425   5.554  0.4135 -0.7557 -0.1380
15405TIP3    H167630   6.373   5.397   5.569  1.1053 -0.2558 -2.8698
15405TIP3    H267631   6.232   5.344   5.558  0.8999 -1.0141  1.6629
15406TIP3   OH267632   5.965   0.909  14.263 -0.0985  0.9818  0.7010
15406TIP3    H167633   5.964   0.919  14.358 -1.1207  2.6593  0.5517
15406TIP3    H267634   6.018   0.983  14.232  1.5587 -0.4274  0.0073
15407TIP3   OH267635   6.203   2.637  10.993  0.0150 -0.5241 -0.1214
15407TIP3    H167636   6.152   2.716  10.980 -1.2757 -1.2613  0.2974
15407TIP3    H267637   6.151   2.568  10.953  0.2009 -1.4571  1.1752
15408TIP3   OH267638   0.105   5.013   2.258 -0.0529  0.1046 -0.0216
15408TIP3    H167639   0.041   5.017   2.329  0.8589 -1.6898  0.9728
15408TIP3    H267640   0.177   5.068   2.288  0.3643 -0.7126  0.5110
15409TIP3   OH267641   4.608   2.432  13.918 -0.1240 -0.1973  0.3417
15409TIP3    H167642   4.701   2.456  13.914  0.0037 -0.7723 -3.0005
15409TIP3    H267643   4.608   2.337  13.924 -0.5060 -0.2034  0.2468
15410TIP3   OH267644   1.586   4.745   5.652  0.0528  0.4125  0.3189
15410TIP3    H167645   1.557   4.804   5.582  0.4932  0.1981 -0.0515
15410TIP3    H267646   1.678   4.768   5.666  0.7739 -1.4066 -1.1151
15411TIP3   OH267647   1.778   1.941  10.474  0.0491  0.2794  0.1216
15411TIP3    H167648   1.689   1.977  10.476 -0.4832 -0.9929  0.8239
15411TIP3    H267649   1.813   1.968  10.389 -2.0301 -1.5277 -1.4234
15412TIP3   OH267650   6.061   0.854   4.061  0.6091  0.1745  0.1467
15412TIP3    H167651   6.145   0.810   4.073  1.7524  1.7582 -1.5683
15412TIP3    H267652   6.074   0.910   3.985 -1.7907  1.0148  0.2874
15413TIP3   OH267653   6.091   1.561   1.874  0.5090 -0.1149  0.3130
15413TIP3    H167654   6.045   1.476   1.875  1.4081 -0.6130  0.2543
15413TIP3    H267655   6.039   1.617   1.932 -0.2244 -0.6330  0.1734
15414TIP3   OH267656   2.317   2.655   4.464  0.2066  0.0685 -0.3437
15414TIP3    H167657   2.384   2.596   4.429 -0.2894 -1.0815  0.5748
15414TIP3    H267658   2.347   2.675   4.552  0.4775  1.3915 -0.7182
15415TIP3   OH267659   5.978   3.803  13.768  0.1105  0.4033 -0.4487
15415TIP3    H167660   6.013   3.892  13.766  0.1843  0.3699 -0.7569
15415TIP3    H267661   5.898   3.808  13.715  1.2628 -0.1802 -2.3680
15416TIP3   OH267662   5.533   6.709   6.193 -0.0398 -0.0908  0.0281
15416TIP3    H167663   5.479   6.769   6.245 -1.5812  0.4754 -2.0793
15416TIP3    H267664   5.615   6.757   6.180 -0.4655  0.6813  0.1211
15417TIP3   OH267665   2.055   3.936   1.528 -0.3462 -0.6140  0.6086
15417TIP3    H167666   2.095   4.022   1.524  0.6276 -1.0542  0.6377
15417TIP3    H267667   1.975   3.949   1.579  0.4906  0.0044  1.7952
15418TIP3   OH267668   0.533   5.387   5.062 -0.2515  0.0573 -0.5239
15418TIP3    H167669   0.602   5.451   5.079 -0.1994 -0.0192 -0.4426
15418TIP3    H267670   0.456   5.439   5.040 -0.7731  0.2305  1.5197
15419TIP3   OH267671   5.676   0.368   1.391 -0.3441  0.2998 -0.1274
15419TIP3    H167672   5.652   0.379   1.299  1.0485  0.9883 -0.4510
15419TIP3    H267673   5.631   0.289   1.419  0.8110 -1.1042 -1.9969
15420TIP3   OH267674   0.265   3.165   0.693  0.2987  0.6568  0.0620
15420TIP3    H167675   0.360   3.155   0.681  0.3153  1.2980 -0.3916
15420TIP3    H267676   0.228   3.144   0.607 -0.2054 -2.1677  0.8469
15421TIP3   OH267677   5.045   0.680  15.697  0.8081  0.0221 -0.2090
15421TIP3    H167678   4.997   0.761  15.714 -2.0459 -1.6712  0.5891
15421TIP3    H267679   5.010   0.618  15.761  3.9274 -1.5205  0.1919
15422TIP3   OH267680   5.530   0.789   3.038 -0.4189 -0.3371 -0.0012
15422TIP3    H167681   5.620   0.760   3.045  0.2021  1.1683 -1.0879
15422TIP3    H267682   5.512   0.790   2.944 -0.9437  1.0833  0.0849
15423TIP3   OH267683   1.694   2.357  11.798  0.0775  0.2350 -0.3921
15423TIP3    H167684   1.754   2.416  11.844  2.8736 -1.4679 -1.5544
15423TIP3    H267685   1.728   2.352  11.709 -2.7619  0.2879 -1.5974
15424TIP3   OH267686   2.983   5.203   1.665  0.1412  0.5075 -0.2377
15424TIP3    H167687   3.071   5.241   1.665 -0.5993  2.3951 -2.2859
15424TIP3    H267688   2.962   5.191   1.573 -1.2765 -1.2183  0.2423
15425TIP3   OH267689   1.613   4.826   2.174 -0.3223 -0.3995  0.0874
15425TIP3    H167690   1.699   4.858   2.200  0.6412 -0.6048 -2.5549
15425TIP3    H267691   1.621   4.731   2.175 -0.8584 -0.4477  0.7604
15426TIP3   OH267692   3.490   1.726   2.753 -0.7281 -0.2258  0.2467
15426TIP3    H167693   3.511   1.787   2.683 -2.0636 -1.3520 -1.2099
15426TIP3    H267694   3.408   1.759   2.790 -1.4798 -1.1081 -0.5769
15427TIP3   OH267695   6.230   1.976   3.018 -0.3271 -0.6053  0.2231
15427TIP3    H167696   6.155   2.031   3.043  0.3706  0.4645  0.0310
15427TIP3    H267697   6.283   1.969   3.097  0.8791  1.1544 -0.3672
15428TIP3   OH267698   6.206   0.530  12.183  0.3814  0.2668 -0.5803
15428TIP3    H167699   6.185   0.608  12.235 -2.1798  0.6124 -2.0219
15428TIP3    H267700   6.233   0.564  12.098  0.9847 -0.4138 -0.6746
15429TIP3   OH267701   5.137   5.561   4.277 -0.0242  0.6007  0.4788
15429TIP3    H167702   5.085   5.635   4.307 -0.6523  1.4209 -2.3335
15429TIP3    H267703   5.076   5.488   4.272 -0.6359  1.1959 -1.4300
15430TIP3   OH267704   4.448   4.430   3.141 -0.1987 -0.0845  0.4524
15430TIP3    H167705   4.460   4.419   3.047  0.4178 -0.2284  0.5404
15430TIP3    H267706   4.508   4.500   3.165  0.7910 -1.0683  0.9719
15431TIP3   OH267707   5.557   6.561   1.528 -0.9826 -0.1189 -0.3639
15431TIP3    H167708   5.484   6.520   1.482 -0.2978 -2.0094  0.1688
15431TIP3    H267709   5.562   6.515   1.612  0.2793  0.5787 -0.0227
15432TIP3   OH267710   1.325   3.570   5.374 -0.1898 -0.3799 -0.7091
15432TIP3    H167711   1.361   3.492   5.333 -0.3637 -0.4175 -0.7857
15432TIP3    H267712   1.396   3.602   5.430  0.2039 -0.0799 -1.3666
15433TIP3   OH267713   6.449   3.384  14.643  0.2324 -0.1334 -0.1279
15433TIP3    H167714   6.405   3.467  14.624 -1.6336 -1.3056 -1.2817
15433TIP3    H267715   6.410   3.355  14.726 -0.7994 -0.8969 -0.8588
15434TIP3   OH267716   0.317   2.561   6.000  0.0285 -0.0147  0.0746
15434TIP3    H167717   0.395   2.510   5.979  0.1679  0.0653  0.3917
15434TIP3    H267718   0.293   2.604   5.918  2.2594  2.6208  0.6619
15435TIP3   OH267719   3.521   2.945  15.352  0.2100 -0.7770 -0.0920
15435TIP3    H167720   3.577   2.918  15.425 -3.8744 -3.5326  2.4517
15435TIP3    H267721   3.497   3.035  15.371  0.5680 -0.9102  1.0343
15436TIP3   OH267722   0.130   4.651   4.445  0.5898 -0.1221  0.2157
15436TIP3    H167723   0.103   4.705   4.370  1.7708 -2.3026 -1.9119
15436TIP3    H267724   0.184   4.709   4.498 -0.4311  1.5400 -0.4871
15437TIP3   OH267725   1.621   4.014  13.250 -0.1771  0.3660  0.6460
15437TIP3    H167726   1.604   3.993  13.342 -0.0270  1.2015  0.8696
15437TIP3    H267727   1.584   3.940  13.201  0.1849 -0.3238  1.3983
15438TIP3   OH267728   5.667   5.785   1.476  0.0060  0.1337 -0.1144
15438TIP3    H167729   5.597   5.774   1.541 -0.6597  0.7621 -0.7104
15438TIP3    H267730   5.636   5.854   1.419  1.6451  1.2747  0.2994
15439TIP3   OH267731   6.234   1.423   3.507 -0.1344  0.1698 -0.0424
15439TIP3    H167732   6.215   1.372   3.428 -1.1735  1.6193 -0.7766
15439TIP3    H267733   6.187   1.505   3.495  1.6090  1.4133  1.0071
15440TIP3   OH267734   1.872   2.808   2.001  0.5070 -0.2255  0.3577
15440TIP3    H167735   1.961   2.815   2.037  1.2236  0.4905 -1.4526
15440TIP3    H267736   1.855   2.893   1.960 -1.5399  0.1014  1.7306
15441TIP3   OH267737   2.277   0.576   6.398 -0.5092  0.4576  0.1781
15441TIP3    H167738   2.284   0.522   6.477 -0.8896 -0.3930 -0.3465
15441TIP3    H267739   2.213   0.644   6.421  0.3246  0.9764  1.0030
15442TIP3   OH267740   1.496   0.817   5.432 -0.4402 -0.1357 -0.4043
15442TIP3    H167741   1.508   0.894   5.488  4.1304  0.5546 -1.8497
15442TIP3    H267742   1.467   0.748   5.492 -1.5425  1.9072  1.5810
15443TIP3   OH267743   1.260   0.175   3.966 -0.2484 -0.7192 -0.1057
15443TIP3    H167744   1.260   0.240   4.036  0.7838  0.4157 -1.1004
15443TIP3    H267745   1.332   0.202   3.909 -0.2567 -2.3400 -0.9340
15444TIP3   OH267746   0.479   5.727   0.943  0.6409 -0.4821  0.5383
15444TIP3    H167747   0.549   5.753   0.882  1.1414  0.0437  1.3137
15444TIP3    H267748   0.515   5.746   1.029 -0.1497 -1.0043  0.9906
15445TIP3   OH267749   3.142   1.946  14.098  0.2763 -0.0043 -0.3368
15445TIP3    H167750   3.204   2.017  14.081  1.7439 -1.3153 -0.7374
15445TIP3    H267751   3.181   1.870  14.056 -1.0010 -1.1688  0.4911
15446TIP3   OH267752   2.441   1.810  13.388  0.0352 -0.0186  0.5783
15446TIP3    H167753   2.491   1.887  13.363 -1.3032  0.7218  0.0937
15446TIP3    H267754   2.478   1.784  13.473  1.7870 -0.0260 -0.1333
15447TIP3   OH267755   3.880   1.830  16.987  0.0267  0.3580  0.0502
15447TIP3    H167756   3.831   1.878  16.921 -0.0680  2.2790  1.4097
15447TIP3    H267757   3.818   1.821  17.060  0.7625  0.2008  0.6690
15448TIP3   OH267758   0.896   3.098   4.235  0.3061 -0.4225 -0.0966
15448TIP3    H167759   0.816   3.149   4.219  0.0630 -1.0977 -1.1397
15448TIP3    H267760   0.956   3.160   4.276 -0.3629  0.4015 -0.3167
15449TIP3   OH267761   6.629   2.360  12.329  0.1420 -0.0028  0.4178
15449TIP3    H167762   6.584   2.334  12.249 -0.5470 -1.5804  1.2839
15449TIP3    H267763   6.563   2.406  12.380  1.1750  3.1038 -0.8166
15450TIP3   OH267764   0.890   2.596   0.723 -0.3458 -0.2305 -0.0234
15450TIP3    H167765   0.905   2.503   0.742  1.9919 -0.0423 -0.5722
15450TIP3    H267766   0.925   2.642   0.800  1.5508  0.2362 -1.0861
15451TIP3   OH267767   1.797   2.577   3.312 -0.6091  0.1479  0.2157
15451TIP3    H167768   1.770   2.498   3.266 -0.4339  0.7610 -0.9722
15451TIP3    H267769   1.861   2.547   3.376 -0.6934 -0.6980 -0.0866
15452TIP3   OH267770   4.993   4.120   3.595  0.5245 -0.5056 -0.5441
15452TIP3    H167771   4.987   4.028   3.570 -2.8725 -0.4168 -0.4927
15452TIP3    H267772   4.983   4.120   3.690 -0.9805 -0.0699 -0.6720
15453TIP3   OH267773   5.889   5.972  11.848 -0.1147  0.1894  0.0727
15453TIP3    H167774   5.974   5.929  11.850  1.1221  2.1311 -2.9378
15453TIP3    H267775   5.839   5.924  11.782 -1.0503 -0.3896  1.1806
15454TIP3   OH267776   1.371   5.094   4.380  0.4537  0.0450  0.1202
15454TIP3    H167777   1.391   5.046   4.460  0.2614 -3.4831 -1.7149
15454TIP3    H267778   1.449   5.083   4.326  0.1338  1.3066 -0.6279
15455TIP3   OH267779   3.714   2.419   1.819 -0.2199  0.1357 -0.1392
15455TIP3    H167780   3.675   2.480   1.757 -0.0514 -1.3438 -1.7662
15455TIP3    H267781   3.777   2.471   1.869 -0.4379  1.3824 -1.1332
15456TIP3   OH267782   0.505   2.676  13.158 -0.2562  0.4239  0.1143
15456TIP3    H167783   0.410   2.671  13.144 -0.3809 -0.9454  1.2864
15456TIP3    H267784   0.543   2.624  13.087 -0.2959  1.5636 -0.7904
15457TIP3   OH267785   0.010   2.716  11.534 -0.6839  0.5946 -0.1375
15457TIP3    H167786   0.045   2.802  11.511  0.6820 -0.5641 -2.8327
15457TIP3    H267787   0.035   2.660  11.461 -3.0245 -1.7377  0.7162
15458TIP3   OH267788   1.848   5.816  11.105 -0.3343 -0.2888  0.0049
15458TIP3    H167789   1.800   5.737  11.130  0.1101 -0.2497  1.0493
15458TIP3    H267790   1.809   5.842  11.022 -0.8679 -1.2876 -0.0833
15459TIP3   OH267791   4.033   4.003  16.177 -0.8552  0.4614 -0.3054
15459TIP3    H167792   4.020   3.959  16.261  0.0548  1.4101  0.3610
15459TIP3    H267793   3.979   4.081  16.182  0.2087  1.2005 -0.0476
15460TIP3   OH267794   6.631   5.859   1.322 -0.2251 -0.0644 -0.0297
15460TIP3    H167795   6.612   5.952   1.334  0.4698 -0.2167  2.8299
15460TIP3    H267796   6.726   5.853   1.324 -0.2642 -1.0412  2.5085
15461TIP3   OH267797   1.323   1.502  12.128 -0.1365  0.5731  0.2962
15461TIP3    H167798   1.406   1.519  12.083  0.3793  1.3061  1.4810
15461TIP3    H267799   1.266   1.574  12.102  0.1969  1.0555  0.8640
15462TIP3   OH267800   0.613   2.995   4.265  0.2023  0.1322  0.1377
15462TIP3    H167801   0.704   2.974   4.283  0.2525 -0.2509 -0.5273
15462TIP3    H267802   0.589   3.058   4.333  0.9508  0.2130  0.3368
15463TIP3   OH267803   4.924   5.611   0.698  0.5341  0.5307 -0.5080
15463TIP3    H167804   5.006   5.568   0.719  0.3839  1.0106  1.2460
15463TIP3    H267805   4.884   5.557   0.630  1.4204 -0.7663 -0.0200
15464TIP3   OH267806   1.370   2.543   4.163  0.1146 -0.1457  0.2996
15464TIP3    H167807   1.402   2.594   4.089 -1.2103 -1.8266 -1.5354
15464TIP3    H267808   1.296   2.594   4.197  0.3066  0.3118  0.0358
15465TIP3   OH267809   5.334   3.331   3.246 -0.5248 -0.1036  0.5005
15465TIP3    H167810   5.262   3.373   3.294  1.9320  1.0742  3.5197
15465TIP3    H267811   5.377   3.403   3.200 -1.7455 -0.9615 -2.1999
15466TIP3   OH267812   6.269   0.670  15.239 -0.1292 -0.0008 -0.1049
15466TIP3    H167813   6.191   0.711  15.203 -0.1506 -1.1850 -1.5142
15466TIP3    H267814   6.262   0.684  15.333 -1.7260  0.4316 -0.2516
15467TIP3   OH267815   5.752   5.123  14.289  0.2162  0.3151  0.0429
15467TIP3    H167816   5.761   5.179  14.212 -0.7597 -2.4439 -2.2894
15467TIP3    H267817   5.839   5.085  14.300  0.2271  0.3002 -0.0830
15468TIP3   OH267818   4.704   6.652   5.538 -0.0392  0.2161 -0.5620
15468TIP3    H167819   4.657   6.710   5.598  2.8146  1.9546  0.1810
15468TIP3    H267820   4.702   6.699   5.454  0.6873  0.5195 -0.4176
15469TIP3   OH267821   1.611   6.576  17.057 -0.0087  0.4462  0.5674
15469TIP3    H167822   1.645   6.491  17.028 -1.8877  0.0724 -0.8002
15469TIP3    H267823   1.659   6.640  17.006  0.9267  0.1736  1.0846
15470TIP3   OH267824   5.687   5.978  12.036 -0.0718 -0.0006  0.5894
15470TIP3    H167825   5.703   5.891  12.072  1.0429  0.1313  0.4542
15470TIP3    H267826   5.766   5.998  11.985 -0.7456  0.6679 -0.2277
15471TIP3   OH267827   0.887   5.797  16.821  0.3633 -0.0413 -1.1872
15471TIP3    H167828   0.804   5.750  16.809 -1.3321  1.4160  3.0312
15471TIP3    H267829   0.881   5.871  16.760 -2.1949  0.8162 -0.0441
15472TIP3   OH267830   2.660   3.077  11.106 -0.1111 -0.4557  0.1983
15472TIP3    H167831   2.625   2.992  11.079  0.2073 -0.3949 -0.4321
15472TIP3    H267832   2.679   3.122  11.024  2.9742 -1.1129  0.4297
15473TIP3   OH267833   0.418   2.998   5.674 -0.1824 -0.2406  0.2731
15473TIP3    H167834   0.382   3.072   5.626  0.3058  0.1170  0.4440
15473TIP3    H267835   0.403   2.923   5.617  1.2235  0.3093 -0.9103
15474TIP3   OH267836   4.401   1.830   4.192  0.1901 -0.0729 -0.1874
15474TIP3    H167837   4.467   1.803   4.129  0.5616 -1.0078  0.5723
15474TIP3    H267838   4.417   1.923   4.206  1.7276 -0.4109  0.4305
15475TIP3   OH267839   3.898   1.111   2.653  0.9712 -0.2467 -0.0575
15475TIP3    H167840   3.870   1.081   2.739 -1.4797  0.8320 -0.4009
15475TIP3    H267841   3.969   1.173   2.671  0.9384 -0.5313  1.1195
15476TIP3   OH267842   0.863   2.467  11.437 -0.1647 -0.2721  0.5433
15476TIP3    H167843   0.813   2.509  11.506  1.0249  0.7108  0.8298
15476TIP3    H267844   0.953   2.464  11.470  0.5698  0.8375 -1.1905
15477TIP3   OH267845   6.194   4.920   3.846  0.7372  0.3122  0.1743
15477TIP3    H167846   6.133   4.908   3.919  1.1458 -0.7041  0.3628
15477TIP3    H267847   6.147   4.977   3.785 -0.4649 -0.5427  0.2625
15478TIP3   OH267848   6.097   2.456   3.741  0.0181  0.1853 -0.0112
15478TIP3    H167849   6.158   2.388   3.714 -2.1360 -1.5350 -0.8765
15478TIP3    H267850   6.108   2.526   3.676  1.3039  0.0795  0.0842
15479TIP3   OH267851   5.489   0.710  16.615  0.0111  0.7030 -0.3406
15479TIP3    H167852   5.558   0.743  16.672 -1.2890  2.7875  0.1804
15479TIP3    H267853   5.418   0.775  16.625 -2.3660 -1.7591 -0.1516
15480TIP3   OH267854   4.697   4.505   1.315 -0.2527 -0.4320 -0.4823
15480TIP3    H167855   4.700   4.502   1.411 -1.4037 -0.8706 -0.4413
15480TIP3    H267856   4.772   4.559   1.290 -0.9013  1.0898  0.7410
15481TIP3   OH267857   6.208   2.689   0.812  0.4271  0.2787 -0.6549
15481TIP3    H167858   6.285   2.694   0.755  1.8006  0.3493  1.1222
15481TIP3    H267859   6.194   2.780   0.841 -0.2758  0.2470 -0.8737
15482TIP3   OH267860   0.673   4.881  15.166 -0.4531  0.2608  0.0755
15482TIP3    H167861   0.756   4.855  15.204  0.2621  1.0942 -0.8538
15482TIP3    H267862   0.619   4.802  15.167 -0.2810  0.0917  2.2230
15483TIP3   OH267863   5.914   3.506  12.559  0.3209  0.4342 -0.3754
15483TIP3    H167864   5.970   3.566  12.608 -0.9057  1.2218  0.1139
15483TIP3    H267865   5.847   3.478  12.621 -0.2734  0.1040 -1.1393
15484TIP3   OH267866   1.098   1.216  16.720  0.0933 -0.0571 -0.6243
15484TIP3    H167867   1.067   1.250  16.805  1.4471  0.4347 -0.3022
15484TIP3    H267868   1.019   1.180  16.679 -0.5157 -0.7317  1.0339
15485TIP3   OH267869   6.093   6.288   6.160 -0.1077 -0.0103  0.1360
15485TIP3    H167870   6.109   6.376   6.126  0.5438  0.1579  0.8443
15485TIP3    H267871   6.168   6.236   6.131 -1.3844 -0.8302 -1.8661
15486TIP3   OH267872   6.387   0.684  13.214  0.6155  0.5805  0.5591
15486TIP3    H167873   6.482   0.696  13.214  0.5273  1.3369  1.3074
15486TIP3    H267874   6.368   0.646  13.300  0.3844 -0.9375 -0.1224
15487TIP3   OH267875   5.815   5.642   2.238 -0.1284 -0.1511  0.5662
15487TIP3    H167876   5.736   5.695   2.229  1.1394  1.7570 -0.1109
15487TIP3    H267877   5.854   5.671   2.321 -0.1020 -1.0655  0.8901
15488TIP3   OH267878   1.381   1.987  10.864  0.1148 -0.0566 -0.0788
15488TIP3    H167879   1.319   2.011  10.796  1.1145  1.0140 -0.6343
15488TIP3    H267880   1.329   1.938  10.928 -0.7524 -1.4378 -1.7788
15489TIP3   OH267881   1.599   6.019   1.137 -0.5943  0.1480  0.0317
15489TIP3    H167882   1.683   6.003   1.094 -0.6090  2.0712 -0.8079
15489TIP3    H267883   1.535   5.971   1.083 -0.1713 -0.4709  0.0727
15490TIP3   OH267884   3.404   3.684   3.395 -0.4537 -0.0633 -0.6759
15490TIP3    H167885   3.424   3.617   3.329  2.5303 -0.9188  0.9144
15490TIP3    H267886   3.313   3.668   3.419 -0.5510 -1.9895 -2.0763
15491TIP3   OH267887   0.683   5.735   4.507  0.4201  0.1042  0.4821
15491TIP3    H167888   0.704   5.686   4.587  0.5321 -0.3656  0.1695
15491TIP3    H267889   0.751   5.803   4.503 -0.0438  0.6389  1.1967
15492TIP3   OH267890   4.438   1.367  15.025 -0.0623 -0.0732 -0.2113
15492TIP3    H167891   4.420   1.286  14.977  2.3665 -0.6267 -0.3662
15492TIP3    H267892   4.451   1.433  14.956 -2.8400  0.7417 -0.0734
15493TIP3   OH267893   2.728   1.955   2.065 -0.1575 -0.0852 -0.0337
15493TIP3    H167894   2.643   1.996   2.049 -0.4571  0.0176  1.7165
15493TIP3    H267895   2.771   1.957   1.979 -0.6471  2.7311 -0.2988
15494TIP3   OH267896   1.580   5.304  11.967  0.5352  0.2248  0.5354
15494TIP3    H167897   1.525   5.274  12.039 -1.3719  1.0794 -0.4796
15494TIP3    H267898   1.548   5.391  11.946  1.4521  0.2509 -0.9295
15495TIP3   OH267899   1.316   2.447  17.253  0.2646  0.2304 -0.8077
15495TIP3    H167900   1.238   2.463  17.305  0.2879 -0.1363 -0.6539
15495TIP3    H267901   1.295   2.483  17.167  0.6483  1.8579 -0.2544
15496TIP3   OH267902   3.821   3.084   2.344 -0.5744 -0.0843 -0.0893
15496TIP3    H167903   3.861   3.139   2.277  0.0886  0.6032  0.8441
15496TIP3    H267904   3.892   3.064   2.405 -1.0430 -1.1318  0.1350
15497TIP3   OH267905   3.174   6.502  16.334  0.0054  0.1077  0.5574
15497TIP3    H167906   3.142   6.515  16.244 -0.2107  0.1561  0.6407
15497TIP3    H267907   3.267   6.526  16.330 -0.2548  1.1263  0.5836
15498TIP3   OH267908   6.469   2.422  13.475 -0.1079  0.1633  0.4440
15498TIP3    H167909   6.517   2.347  13.510  1.0460 -0.0532 -1.4770
15498TIP3    H267910   6.499   2.430  13.384 -1.7149  1.7156 -0.0088
15499TIP3   OH267911   6.471   1.959  13.893  0.6672  0.4921 -0.2141
15499TIP3    H167912   6.566   1.964  13.902  1.0074 -0.5286 -2.3883
15499TIP3    H267913   6.458   1.932  13.802 -1.6389 -1.6105  0.6320
15500TIP3   OH267914   0.594   5.074  17.029  0.2594 -0.1085  1.1029
15500TIP3    H167915   0.668   5.028  16.990 -0.0399 -0.8743  1.4013
15500TIP3    H267916   0.613   5.167  17.016  0.9177 -0.3111  0.5432
15501TIP3   OH267917   1.852   0.337   0.192 -1.1006  0.1195  0.2166
15501TIP3    H167918   1.936   0.374   0.165 -0.7383 -1.6714 -1.3193
15501TIP3    H267919   1.791   0.410   0.187 -0.3407  0.6752 -2.1851
15502TIP3   OH267920   3.170   1.432  15.215  0.3993 -0.2180 -0.2643
15502TIP3    H167921   3.252   1.390  15.243  0.2303 -0.5999 -0.3398
15502TIP3    H267922   3.194   1.523  15.200  0.4605  0.0322  1.2695
15503TIP3   OH267923   2.268   3.739   2.864 -0.5093  0.2647  0.3452
15503TIP3    H167924   2.336   3.684   2.902 -1.2638 -0.3667  0.7903
15503TIP3    H267925   2.281   3.731   2.769  1.4205  1.8973  0.3844
15504TIP3   OH267926   6.475   0.962   0.521  0.2394  0.0627 -0.8541
15504TIP3    H167927   6.548   1.015   0.489 -0.4354  0.4294 -1.8433
15504TIP3    H267928   6.478   0.882   0.469  0.2382 -0.1423 -0.5442
15505TIP3   OH267929   6.538   2.883  10.685  0.0215  0.7834 -0.0614
15505TIP3    H167930   6.552   2.793  10.657 -0.6113  0.8512 -0.6106
15505TIP3    H267931   6.444   2.889  10.703  0.0806  1.2956  0.0986
15506TIP3   OH267932   0.485   6.678   0.568  0.0649  0.6063  0.6835
15506TIP3    H167933   0.411   6.666   0.627 -1.0546 -2.5128 -1.0858
15506TIP3    H267934   0.455   6.743   0.505 -0.1785  1.1943  1.3956
15507TIP3   OH267935   4.726   2.540  15.117 -0.6996  0.1853  0.0784
15507TIP3    H167936   4.644   2.544  15.067 -0.0795  0.4928 -0.9426
15507TIP3    H267937   4.795   2.543  15.050  0.1483 -1.6733  0.7973
15508TIP3   OH267938   4.216   6.565   3.895 -0.5874 -0.9214 -0.1114
15508TIP3    H167939   4.254   6.533   3.977  1.8166  0.2854 -0.6616
15508TIP3    H267940   4.253   6.508   3.828  1.2335  0.9207 -0.7686
15509TIP3   OH267941   4.503   1.223   4.269 -0.6728  0.0026  0.0836
15509TIP3    H167942   4.541   1.209   4.182  2.4322 -0.6566  1.4110
15509TIP3    H267943   4.468   1.137   4.294 -1.7063  0.2317 -0.5603
15510TIP3   OH267944   6.138   5.243   5.889  0.2389 -0.0358 -0.2934
15510TIP3    H167945   6.203   5.174   5.873 -0.4746 -0.9801  0.7513
15510TIP3    H267946   6.166   5.283   5.971 -1.1349 -1.2764  0.8427
15511TIP3   OH267947   5.254   5.306   2.116 -0.6550  0.1630 -0.6662
15511TIP3    H167948   5.177   5.357   2.141 -0.0862  1.2298 -1.0086
15511TIP3    H267949   5.324   5.371   2.108  0.9573 -1.0381  2.2058
15512TIP3   OH267950   2.919   4.020   2.492  0.4348  0.3139  0.4916
15512TIP3    H167951   2.972   4.084   2.444 -2.2395  0.7835 -2.1224
15512TIP3    H267952   2.848   4.072   2.531 -1.2145 -0.8417 -0.8157
15513TIP3   OH267953   2.151   3.985  17.075  0.2688 -0.3491  0.7960
15513TIP3    H167954   2.174   4.040  17.150  0.3214  0.5852  0.1211
15513TIP3    H267955   2.129   4.048  17.006  0.8195 -1.1747 -0.1576
15514TIP3   OH267956   0.929   2.364  14.553  0.3602 -0.7083 -0.1156
15514TIP3    H167957   0.936   2.418  14.632  0.6968 -0.9950  0.0549
15514TIP3    H267958   0.835   2.355  14.538  0.2708  1.4957 -1.2256
15515TIP3   OH267959   2.046   1.010  16.500  0.1094  0.6020  0.2821
15515TIP3    H167960   1.961   0.994  16.459  0.0749  3.7710 -1.2253
15515TIP3    H267961   2.024   1.053  16.583  0.2213  0.6495  0.2872
15516TIP3   OH267962   3.809   5.824   5.241 -0.1667 -0.1272  0.2866
15516TIP3    H167963   3.823   5.858   5.152  1.0895 -1.0553  0.1158
15516TIP3    H267964   3.725   5.778   5.236 -0.6436  0.7443 -0.1178
15517TIP3   OH267965   1.135   0.205  12.987  0.5276 -0.1824  0.5542
15517TIP3    H167966   1.174   0.243  13.065 -0.0949  1.5674  0.0606
15517TIP3    H267967   1.040   0.210  13.003  0.4070 -2.1006  0.7028
15518TIP3   OH267968   3.455   1.388  15.395  0.3792 -0.5194  0.4356
15518TIP3    H167969   3.388   1.355  15.455  0.2185 -0.8571  0.0700
15518TIP3    H267970   3.530   1.330  15.409  0.5070 -0.3077  0.6477
15519TIP3   OH267971   2.708   1.524   0.443 -0.0621  0.0779 -0.2701
15519TIP3    H167972   2.676   1.607   0.478 -0.3546  0.4347 -1.3276
15519TIP3    H267973   2.633   1.465   0.450  0.2751 -0.2261  0.8691
15520TIP3   OH267974   1.045   5.360  16.648  0.5909 -0.0841 -0.2646
15520TIP3    H167975   0.963   5.367  16.696  1.0745  1.1046  0.4342
15520TIP3    H267976   1.112   5.386  16.711  1.4299 -0.2642 -1.0583
15521TIP3   OH267977   2.341   4.888   4.654 -0.6840  0.6376  0.1993
15521TIP3    H167978   2.345   4.843   4.739 -2.5638 -1.3079 -0.6558
15521TIP3    H267979   2.250   4.915   4.646 -0.5531  0.6790 -1.2790
15522TIP3   OH267980   5.482   2.717   5.925  0.2063  0.0051  0.2706
15522TIP3    H167981   5.389   2.701   5.911 -0.0576 -0.3845  2.2438
15522TIP3    H267982   5.486   2.808   5.956  0.2686 -0.5342  1.8987
15523TIP3   OH267983   3.702   5.047  11.770 -0.1957 -0.3992 -0.3396
15523TIP3    H167984   3.695   5.133  11.730  2.2757  0.7362  1.3972
15523TIP3    H267985   3.726   4.989  11.698  0.4115  0.8271 -1.1606
15524TIP3   OH267986   2.631   0.286   1.145 -0.5625 -0.4389  0.3991
15524TIP3    H167987   2.588   0.203   1.161 -0.3833 -0.7385 -0.6199
15524TIP3    H267988   2.579   0.328   1.077 -0.7220  0.3470  0.9854
15525TIP3   OH267989   3.286   0.811   0.967 -0.1930 -0.0762 -0.3322
15525TIP3    H167990   3.316   0.889   0.920 -1.0904  0.3376 -0.2537
15525TIP3    H267991   3.325   0.737   0.921  0.2359  0.3975 -0.7338
15526TIP3   OH267992   3.993   0.624   1.252 -0.0942 -0.4070 -0.2603
15526TIP3    H167993   4.054   0.677   1.200 -0.9200 -0.2348 -1.0618
15526TIP3    H267994   3.975   0.678   1.329  1.0406 -0.6182  0.1867
15527TIP3   OH267995   5.742   5.917   0.974  0.1062 -0.5512 -0.2152
15527TIP3    H167996   5.656   5.945   1.005  0.1026 -0.7706 -0.0212
15527TIP3    H267997   5.726   5.883   0.886 -0.0294 -0.7222 -0.1247
15528TIP3   OH267998   3.295   1.895   2.348  0.3554  0.1358  0.4038
15528TIP3    H167999   3.385   1.881   2.318  1.5716  1.3678  3.1380
15528TIP3    H268000   3.304   1.948   2.427 -2.7650 -0.2856  1.1787
15529TIP3   OH268001   5.626   3.415  15.163  0.4594 -0.4852  0.3604
15529TIP3    H168002   5.538   3.401  15.197 -0.3899  2.9558 -0.0844
15529TIP3    H268003   5.621   3.389  15.071  0.0180 -0.5897  0.4135
15530TIP3   OH268004   0.577   2.698   0.105  0.0518  0.3166 -0.2342
15530TIP3    H168005   0.482   2.689   0.099 -0.1071  2.0181 -0.8607
15530TIP3    H268006   0.592   2.738   0.191  0.1516  0.4568 -0.3154
15531TIP3   OH268007   3.700   5.569   2.009 -0.4150 -0.2749 -0.8367
15531TIP3    H168008   3.684   5.529   1.924 -0.9887  1.5297 -1.6456
15531TIP3    H268009   3.737   5.655   1.988  1.2936 -0.5324  0.8077
15532TIP3   OH268010   4.836   4.613  11.639  0.3580 -0.1751 -0.2073
15532TIP3    H168011   4.866   4.581  11.554 -0.5053 -2.0580  0.1327
15532TIP3    H268012   4.748   4.578  11.648 -0.0961  1.1650  0.8761
15533TIP3   OH268013   6.410   0.306   5.816 -0.4779 -0.3353  0.3988
15533TIP3    H168014   6.395   0.392   5.855 -3.1817 -1.8683  3.1558
15533TIP3    H268015   6.369   0.244   5.877  1.9566 -3.6989 -1.0408
15534TIP3   OH268016   0.670   3.197   4.989 -0.3110  0.2705 -0.3340
15534TIP3    H168017   0.758   3.161   4.988 -0.3251  0.0958  1.5512
15534TIP3    H268018   0.613   3.121   5.003 -0.8788  0.2506 -2.4004
15535TIP3   OH268019   4.410   6.395   0.497 -0.5399  0.3665  0.1529
15535TIP3    H168020   4.496   6.437   0.497 -0.3247 -0.0471  1.3013
15535TIP3    H268021   4.355   6.453   0.444 -0.0964  1.8023  1.2191
15536TIP3   OH268022   3.990   2.452  13.465 -0.0713 -0.0703  0.0655
15536TIP3    H168023   4.068   2.472  13.516  0.4642  0.2475 -0.8618
15536TIP3    H268024   3.965   2.536  13.426 -2.1516  0.3320  2.0558
15537TIP3   OH268025   3.675   5.184   2.094 -0.0340  0.2359  0.4586
15537TIP3    H168026   3.712   5.123   2.030 -0.0102  1.2677 -0.5455
15537TIP3    H268027   3.751   5.229   2.131 -0.0795 -0.0269  0.8778
15538TIP3   OH268028   3.423   4.285   6.534  0.1149 -0.1375  0.2201
15538TIP3    H168029   3.424   4.369   6.487  0.4040 -0.7837 -0.9824
15538TIP3    H268030   3.499   4.289   6.592 -0.2675  0.6971  0.6865
15539TIP3   OH268031   1.992   3.581   0.499  0.1346 -0.4295  0.8878
15539TIP3    H168032   2.046   3.527   0.442 -0.5822  0.0310 -0.2612
15539TIP3    H268033   1.933   3.519   0.541  0.3123 -0.7110  0.7309
15540TIP3   OH268034   3.255   6.760   0.528 -0.2411  0.3332 -0.2213
15540TIP3    H168035   3.346   6.756   0.500 -0.0404 -1.1990  0.6039
15540TIP3    H268036   3.256   6.815   0.606  0.0251 -0.0203  0.0203
15541TIP3   OH268037   3.456   5.384   3.950 -0.1470 -0.5089  0.0689
15541TIP3    H168038   3.389   5.425   3.896 -0.2223 -0.7328 -0.0079
15541TIP3    H268039   3.454   5.292   3.925 -0.3915 -0.6727  0.6627
15542TIP3   OH268040   1.260   3.265  17.060 -0.3608  0.5574  0.3215
15542TIP3    H168041   1.346   3.258  17.103 -0.1936 -0.2273 -0.1199
15542TIP3    H268042   1.280   3.280  16.968 -0.6476 -1.2705 -0.0799
15543TIP3   OH268043   2.527   5.827   2.070  0.1427 -0.4131  0.6707
15543TIP3    H168044   2.617   5.858   2.065 -0.2730  1.1540  2.0597
15543TIP3    H268045   2.475   5.897   2.030 -0.4748 -1.4435 -0.4332
15544TIP3   OH268046   4.387   3.623   6.578 -0.4082  0.2400 -0.3520
15544TIP3    H168047   4.480   3.609   6.556 -0.5056 -0.7879 -0.1650
15544TIP3    H268048   4.374   3.717   6.567  0.9709  0.6132  0.8260
15545TIP3   OH268049   5.138   0.494   2.330 -0.0296 -0.1964 -0.1676
15545TIP3    H168050   5.113   0.581   2.300 -3.2462 -1.0631 -0.4215
15545TIP3    H268051   5.194   0.460   2.261 -0.6973  0.8386 -1.2571
15546TIP3   OH268052   2.729   6.277  12.289  0.0754 -0.5519 -0.0102
15546TIP3    H168053   2.720   6.303  12.381 -1.0037  1.7962 -0.6934
15546TIP3    H268054   2.652   6.314  12.247  0.8716 -1.0404 -1.9922
15547TIP3   OH268055   6.454   1.374   3.188 -0.3660  0.6352 -0.2896
15547TIP3    H168056   6.365   1.350   3.214 -1.1879  3.2697 -0.3190
15547TIP3    H268057   6.502   1.383   3.271 -0.5087  0.4866 -0.1912
15548TIP3   OH268058   0.928   1.662   4.276 -0.9464  0.4034 -0.0616
15548TIP3    H168059   0.988   1.693   4.208 -0.7769  0.2403  0.0146
15548TIP3    H268060   0.937   1.725   4.347 -2.7270  1.8482 -1.0249
15549TIP3   OH268061   3.669   0.896   5.308  0.2205 -0.5107  0.1009
15549TIP3    H168062   3.686   0.928   5.219  0.3402 -0.5797  0.0987
15549TIP3    H268063   3.621   0.814   5.294 -0.6741 -0.0039  0.1136
15550TIP3   OH268064   3.051   3.436   5.289  0.1139 -0.3873  0.1554
15550TIP3    H168065   3.073   3.385   5.367  0.3010 -1.5894 -0.6580
15550TIP3    H268066   3.009   3.373   5.230 -1.4767  0.8459 -0.1108
15551TIP3   OH268067   3.699   1.790   1.842  0.5562  0.2476  0.6069
15551TIP3    H168068   3.782   1.785   1.794  0.0867  0.6306 -0.2455
15551TIP3    H268069   3.668   1.879   1.828 -0.6886 -0.2915 -0.2405
15552TIP3   OH268070   4.866   4.214  16.950  0.2746  0.2441 -0.4503
15552TIP3    H168071   4.814   4.287  16.984  1.6823  0.7479  0.7709
15552TIP3    H268072   4.956   4.245  16.956  1.1109 -2.1996  1.8774
15553TIP3   OH268073   6.373   0.805   2.636  0.1581 -0.0265 -0.3696
15553TIP3    H168074   6.356   0.805   2.542 -1.9191 -1.4401 -0.0556
15553TIP3    H268075   6.397   0.714   2.656 -1.1481 -0.1530  0.7215
15554TIP3   OH268076   0.266   5.952  15.179 -0.5074  0.2505  0.7474
15554TIP3    H168077   0.331   5.939  15.248 -1.2183 -0.5359  1.3014
15554TIP3    H268078   0.193   5.996  15.223 -0.5305  0.7253  0.2410
15555TIP3   OH268079   1.599   0.062   6.020 -0.2768 -0.2007  0.1564
15555TIP3    H168080   1.658   0.059   6.095  0.0475 -1.8422 -0.1325
15555TIP3    H268081   1.620  -0.016   5.969 -1.9056 -0.2189 -0.5620
15556TIP3   OH268082   5.539   3.245  16.817  0.5312 -0.2080 -0.3854
15556TIP3    H168083   5.622   3.213  16.850 -0.4840 -0.8609  1.7045
15556TIP3    H268084   5.503   3.172  16.766  0.1346 -0.8755  0.8185
15557TIP3   OH268085   4.626   2.141   4.416 -0.2380  0.0180 -0.1441
15557TIP3    H168086   4.695   2.083   4.384 -0.3550  0.2407 -0.8344
15557TIP3    H268087   4.552   2.083   4.432 -0.3240 -0.0486 -0.7402
15558TIP3   OH268088   0.206   2.088   3.638 -0.3407  0.9275 -0.1083
15558TIP3    H168089   0.244   2.005   3.668  0.2789  0.4324 -2.1043
15558TIP3    H268090   0.202   2.143   3.716  0.7798 -0.4155  0.9301
15559TIP3   OH268091   2.357   6.241  12.228 -0.2310 -0.3039  0.7625
15559TIP3    H168092   2.262   6.250  12.216 -0.5025 -0.7708  2.3603
15559TIP3    H268093   2.373   6.272  12.318  1.4523  1.8180 -0.1746
15560TIP3   OH268094   5.471   0.007  13.790 -0.0386  0.8052  0.4818
15560TIP3    H168095   5.560  -0.013  13.819  0.7646 -2.2945 -3.2679
15560TIP3    H268096   5.416  -0.055  13.838  0.3856  0.1979  0.2088
15561TIP3   OH268097   2.113   4.416   4.398  0.3999 -0.1275  0.0271
15561TIP3    H168098   2.047   4.398   4.465  0.6621  0.5940  0.4972
15561TIP3    H268099   2.194   4.429   4.447  1.2599 -2.5284 -0.6388
15562TIP3   OH268100   4.082   1.760  14.902 -0.5041 -0.7246 -0.4139
15562TIP3    H168101   4.096   1.805  14.819 -2.0522  0.6385  0.0010
15562TIP3    H268102   4.068   1.831  14.965  0.1504 -1.7411  0.9313
15563TIP3   OH268103   6.277   4.896  15.569  0.4433  0.0019  0.1480
15563TIP3    H168104   6.358   4.872  15.523 -0.0662  0.1508 -0.8358
15563TIP3    H268105   6.273   4.833  15.642  0.6383 -1.0409 -0.7094
15564TIP3   OH268106   2.958   0.160   5.856  0.0927 -0.2935 -0.0810
15564TIP3    H168107   2.917   0.192   5.936 -1.6840 -1.9661 -0.2371
15564TIP3    H268108   2.995   0.075   5.880  1.2928  0.0648 -0.5857
15565TIP3   OH268109   3.093   6.727  16.134  0.1741 -0.7981 -0.6204
15565TIP3    H168110   3.093   6.719  16.039 -0.5157  0.9305 -0.7996
15565TIP3    H268111   3.178   6.766  16.154 -1.0337  2.2954 -0.9514
15566TIP3   OH268112   5.725   2.550  14.011 -0.1397  0.1873 -0.5980
15566TIP3    H168113   5.799   2.592  13.967  0.5928 -1.3551 -0.9097
15566TIP3    H268114   5.691   2.489  13.947  0.3354 -1.4071  0.5974
15567TIP3   OH268115   4.201   4.406   4.605 -0.4865  0.3622  0.4802
15567TIP3    H168116   4.285   4.396   4.561 -0.3748  2.1140  0.2442
15567TIP3    H268117   4.189   4.500   4.614 -1.4962  0.1048  2.3371
15568TIP3   OH268118   5.073   4.761  14.041  0.7394 -0.1661  0.2913
15568TIP3    H168119   5.121   4.692  13.995  2.4536 -0.2839  2.1431
15568TIP3    H268120   5.105   4.842  14.001  0.8689 -0.3279  0.0616
15569TIP3   OH268121   4.209   3.201  16.648 -0.2029 -0.1191  0.4971
15569TIP3    H168122   4.240   3.110  16.644  0.7543  0.2316 -0.8517
15569TIP3    H268123   4.271   3.249  16.593 -1.3257  1.1712  0.3236
15570TIP3   OH268124   0.417   1.706  15.969  0.4763 -0.0365  0.3627
15570TIP3    H168125   0.449   1.768  16.034 -0.1533  2.4908 -1.5411
15570TIP3    H268126   0.488   1.698  15.906  0.2817 -0.7072  0.2208
15571TIP3   OH268127   1.846   0.784   4.881  0.0703 -0.0419 -0.1258
15571TIP3    H168128   1.931   0.767   4.922 -0.6892 -1.3429  1.0096
15571TIP3    H268129   1.798   0.701   4.890 -1.7900  1.0439  0.4769
15572TIP3   OH268130   2.931   0.850  15.449  0.5250  0.2843  0.3009
15572TIP3    H168131   2.941   0.874  15.541  1.2866 -1.3738  0.6890
15572TIP3    H268132   2.892   0.927  15.408 -0.8964  0.6648  2.2243
15573TIP3   OH268133   4.996   3.545   6.291 -0.3098 -0.0884  0.2438
15573TIP3    H168134   5.062   3.552   6.360 -1.9324 -2.4358  2.2001
15573TIP3    H268135   4.941   3.623   6.301  1.7545  1.6519 -1.1111
15574TIP3   OH268136   1.108   2.313  12.181  0.0021 -0.4306  0.2258
15574TIP3    H168137   1.074   2.336  12.267 -0.0967  0.5193 -0.0526
15574TIP3    H268138   1.034   2.273  12.135  0.3439 -1.9146  0.9276
15575TIP3   OH268139   3.520   2.053  16.862  0.1906 -0.0810  0.0938
15575TIP3    H168140   3.607   2.082  16.892 -0.4106 -0.1292  2.0048
15575TIP3    H268141   3.482   2.131  16.821  0.0074  0.8549  1.9269
15576TIP3   OH268142   1.333   0.402   3.400  0.5013  0.3645 -0.4230
15576TIP3    H168143   1.246   0.442   3.398  1.1151  1.7374 -1.2511
15576TIP3    H268144   1.343   0.362   3.314  0.5559 -0.1277 -0.1920
15577TIP3   OH268145   3.680   4.856  13.113 -0.6032  0.0197 -0.0424
15577TIP3    H168146   3.734   4.905  13.175 -1.1478  2.1297 -1.1502
15577TIP3    H268147   3.734   4.846  13.036 -0.7205 -0.6090 -0.0487
15578TIP3   OH268148   6.134   1.903  11.189  0.0655  0.1310  0.2773
15578TIP3    H168149   6.129   1.810  11.171 -0.3512 -0.4870  3.0956
15578TIP3    H268150   6.046   1.926  11.219  0.2231  1.3901 -0.1691
15579TIP3   OH268151   5.710   1.195   6.241  0.5764 -0.1178  0.5066
15579TIP3    H168152   5.678   1.260   6.304 -0.6958  0.6498 -0.8421
15579TIP3    H268153   5.765   1.246   6.181  0.9422 -0.6286  0.4056
15580TIP3   OH268154   5.498   2.594  13.657  0.2423  0.4250 -0.1960
15580TIP3    H168155   5.416   2.583  13.705  0.6057 -2.0112 -0.0499
15580TIP3    H268156   5.474   2.585  13.565 -0.2869  4.1246 -0.5926
15581TIP3   OH268157   6.377   0.686   2.004  0.2085 -0.1284 -0.0083
15581TIP3    H168158   6.350   0.776   2.024 -2.5525 -0.3798 -2.0039
15581TIP3    H268159   6.397   0.688   1.911  2.4681 -1.1540  0.3957
15582TIP3   OH268160   2.132   4.252   1.073 -0.0847 -0.2688  0.2090
15582TIP3    H168161   2.216   4.209   1.061 -0.3871 -0.8090 -0.0190
15582TIP3    H268162   2.092   4.204   1.146  0.4589  1.0030  1.3818
15583TIP3   OH268163   5.343   1.741   5.319 -0.4107 -0.1693 -0.3506
15583TIP3    H168164   5.368   1.829   5.345  0.9505 -0.8310  0.7215
15583TIP3    H268165   5.408   1.716   5.253  0.7363 -1.2170  1.1007
15584TIP3   OH268166   2.298   0.077  14.949 -0.2382 -0.2029 -0.2199
15584TIP3    H168167   2.257   0.017  14.886  1.7891 -2.3080  0.3291
15584TIP3    H268168   2.387   0.044  14.959  0.1039  1.2385  2.2923
15585TIP3   OH268169   1.802   4.245  15.440 -0.3861 -0.5534 -0.2156
15585TIP3    H168170   1.774   4.174  15.382 -0.8490 -0.7357  0.2211
15585TIP3    H268171   1.892   4.263  15.415 -0.5193 -0.7648 -0.8551
15586TIP3   OH268172   1.775   5.329  11.574  0.1384 -0.8963  0.2375
15586TIP3    H168173   1.772   5.401  11.511  0.8381 -0.1877  0.9974
15586TIP3    H268174   1.864   5.295  11.569 -0.0106 -1.3092  0.3271
15587TIP3   OH268175   6.098   1.587  15.901  0.3873  0.6311  0.4497
15587TIP3    H168176   6.167   1.590  15.968 -1.6662  1.5682  2.6290
15587TIP3    H268177   6.067   1.677  15.894 -0.4710  0.2729 -0.6735
15588TIP3   OH268178   5.408   4.843   4.073 -0.0227 -0.1036 -0.5368
15588TIP3    H168179   5.467   4.818   4.001  0.1121  2.4480 -1.4315
15588TIP3    H268180   5.321   4.818   4.042  0.1932 -0.4070 -0.9111
15589TIP3   OH268181   1.819   5.889   2.750  0.6781 -0.6609  0.3408
15589TIP3    H168182   1.737   5.922   2.785  1.7615  1.3297  1.1828
15589TIP3    H268183   1.829   5.932   2.665  0.7889 -1.0083  0.1729
15590TIP3   OH268184   1.663   0.259   2.721  0.8634  0.1148 -0.0039
15590TIP3    H168185   1.677   0.166   2.738  1.8037 -0.0589 -1.5125
15590TIP3    H268186   1.731   0.282   2.657  0.4192  1.7528  0.0695
15591TIP3   OH268187   2.233   4.139  17.297  0.2209  0.3061 -0.4993
15591TIP3    H168188   2.150   4.171  17.334  0.8233  0.6269  0.6193
15591TIP3    H268189   2.300   4.170  17.358  1.0514 -1.0370 -0.6914
15592TIP3   OH268190   5.010   2.345   6.397  0.5144 -0.1806  0.0624
15592TIP3    H168191   5.102   2.363   6.376  0.5824 -0.6233 -0.0385
15592TIP3    H268192   5.012   2.256   6.434  0.0547 -0.3936 -0.4249
15593TIP3   OH268193   5.261   2.743   2.644  0.3147 -0.0828 -0.0722
15593TIP3    H168194   5.244   2.659   2.688  1.2074 -0.4011 -0.3178
15593TIP3    H268195   5.304   2.796   2.711 -2.1158  0.9570  0.7596
15594TIP3   OH268196   2.247   4.472   5.920  0.3835 -0.3199  0.7770
15594TIP3    H168197   2.237   4.464   6.015  0.5264 -1.7463  0.6815
15594TIP3    H268198   2.157   4.467   5.886  0.2095  1.3067  0.8703
15595TIP3   OH268199   6.439   0.966   3.785 -0.2794 -0.2682  0.1281
15595TIP3    H168200   6.452   0.872   3.774 -1.2997 -0.3118 -0.8690
15595TIP3    H268201   6.393   0.974   3.869 -0.0915 -0.6443  0.2684
15596TIP3   OH268202   0.332   0.119   0.121  0.4858  0.6899 -0.1178
15596TIP3    H168203   0.255   0.113   0.064 -0.5894 -1.8170  1.4611
15596TIP3    H268204   0.401   0.077   0.071 -0.3938 -1.2954  0.2544
15597TIP3   OH268205   5.253   1.899  11.293 -0.4571  0.3753  0.2870
15597TIP3    H168206   5.171   1.947  11.291 -0.8461 -0.3019 -0.3585
15597TIP3    H268207   5.286   1.902  11.203  0.1685  0.5425  0.5138
15598TIP3   OH268208   5.229   2.023  12.642  0.3717  0.0658  0.2255
15598TIP3    H168209   5.285   2.060  12.709 -1.9343  3.3418  0.6122
15598TIP3    H268210   5.143   2.015  12.684 -0.2865 -1.5043 -1.2744
15599TIP3   OH268211   5.920   5.631  15.773  0.2719 -0.1117  0.0394
15599TIP3    H168212   5.873   5.714  15.764 -1.3137 -0.9545  0.3768
15599TIP3    H268213   5.937   5.623  15.867  0.4581 -0.1604  0.0022
15600TIP3   OH268214   0.368   6.406   0.472  0.0451  0.2089 -0.2049
15600TIP3    H168215   0.433   6.393   0.541  0.4911  1.4960 -0.3631
15600TIP3    H268216   0.390   6.491   0.434 -2.1435  1.0315  0.2068
15601TIP3   OH268217   6.219   2.269  13.668  0.0709  0.3997 -0.0007
15601TIP3    H168218   6.310   2.275  13.697  0.0835  2.3217 -0.2855
15601TIP3    H268219   6.167   2.295  13.744 -0.1521  0.7975 -0.2820
15602TIP3   OH268220   6.360   2.004   3.295  0.1325 -0.2250  0.1059
15602TIP3    H168221   6.385   1.934   3.355 -0.7823  0.2318  1.0442
15602TIP3    H268222   6.289   2.050   3.340 -0.4331  0.2617 -1.2392
15603TIP3   OH268223   6.718   0.326   0.236  0.5272 -0.6907  0.5986
15603TIP3    H168224   6.735   0.278   0.155  2.8832  0.1404  0.5126
15603TIP3    H268225   6.737   0.263   0.305  0.8237 -0.7331  0.4822
15604TIP3   OH268226   0.631   6.211   2.434  0.0906  0.5300  0.1297
15604TIP3    H168227   0.621   6.218   2.529 -1.3748  0.0908  0.0373
15604TIP3    H268228   0.570   6.143   2.409  1.7568 -0.6230 -0.9564
15605TIP3   OH268229   4.652   2.753  16.080  0.5759 -0.3484 -0.1159
15605TIP3    H168230   4.643   2.769  15.986  0.8837  0.4988 -0.0049
15605TIP3    H268231   4.565   2.723  16.108  0.9393 -2.4202 -1.0003
15606TIP3   OH268232   5.867   3.977   4.684  0.2040  0.4651  0.5334
15606TIP3    H168233   5.896   3.967   4.593  1.7283  1.8128  0.8148
15606TIP3    H268234   5.937   4.027   4.726 -0.3083 -0.4108  2.5558
15607TIP3   OH268235   6.554   3.889   0.672 -0.1680 -0.4196  0.2168
15607TIP3    H168236   6.551   3.913   0.579  2.5823  0.6246  0.2901
15607TIP3    H268237   6.464   3.895   0.702 -0.8264  1.3572 -1.8814
15608TIP3   OH268238   0.251   2.141   3.305 -0.9262  0.2316  0.1581
15608TIP3    H168239   0.166   2.127   3.347 -0.1494 -0.6597  1.5282
15608TIP3    H268240   0.306   2.071   3.339  0.3065  0.6797 -0.8540
15609TIP3   OH268241   3.947   3.135  17.232 -0.2771  0.7384  0.1406
15609TIP3    H168242   4.040   3.114  17.233 -0.2671  0.7903  1.4907
15609TIP3    H268243   3.903   3.053  17.211 -0.0712 -0.0419  2.4536
15610TIP3   OH268244   2.943   6.127  16.938 -0.1674  0.8348  0.7407
15610TIP3    H168245   2.997   6.052  16.963  2.0098  2.4909  1.2745
15610TIP3    H268246   2.993   6.171  16.870 -2.2097  0.9454 -0.7913
15611TIP3   OH268247   2.610   4.435  14.412  0.2609  0.4688  0.1141
15611TIP3    H168248   2.613   4.485  14.493  0.3918 -0.9867  1.0492
15611TIP3    H268249   2.526   4.390  14.414  0.6639 -0.3243 -0.0717
15612TIP3   OH268250   5.038   0.159   1.181  0.1383  0.6429  0.1897
15612TIP3    H168251   5.028   0.254   1.169  0.7157  0.5852 -0.8864
15612TIP3    H268252   5.062   0.127   1.094 -0.2685 -0.5254  0.5002
15613TIP3   OH268253   4.816   2.536  16.170 -0.0092 -0.1202 -0.1004
15613TIP3    H168254   4.794   2.623  16.202 -0.1597 -0.0242 -0.4676
15613TIP3    H268255   4.761   2.523  16.093  1.1539  0.1047 -1.0102
15614TIP3   OH268256   0.286   2.002  16.104  0.3855  0.3273 -0.5840
15614TIP3    H168257   0.213   1.959  16.058  0.3824 -0.5261  0.1922
15614TIP3    H268258   0.346   2.027  16.034 -0.0961 -0.0329 -1.1433
15615TIP3   OH268259   0.963   5.091   4.642 -0.1627  0.4447 -0.6556
15615TIP3    H168260   0.980   5.034   4.566  0.2274 -0.5691  0.1688
15615TIP3    H268261   0.872   5.073   4.665 -0.0030  0.0646 -0.3214
15616TIP3   OH268262   1.631   1.253   1.570 -0.1613  0.0410  0.6764
15616TIP3    H168263   1.554   1.281   1.520 -0.7759 -1.8297  0.5161
15616TIP3    H268264   1.680   1.198   1.509  1.1161  0.8900  0.9101
15617TIP3   OH268265   2.737   6.007  14.467 -0.7090 -0.6603 -0.1996
15617TIP3    H168266   2.785   6.056  14.400 -0.0842 -1.7007 -0.5496
15617TIP3    H268267   2.679   5.949  14.417 -2.5132  0.6824  0.2168
15618TIP3   OH268268   1.920   6.420  16.941  0.5048  0.1801  0.3233
15618TIP3    H168269   1.938   6.514  16.931  0.0212  0.3452  0.9284
15618TIP3    H268270   1.998   6.377  16.908  0.1078  0.7443 -1.4416
15619TIP3   OH268271   1.998   1.353  13.159 -0.0940  0.1824 -0.9082
15619TIP3    H168272   1.930   1.311  13.107  0.1283 -0.2857 -0.8328
15619TIP3    H268273   1.967   1.442  13.172 -2.3762 -0.8569  1.9775
15620TIP3   OH268274   2.626   6.291  15.749  0.0420 -0.2314  0.5358
15620TIP3    H168275   2.638   6.361  15.685  3.2211  0.5396  1.7781
15620TIP3    H268276   2.678   6.218  15.715  1.4641  0.0625  1.9416
15621TIP3   OH268277   0.335   5.038  16.763 -0.3348  0.3248  0.1973
15621TIP3    H168278   0.376   5.123  16.778  0.8450 -0.2262  0.1927
15621TIP3    H268279   0.301   5.012  16.849  0.3203  0.2892  0.4529
15622TIP3   OH268280   1.799   5.232   2.249 -0.1846 -0.4689  0.3332
15622TIP3    H168281   1.791   5.244   2.154 -2.6379 -2.4212  0.1855
15622TIP3    H268282   1.886   5.193   2.260 -0.4394 -1.6351 -1.3308
15623TIP3   OH268283   2.987   4.505   3.763  0.0307 -0.4553 -0.1582
15623TIP3    H168284   2.926   4.510   3.690 -1.5909  0.6074  1.2012
15623TIP3    H268285   2.986   4.593   3.802  0.0971 -1.2285  1.7224
15624TIP3   OH268286   6.554   2.631   1.428 -0.1732 -0.0132  0.0805
15624TIP3    H168287   6.541   2.716   1.385  2.1502  0.1465 -0.4873
15624TIP3    H268288   6.555   2.568   1.356  0.6864 -0.1495  0.1969
15625TIP3   OH268289   6.275   0.379  16.738  0.0981  0.1217 -0.2394
15625TIP3    H168290   6.263   0.398  16.831 -2.2817 -1.7854 -0.0642
15625TIP3    H268291   6.269   0.464  16.695 -0.3345  0.8659  1.2244
15626TIP3   OH268292   0.244   5.384  12.905 -0.0266 -0.2546  0.0728
15626TIP3    H168293   0.251   5.465  12.854  0.9680 -0.8276 -0.7538
15626TIP3    H268294   0.151   5.360  12.899 -0.1126  0.2108 -0.6738
15627TIP3   OH268295   6.167   5.003   1.371 -0.2583  0.2601  0.1457
15627TIP3    H168296   6.175   5.058   1.449 -1.5443 -0.4720  0.8107
15627TIP3    H268297   6.112   4.930   1.398  0.0614 -0.5098 -1.1916
15628TIP3   OH268298   3.662   1.865  11.025 -0.0118 -0.0978 -0.1053
15628TIP3    H168299   3.721   1.790  11.030 -0.3524 -0.2769  2.1467
15628TIP3    H268300   3.711   1.931  10.975  0.8303 -1.3176 -0.9281
15629TIP3   OH268301   6.603   0.014   5.785  0.1543  0.2801 -0.0166
15629TIP3    H168302   6.633  -0.050   5.720 -1.3521 -1.0752  0.5718
15629TIP3    H268303   6.511  -0.006   5.798  0.1110  1.3583  1.5870
15630TIP3   OH268304   6.597   5.935  16.449 -0.5991 -0.3706  0.0899
15630TIP3    H168305   6.531   5.919  16.517 -1.3425  1.6597 -0.0813
15630TIP3    H268306   6.680   5.917  16.492 -1.1120 -0.0462  1.2767
15631TIP3   OH268307   6.599   4.717   2.535 -0.5390 -0.2186  0.6810
15631TIP3    H168308   6.566   4.676   2.614 -2.1644  0.4006  0.3514
15631TIP3    H268309   6.528   4.709   2.471 -0.3994  1.8438  0.1912
15632TIP3   OH268310   5.133   2.668   1.151  0.5976 -0.0566 -0.7739
15632TIP3    H168311   5.149   2.585   1.108  1.2482  0.1384 -0.9271
15632TIP3    H268312   5.094   2.724   1.084 -0.2216 -0.3550 -0.5593
15633TIP3   OH268313   5.823   5.113   2.595  0.0861  0.4158  0.6461
15633TIP3    H168314   5.902   5.104   2.542 -0.7345 -0.3299 -0.4832
15633TIP3    H268315   5.798   5.205   2.586  0.0375  0.3303 -0.1556
15634TIP3   OH268316   3.929   3.682  16.199  0.4128  0.7381  0.4875
15634TIP3    H168317   3.995   3.630  16.243 -0.0071  1.6332  2.2872
15634TIP3    H268318   3.954   3.773  16.217  1.0235  1.2325 -2.3959
15635TIP3   OH268319   4.930   4.021  15.860 -0.3924 -0.0173  0.0959
15635TIP3    H168320   4.995   4.002  15.792 -1.8199  2.5536 -2.2300
15635TIP3    H268321   4.851   3.974  15.832 -0.5072 -0.4028  1.0279
15636TIP3   OH268322   2.108   0.832  10.605  0.2202  0.0094 -0.0834
15636TIP3    H168323   2.065   0.749  10.627 -0.6465  0.1631 -1.0994
15636TIP3    H268324   2.135   0.868  10.689 -0.8553 -0.5266  0.5158
15637TIP3   OH268325   6.720   5.448  11.129 -0.1231  0.2282  0.0107
15637TIP3    H168326   6.757   5.533  11.154  2.5182  0.0317 -2.6307
15637TIP3    H268327   6.774   5.419  11.056 -1.3053 -3.4983  0.3931
15638TIP3   OH268328   4.555   0.790   2.741  0.5635 -0.8888  0.4201
15638TIP3    H168329   4.546   0.695   2.738  0.6688 -0.8692 -1.8303
15638TIP3    H268330   4.525   0.814   2.829 -3.8904 -2.5802 -0.3861
15639TIP3   OH268331   5.769   4.655   0.894  0.9598 -0.4174  0.5566
15639TIP3    H168332   5.795   4.593   0.826  0.9823 -3.3769  3.0726
15639TIP3    H268333   5.678   4.632   0.913  1.2135 -0.2657  2.0905
15640TIP3   OH268334   0.826   3.477  15.719 -0.0504 -0.3224 -0.2716
15640TIP3    H168335   0.876   3.509  15.794 -1.4487 -1.3568  1.1644
15640TIP3    H268336   0.892   3.456  15.653  1.1792  1.1427  0.4269
15641TIP3   OH268337   4.078   1.594  12.830 -0.4220  0.2769  0.4576
15641TIP3    H168338   4.141   1.662  12.805 -1.6912  1.7905  1.1627
15641TIP3    H268339   3.992   1.634  12.813 -1.2276 -0.6661  2.0531
15642TIP3   OH268340   5.512   4.138   4.185  0.2349 -0.4192 -0.9875
15642TIP3    H168341   5.544   4.176   4.103  0.2619 -1.7746 -1.6355
15642TIP3    H268342   5.418   4.159   4.186 -0.0716 -1.5894 -2.0977
15643TIP3   OH268343   1.006   2.713   0.963 -0.0481 -0.0294 -0.0853
15643TIP3    H168344   0.957   2.685   1.040 -2.3431  1.1739 -0.9907
15643TIP3    H268345   1.091   2.739   0.997 -0.9558  0.4028  2.0630
15644TIP3   OH268346   3.443   5.488  12.570 -0.0578  0.0419  0.4959
15644TIP3    H168347   3.349   5.488  12.557 -0.0893 -0.6738  0.7069
15644TIP3    H268348   3.468   5.581  12.565 -0.2903  0.0344 -2.8922
15645TIP3   OH268349   0.789   0.005   5.222 -0.1342  0.4173 -0.0845
15645TIP3    H168350   0.708  -0.023   5.180 -0.8544  1.1714  0.7508
15645TIP3    H268351   0.766   0.084   5.270  1.2308  0.9554 -0.2582
15646TIP3   OH268352   1.673   4.921   4.758  0.3477  0.0843  0.0224
15646TIP3    H168353   1.723   4.944   4.836  0.0195 -2.1044  0.9681
15646TIP3    H268354   1.686   4.826   4.748 -1.3244 -0.0642 -1.3299
15647TIP3   OH268355   1.171   4.928  15.718  0.1456 -0.2122 -0.5631
15647TIP3    H168356   1.183   5.020  15.742 -2.0851 -0.5229  2.2969
15647TIP3    H268357   1.135   4.931  15.629  1.0672  1.5779 -0.9219
15648TIP3   OH268358   2.670   6.160   4.588  0.0082  0.2175  0.0905
15648TIP3    H168359   2.620   6.089   4.549  0.6657  0.7985 -1.9336
15648TIP3    H268360   2.699   6.126   4.673 -1.5617 -1.0756  0.1436
15649TIP3   OH268361   4.899   3.575   2.514 -0.4349  0.3170 -0.3262
15649TIP3    H168362   4.840   3.551   2.585  0.3471  1.8499  0.9182
15649TIP3    H268363   4.854   3.547   2.434 -1.2016 -1.7244  0.7553
15650TIP3   OH268364   1.058   1.907   0.469  0.4982 -0.0421  0.3197
15650TIP3    H168365   0.974   1.953   0.473 -1.1845 -2.6148 -1.5077
15650TIP3    H268366   1.111   1.957   0.408  0.5740  1.9290  1.9146
15651TIP3   OH268367   3.843   6.732   1.441  0.2171  0.4316 -0.3544
15651TIP3    H168368   3.825   6.729   1.347 -0.8134  0.3112 -0.1718
15651TIP3    H268369   3.779   6.671   1.479  0.8883  0.1727  0.3876
15652TIP3   OH268370   4.869   1.594  16.426 -0.5407  0.0994 -0.0227
15652TIP3    H168371   4.957   1.632  16.429 -0.8981  1.0085 -0.6613
15652TIP3    H268372   4.810   1.669  16.423 -1.3658 -0.4940  0.6599
15653TIP3   OH268373   1.121   2.865  15.275  0.3474 -0.1728 -0.2429
15653TIP3    H168374   1.156   2.944  15.318 -1.2010 -0.3717  1.5257
15653TIP3    H268375   1.124   2.798  15.343 -0.8374 -0.9060 -0.8796
15654TIP3   OH268376   3.063   1.967   3.430 -0.6242 -0.0502  0.5924
15654TIP3    H168377   2.988   1.928   3.474 -0.6726  0.0540  0.6017
15654TIP3    H268378   3.057   1.935   3.340 -0.1031 -0.8776  0.8383
15655TIP3   OH268379   2.368   5.655   5.003  0.2975 -0.1067 -0.3355
15655TIP3    H168380   2.403   5.620   5.085  1.5804 -0.4975 -1.0146
15655TIP3    H268381   2.374   5.582   4.942  0.3028  0.4734 -1.0350
15656TIP3   OH268382   1.266   1.954  11.873 -0.4823  0.1132 -0.4524
15656TIP3    H168383   1.272   1.937  11.967 -1.5257  0.0566 -0.3891
15656TIP3    H268384   1.336   1.901  11.834  0.9859  1.3433  0.4283
15657TIP3   OH268385   4.262   5.733  13.161  0.2930 -0.1946  0.1836
15657TIP3    H168386   4.195   5.683  13.115  0.0138  0.8625 -0.5835
15657TIP3    H268387   4.291   5.674  13.231 -1.2657 -0.7676  0.4030
15658TIP3   OH268388   5.326   3.860   0.149  0.3994  0.5035 -0.2082
15658TIP3    H168389   5.381   3.834   0.223  0.8390  1.4733 -0.1807
15658TIP3    H268390   5.378   3.925   0.102 -1.2753  2.5554  0.6230
15659TIP3   OH268391   4.723   4.804  12.080  0.3147 -0.3371  0.8158
15659TIP3    H168392   4.767   4.737  12.027  0.7271  0.1658  0.5121
15659TIP3    H268393   4.631   4.799  12.054  0.6005  0.2898 -0.3860
15660TIP3   OH268394   1.992   4.408  11.637  0.0445 -0.2149 -0.0013
15660TIP3    H168395   1.924   4.394  11.571  1.6234 -2.1812 -1.3177
15660TIP3    H268396   2.022   4.498  11.621 -1.8089  0.5147  0.2850
15661TIP3   OH268397   2.274   0.761  11.885  0.5500 -0.0603  0.2719
15661TIP3    H168398   2.246   0.670  11.889 -1.2398  0.4371 -0.1010
15661TIP3    H268399   2.291   0.785  11.977  1.4620 -0.8679  0.3270
15662TIP3   OH268400   0.380   3.123   4.139  0.3224 -0.0192  0.5970
15662TIP3    H168401   0.388   3.086   4.051  0.7310  1.8059 -0.1811
15662TIP3    H268402   0.459   3.095   4.184  1.4212  1.1751 -0.5027
15663TIP3   OH268403   3.532   2.915  14.245  0.1178  0.0881 -0.2942
15663TIP3    H168404   3.533   2.823  14.272  1.3778  0.7982  2.5391
15663TIP3    H268405   3.621   2.932  14.213  0.7090  0.8301  1.5757
15664TIP3   OH268406   5.981   6.531  13.487 -0.2742 -0.2656 -0.5338
15664TIP3    H168407   6.031   6.481  13.423 -1.2752 -2.8228  0.5316
15664TIP3    H268408   6.015   6.503  13.572  0.2373  2.1793  0.1554
15665TIP3   OH268409   2.536   3.619   4.835 -0.3255 -0.2557 -0.1642
15665TIP3    H168410   2.624   3.599   4.803 -0.4568 -0.6026 -0.3129
15665TIP3    H268411   2.487   3.642   4.757 -0.3152  0.1396 -0.0562
15666TIP3   OH268412   4.486   0.031  16.001 -0.3133  0.0311  0.2543
15666TIP3    H168413   4.487   0.095  16.071  0.5340  0.8494 -0.4835
15666TIP3    H268414   4.409   0.054  15.948  0.0981  0.5630 -0.1156
15667TIP3   OH268415   3.255   3.244   2.611  0.2012  0.2588 -0.3286
15667TIP3    H168416   3.223   3.307   2.546  0.8308 -0.3826 -1.2819
15667TIP3    H268417   3.289   3.298   2.682 -0.4122  0.9731 -0.5658
15668TIP3   OH268418   5.532   5.755   3.008 -0.1134 -0.2324 -0.3125
15668TIP3    H168419   5.571   5.689   3.066 -0.4346  1.1148  1.5234
15668TIP3    H268420   5.568   5.838   3.039 -3.0068  0.8936  0.2577
15669TIP3   OH268421   6.114   2.711  14.960  0.1932 -0.1936  0.0327
15669TIP3    H168422   6.072   2.710  15.046  0.0102  0.2275 -0.0480
15669TIP3    H268423   6.164   2.793  14.959  1.2049 -0.7850  0.2112
15670TIP3   OH268424   5.191   0.838   2.271  0.3415 -0.1340  0.0421
15670TIP3    H168425   5.210   0.913   2.215  0.4392  0.0323  0.2994
15670TIP3    H268426   5.095   0.832   2.272  0.2950  0.5837  0.8060
15671TIP3   OH268427   4.404   1.450  15.277 -0.1577 -0.0392  0.6244
15671TIP3    H168428   4.414   1.418  15.188 -2.3110  0.2715  0.2270
15671TIP3    H268429   4.337   1.518  15.272 -1.2391 -0.8535  2.6463
15672TIP3   OH268430   6.742   2.791   1.174 -0.2688 -0.8250 -0.3922
15672TIP3    H168431   6.817   2.743   1.209 -0.4879 -1.2562 -0.5146
15672TIP3    H268432   6.781   2.868   1.132  0.2986 -2.0688 -2.2556
15673TIP3   OH268433   3.545   1.963   3.051 -0.2754 -0.2214 -0.2279
15673TIP3    H168434   3.495   1.979   3.131  0.0449  0.9346 -0.2336
15673TIP3    H268435   3.625   2.015   3.063 -0.2759  0.0557 -1.3363
15674TIP3   OH268436   0.532   0.773  17.220  0.2593  0.3469 -0.0061
15674TIP3    H168437   0.532   0.810  17.131  0.6277  0.4520  0.0362
15674TIP3    H268438   0.552   0.680  17.207  1.6255  0.6068  0.0577
15675TIP3   OH268439   5.276   3.235   0.132 -0.5031  0.0272 -0.4912
15675TIP3    H168440   5.313   3.322   0.150  0.0075 -0.5568  1.4988
15675TIP3    H268441   5.338   3.196   0.070  0.1070  0.5163 -0.2025
15676TIP3   OH268442   6.620   3.770   2.385 -0.0659  0.5932 -0.4943
15676TIP3    H168443   6.569   3.848   2.363 -0.0289  0.5463 -0.7483
15676TIP3    H268444   6.643   3.781   2.477  0.2186  1.0434 -0.6166
15677TIP3   OH268445   2.954   5.936   2.926  0.4416  0.5250  0.3295
15677TIP3    H168446   2.863   5.904   2.933  1.2023 -1.6600  1.1087
15677TIP3    H268447   2.973   5.969   3.014  1.8271 -3.4785  1.7769
15678TIP3   OH268448   5.918   5.456  10.601 -0.1326  0.2857  0.5068
15678TIP3    H168449   5.880   5.376  10.638 -1.0849 -0.0268 -1.0424
15678TIP3    H268450   6.001   5.428  10.564 -0.6462 -0.1007 -0.3875
15679TIP3   OH268451   3.088   2.590  10.598  0.3139  0.3994 -0.3739
15679TIP3    H168452   3.040   2.509  10.614  0.4542  0.3066 -0.4197
15679TIP3    H268453   3.021   2.658  10.599  0.2347  0.3156 -0.0654
15680TIP3   OH268454   0.677   3.117   2.589 -0.4460 -0.1192 -0.0043
15680TIP3    H168455   0.698   3.046   2.649 -0.0497  0.0270  0.0354
15680TIP3    H268456   0.723   3.095   2.508 -0.5065 -0.0231 -0.0650
15681TIP3   OH268457   6.249   6.093  13.187 -0.2488  0.0998  0.0745
15681TIP3    H168458   6.249   6.107  13.282 -0.7062 -0.0823  0.1016
15681TIP3    H268459   6.246   6.182  13.150  1.4586  0.2570  0.2049
15682TIP3   OH268460   3.589   3.812  16.527  0.2091  0.7296  0.2890
15682TIP3    H168461   3.618   3.734  16.479  1.5897  0.0653  2.0582
15682TIP3    H268462   3.590   3.785  16.619 -0.2797  2.5507  0.8686
15683TIP3   OH268463   1.567   5.698   2.578 -0.5430 -0.3472  0.2028
15683TIP3    H168464   1.604   5.766   2.522 -0.4514 -1.6900 -1.4437
15683TIP3    H268465   1.558   5.621   2.521 -0.6710 -1.7277  1.9759
15684TIP3   OH268466   1.558   2.196   1.162  0.3417  0.1963 -0.3393
15684TIP3    H168467   1.644   2.180   1.122 -0.5687 -1.8321 -1.6242
15684TIP3    H268468   1.497   2.197   1.088 -0.9725 -0.2052  0.7021
15685TIP3   OH268469   1.269   1.856   5.433  0.3075  0.1632 -0.1278
15685TIP3    H168470   1.229   1.798   5.369 -0.4328 -0.2540  0.6889
15685TIP3    H268471   1.231   1.942   5.415  1.7290  0.5450 -1.6211
15686TIP3   OH268472   0.757   3.085  16.993  0.2020  0.0848 -0.3479
15686TIP3    H168473   0.705   3.065  17.070  2.3357 -1.1681  0.8534
15686TIP3    H268474   0.831   3.135  17.026  0.5444  0.5631 -1.7775
15687TIP3   OH268475   0.740   2.156   5.274 -0.9014 -0.2056 -0.4577
15687TIP3    H168476   0.760   2.178   5.183  1.6162 -1.6426 -0.3496
15687TIP3    H268477   0.787   2.075   5.290 -0.0501  0.7473  2.5326
15688TIP3   OH268478   1.099   5.907  11.421  0.2399  0.0756  0.4980
15688TIP3    H168479   1.179   5.940  11.381  0.1775 -0.2706  0.0737
15688TIP3    H268480   1.129   5.845  11.487  0.3610  1.0779  1.4035
15689TIP3   OH268481   2.669   0.817   2.134 -0.2862  0.0616  0.1602
15689TIP3    H168482   2.618   0.887   2.175  0.9135  2.2778 -1.8508
15689TIP3    H268483   2.757   0.826   2.172  0.1336  0.3740 -0.8363
15690TIP3   OH268484   1.675   4.916   3.485  0.5085 -0.2305 -0.4609
15690TIP3    H168485   1.679   4.963   3.402 -2.0205  0.8323 -0.0884
15690TIP3    H268486   1.625   4.837   3.465  0.4636 -0.2980 -0.0896
15691TIP3   OH268487   3.238   1.490  11.161  0.1930 -0.0356 -0.0680
15691TIP3    H168488   3.188   1.535  11.093  0.8343  0.6190 -0.1112
15691TIP3    H268489   3.318   1.461  11.118  0.1532 -0.5101  0.1647
15692TIP3   OH268490   6.475   1.289  12.512 -0.0074  0.0627  0.3544
15692TIP3    H168491   6.448   1.267  12.423  1.6511 -1.9039  0.2604
15692TIP3    H268492   6.473   1.205  12.559 -0.5991  1.0179  2.1189
15693TIP3   OH268493   4.382   2.552  16.348 -0.1747  1.4145 -0.4167
15693TIP3    H168494   4.368   2.578  16.257  0.8387  0.7377 -0.7801
15693TIP3    H268495   4.476   2.565  16.362  0.2895 -1.3872 -0.4337
15694TIP3   OH268496   4.309   0.888  11.930 -0.3936  0.4637 -0.1437
15694TIP3    H168497   4.319   0.873  12.023 -0.0241 -0.9604 -0.3952
15694TIP3    H268498   4.368   0.961  11.910  0.5337 -0.0977  0.5013
15695TIP3   OH268499   5.023   0.546  15.991  0.0326  0.2019 -0.3549
15695TIP3    H168500   5.023   0.637  16.022  0.1622  0.2580 -0.5223
15695TIP3    H268501   5.108   0.512  16.017  0.3614  0.4120 -1.1370
15696TIP3   OH268502   0.157   2.095   2.854 -0.3990  0.2550 -0.0061
15696TIP3    H168503   0.233   2.152   2.860 -0.3043  0.0095  1.7491
15696TIP3    H268504   0.087   2.151   2.820  0.0135  1.0694  0.4671
15697TIP3   OH268505   2.158   2.249   5.817  0.2322 -0.3837 -0.6332
15697TIP3    H168506   2.072   2.212   5.799 -0.5263 -0.5787  2.7008
15697TIP3    H268507   2.165   2.250   5.913  3.6638  0.3050 -0.7309
15698TIP3   OH268508   6.266   1.925  13.644  0.4159 -0.0289  0.3712
15698TIP3    H168509   6.214   1.851  13.675 -0.4149  0.7535  0.9292
15698TIP3    H268510   6.211   1.966  13.577 -0.4057  1.6796  2.0017
15699TIP3   OH268511   2.319   0.662   3.165  0.0961 -0.8157 -0.9934
15699TIP3    H168512   2.351   0.714   3.091 -0.1733  0.0594 -0.5008
15699TIP3    H268513   2.225   0.652   3.149 -0.0720 -0.1084 -0.4597
15700TIP3   OH268514   1.019   4.194  14.406  0.1835  0.0965 -0.0722
15700TIP3    H168515   1.045   4.221  14.494 -1.3203  0.5820  0.2541
15700TIP3    H268516   1.050   4.104  14.398  0.6568  0.1697  0.8082
15701TIP3   OH268517   0.308   4.844   0.659  0.2004 -0.0000 -0.1262
15701TIP3    H168518   0.232   4.787   0.650 -0.6500  1.2757 -1.6170
15701TIP3    H268519   0.354   4.836   0.575  1.3735 -0.2653  0.5251
15702TIP3   OH268520   6.238   6.533  12.834  0.1950  0.8141  0.3014
15702TIP3    H168521   6.229   6.510  12.926  2.4737 -0.2585  0.3389
15702TIP3    H268522   6.268   6.624  12.834 -0.2560  0.9653  0.5807
15703TIP3   OH268523   0.617   1.729  14.871  0.8119 -0.0359 -0.7933
15703TIP3    H168524   0.535   1.745  14.824  1.2357 -0.4200 -1.6810
15703TIP3    H268525   0.605   1.645  14.915  0.7840 -0.1670 -1.0522
15704TIP3   OH268526   0.723   1.892  15.316  0.2482  0.7316 -0.0019
15704TIP3    H168527   0.696   1.833  15.386 -0.0257  1.2595  0.3468
15704TIP3    H268528   0.801   1.851  15.278 -0.9583 -0.7785 -0.9591
15705TIP3   OH268529   6.769   5.295   0.362 -0.2167 -0.3608  0.1700
15705TIP3    H168530   6.786   5.373   0.416 -2.8942 -0.6872  1.6463
15705TIP3    H268531   6.852   5.280   0.316  0.8414  2.4943  0.9096
15706TIP3   OH268532   5.973   3.494   1.350  0.1365  0.1162 -0.1817
15706TIP3    H168533   6.029   3.437   1.403 -0.2676 -0.3203 -0.2181
15706TIP3    H268534   6.026   3.572   1.335  0.1178  0.4335  1.2205
15707TIP3   OH268535   6.394   6.100  11.292 -0.2605  0.0695  0.1926
15707TIP3    H168536   6.456   6.147  11.236  0.1562  0.0807  0.6477
15707TIP3    H268537   6.374   6.020  11.244  0.0431  0.1082 -0.0037
15708TIP3   OH268538   6.033   2.799  14.638  0.2699  0.3335  0.1031
15708TIP3    H168539   5.945   2.819  14.606  0.1657 -1.2978 -0.7534
15708TIP3    H268540   6.072   2.884  14.657 -0.7986  1.1900 -1.3666
15709TIP3   OH268541   0.084   6.447   0.577 -0.5154 -0.1816 -0.3746
15709TIP3    H168542   0.033   6.385   0.629 -1.2029 -0.8012 -1.7449
15709TIP3    H268543   0.152   6.393   0.536  1.0388  0.5606  1.0812
15710TIP3   OH268544   2.461   2.102   3.928 -0.2160 -0.0246 -0.0409
15710TIP3    H168545   2.446   2.061   3.842  0.8779 -0.1816 -0.1729
15710TIP3    H268546   2.373   2.120   3.962 -0.6613  0.2141 -1.2762
15711TIP3   OH268547   2.586   4.433   0.956 -0.3324  0.0985 -0.1543
15711TIP3    H168548   2.674   4.457   0.982  1.2518 -2.7810 -2.3197
15711TIP3    H268549   2.561   4.362   1.016 -1.0716  0.6653  0.2292
15712TIP3   OH268550   3.615   6.036  12.746  0.6515  0.0422  0.0616
15712TIP3    H168551   3.630   6.126  12.719  2.1184 -0.1977 -0.0160
15712TIP3    H268552   3.640   5.983  12.671  1.4589 -0.4892  0.6813
15713TIP3   OH268553   0.120   6.550   2.066 -0.0861 -0.3185 -0.3939
15713TIP3    H168554   0.157   6.595   2.141 -0.0035 -1.3530  0.2015
15713TIP3    H268555   0.190   6.495   2.033 -0.4672 -0.7353 -0.5242
15714TIP3   OH268556   4.597   6.407  13.685  0.0817  0.5706  0.1516
15714TIP3    H168557   4.529   6.356  13.642  0.7330 -1.0893  0.9978
15714TIP3    H268558   4.649   6.342  13.733  0.1130  2.1576  2.4433
15715TIP3   OH268559   4.074   6.123  15.837 -0.3571  0.4131 -0.5770
15715TIP3    H168560   4.032   6.170  15.765  0.7035 -0.5769 -1.8888
15715TIP3    H268561   4.168   6.135  15.822 -0.1180  0.8631  1.1198
15716TIP3   OH268562   2.386   0.943   5.574  0.5400  0.4217 -0.4333
15716TIP3    H168563   2.367   0.864   5.624  2.4479 -0.6263 -1.2312
15716TIP3    H268564   2.346   0.928   5.488  0.8684  0.3046 -0.5714
15717TIP3   OH268565   2.174   0.973  10.816 -0.0126 -0.4639 -0.1794
15717TIP3    H168566   2.249   0.998  10.869 -0.6204  0.4040  0.3037
15717TIP3    H268567   2.098   0.997  10.869 -0.6394 -0.1830 -1.1734
15718TIP3   OH268568   0.980   6.380  14.739  0.0951 -0.2464  0.0282
15718TIP3    H168569   0.902   6.427  14.768  0.7013  2.1108 -1.7976
15718TIP3    H268570   1.039   6.382  14.815 -1.6059 -2.2393  1.4910
15719TIP3   OH268571   3.560   5.631  16.683 -0.0446 -0.2789 -0.6221
15719TIP3    H168572   3.625   5.565  16.659 -0.8314 -1.0527 -0.6526
15719TIP3    H268573   3.591   5.666  16.767  0.6740 -0.2766 -0.8825
15720TIP3   OH268574   2.460   3.238  13.016 -0.2562  0.0629 -0.1826
15720TIP3    H168575   2.451   3.304  13.085  0.3013  1.3232 -1.2747
15720TIP3    H268576   2.453   3.288  12.934  0.7805 -1.1412 -1.0396
15721TIP3   OH268577   4.436   6.458  11.794 -0.2283  0.4573  0.4206
15721TIP3    H168578   4.506   6.463  11.859  1.5790 -1.0204 -1.2770
15721TIP3    H268579   4.482   6.446  11.710 -2.5019 -0.3849 -0.7923
15722TIP3   OH268580   5.349   2.781  14.945  0.0305  0.1031 -0.2074
15722TIP3    H168581   5.374   2.732  14.867  0.7798  0.6564 -0.3292
15722TIP3    H268582   5.389   2.733  15.017  1.1209  0.7479 -0.3632
15723TIP3   OH268583   4.024   1.737  12.429 -0.0143 -0.2613  0.3205
15723TIP3    H168584   3.985   1.797  12.366 -3.7715 -1.5295  1.1659
15723TIP3    H268585   4.074   1.793  12.488 -1.1580  1.6725 -0.4439
15724TIP3   OH268586   2.657   1.297   2.632  0.2389 -0.0773  0.1632
15724TIP3    H168587   2.580   1.242   2.649  1.0541 -0.6870  2.1087
15724TIP3    H268588   2.725   1.235   2.606  0.4695  0.3096 -0.1597
15725TIP3   OH268589   3.612   2.885   1.279  0.5205  0.6122 -0.2957
15725TIP3    H168590   3.597   2.795   1.252  1.2297  0.3493  0.1665
15725TIP3    H268591   3.632   2.932   1.198 -1.1122  0.6346 -0.7140
15726TIP3   OH268592   5.579   5.374  15.696  0.0647 -0.3778  0.3327
15726TIP3    H168593   5.530   5.449  15.661  0.4711 -0.3755 -0.2587
15726TIP3    H268594   5.643   5.353  15.627  0.2454 -0.9933  0.6780
15727TIP3   OH268595   0.407   2.902  12.597 -0.2616  0.2964  0.3811
15727TIP3    H168596   0.346   2.906  12.524  0.3163  2.1141 -0.0326
15727TIP3    H268597   0.360   2.940  12.671 -0.9596 -1.8186  1.1175
15728TIP3   OH268598   0.536   1.300  11.834 -0.2919 -0.8568 -0.4364
15728TIP3    H168599   0.482   1.308  11.913  1.0623 -0.0600  0.4406
15728TIP3    H268600   0.474   1.274  11.766 -2.1643  1.6307  0.1427
15729TIP3   OH268601   6.560   4.070   4.429  0.2339 -0.2481 -0.2255
15729TIP3    H168602   6.512   4.020   4.362  0.1834  1.3281 -1.4312
15729TIP3    H268603   6.618   4.126   4.378  0.6563  0.5446  1.1077
15730TIP3   OH268604   4.500   1.193  12.474 -0.0621 -0.1484  0.2725
15730TIP3    H168605   4.559   1.262  12.443  0.2778  0.0096  1.2577
15730TIP3    H268606   4.421   1.240  12.501  0.2715 -0.0980  1.2014
15731TIP3   OH268607   5.737   0.644   0.963  0.1983  0.8155  0.3511
15731TIP3    H168608   5.760   0.552   0.953  2.0474  1.3682 -1.2724
15731TIP3    H268609   5.676   0.662   0.892  0.8636  1.1165 -0.1570
15732TIP3   OH268610   0.296   6.219   3.945 -0.8141  0.0896 -0.3754
15732TIP3    H168611   0.275   6.180   3.860 -1.7846 -2.2681  0.8436
15732TIP3    H268612   0.391   6.218   3.949 -0.7808 -0.7665 -1.0391
15733TIP3   OH268613   2.388   1.870  16.291 -0.4178 -0.5873 -0.3106
15733TIP3    H168614   2.317   1.925  16.258  0.7542  1.0360 -0.2818
15733TIP3    H268615   2.391   1.887  16.385  1.3028  1.0406 -0.5980
15734TIP3   OH268616   3.911   2.521   1.965 -0.1817  0.4039 -0.0149
15734TIP3    H168617   3.918   2.605   2.012  2.0392 -1.1465  2.7410
15734TIP3    H268618   3.988   2.519   1.908  1.6823 -0.9941  2.3708
15735TIP3   OH268619   3.628   4.302   3.270  0.2592  0.2878  0.6974
15735TIP3    H168620   3.589   4.384   3.241  0.7668  0.6456  1.0148
15735TIP3    H268621   3.602   4.238   3.203 -1.9699  0.2127  1.5680
15736TIP3   OH268622   0.877   3.920  16.789  0.3450 -0.5908 -0.5110
15736TIP3    H168623   0.870   3.856  16.719  0.2210 -2.3524  1.0299
15736TIP3    H268624   0.790   3.926  16.827  0.4337  0.2406 -0.4041
15737TIP3   OH268625   6.062   4.951   1.809  0.2040 -0.0643 -0.5367
15737TIP3    H168626   5.993   4.993   1.861 -0.7224  0.5312 -2.1636
15737TIP3    H268627   6.027   4.950   1.720  1.0362 -2.5548 -0.9015
15738TIP3   OH268628   5.550   4.963  12.604 -0.5206  0.1730 -0.5015
15738TIP3    H168629   5.522   4.878  12.568  0.2553 -0.5637  0.5743
15738TIP3    H268630   5.559   5.019  12.527 -0.2140 -0.9623 -1.3310
15739TIP3   OH268631   0.793   4.893  16.931 -0.0002  0.0818 -0.7438
15739TIP3    H168632   0.882   4.912  16.902 -0.2697  1.2810 -0.8120
15739TIP3    H268633   0.764   4.821  16.874  0.7071  0.0741 -1.1016
15740TIP3   OH268634   3.256   4.815  12.501  0.5061 -0.0009  0.6147
15740TIP3    H168635   3.350   4.803  12.488  0.6588 -1.1792  2.4270
15740TIP3    H268636   3.239   4.779  12.588 -1.5636  0.5729  0.5020
15741TIP3   OH268637   5.173   1.721   3.848 -0.3445 -0.2207  0.2822
15741TIP3    H168638   5.259   1.733   3.888 -0.1825  0.8716 -0.3246
15741TIP3    H268639   5.165   1.627   3.834  0.9101 -0.3016  0.0226
15742TIP3   OH268640   1.582   2.375  17.181 -0.5743  0.0502  0.2643
15742TIP3    H168641   1.497   2.406  17.210 -0.7617 -0.5484  0.3655
15742TIP3    H268642   1.585   2.283  17.209 -0.5989 -0.4394 -1.2612
15743TIP3   OH268643   0.832   0.061   1.789 -0.1662 -0.3194  0.5128
15743TIP3    H168644   0.875   0.017   1.716 -0.3689 -0.5002  0.5011
15743TIP3    H268645   0.836   0.154   1.768 -0.0169 -0.3558  0.3838
15744TIP3   OH268646   5.477   4.306   2.239  0.4183 -0.2287 -0.0370
15744TIP3    H168647   5.501   4.224   2.282  0.2612 -1.2401 -1.7878
15744TIP3    H268648   5.545   4.318   2.172 -0.6112  0.0622 -1.0466
15745TIP3   OH268649   6.150   3.483   2.287 -0.1543 -0.0320 -0.2511
15745TIP3    H168650   6.068   3.438   2.267 -0.3236 -0.0583  0.4799
15745TIP3    H268651   6.141   3.570   2.247 -0.4725 -0.0884 -0.3026
15746TIP3   OH268652   5.796   1.135  12.673  0.4343  0.3033 -0.7169
15746TIP3    H168653   5.883   1.112  12.640  0.1419 -1.3986 -0.4099
15746TIP3    H268654   5.806   1.135  12.768 -0.0155 -0.4911 -0.6584
15747TIP3   OH268655   5.393   5.689  14.679 -0.3061 -0.6271  0.4644
15747TIP3    H168656   5.485   5.693  14.655 -0.2606 -2.4816  0.2185
15747TIP3    H268657   5.345   5.713  14.600 -0.0489 -0.2673  0.4194
15748TIP3   OH268658   2.696   2.120   0.600 -0.6211  0.5925 -0.1459
15748TIP3    H168659   2.609   2.098   0.633 -0.6324 -0.0859 -0.6088
15748TIP3    H268660   2.742   2.157   0.676 -0.8002 -0.4941  0.5190
15749TIP3   OH268661   0.590   6.079  11.349  0.1154 -0.0333 -0.0836
15749TIP3    H168662   0.514   6.134  11.330 -0.8483 -1.4218 -0.3802
15749TIP3    H268663   0.594   6.017  11.277  1.2707 -0.2842  0.1681
15750TIP3   OH268664   0.759   0.868   2.622 -0.1492 -0.2700 -0.1434
15750TIP3    H168665   0.764   0.932   2.552 -1.2201 -1.4205 -1.3230
15750TIP3    H268666   0.826   0.803   2.600 -0.7617 -0.8443 -0.3408
15751TIP3   OH268667   1.803   1.212  15.238  0.1374 -0.0729 -0.7091
15751TIP3    H168668   1.866   1.235  15.307 -1.0070 -1.7867  1.0102
15751TIP3    H268669   1.857   1.180  15.166  1.3733  1.8242 -0.7054
15752TIP3   OH268670   5.193   5.319  11.277  0.6548  0.0435 -0.2467
15752TIP3    H168671   5.160   5.243  11.325 -0.6988 -0.5996 -2.0890
15752TIP3    H268672   5.278   5.291  11.244  1.2053  0.1888  0.9964
15753TIP3   OH268673   6.254   5.882  13.020 -0.0169  0.4960 -0.2096
15753TIP3    H168674   6.281   5.963  13.063  0.2262 -0.2828  1.1410
15753TIP3    H268675   6.235   5.908  12.930  1.3479  1.8088 -0.1514
15754TIP3   OH268676   2.151   4.140   5.970  0.0690 -0.1803 -0.4263
15754TIP3    H168677   2.149   4.208   6.038  2.6169  1.9305 -2.2500
15754TIP3    H268678   2.230   4.090   5.989  0.4945  0.0697 -1.4802
15755TIP3   OH268679   3.078   5.905  16.330  0.1505 -0.2354 -1.2290
15755TIP3    H168680   3.101   5.988  16.373  1.4437 -0.5838 -1.1997
15755TIP3    H268681   3.033   5.855  16.397  0.7519 -0.1558 -0.7493
15756TIP3   OH268682   1.603   5.266   6.627  0.1240 -0.1582 -0.1581
15756TIP3    H168683   1.617   5.297   6.538 -0.5855  1.9436  0.3892
15756TIP3    H268684   1.536   5.324   6.662  1.0811 -0.2892  2.0579
15757TIP3   OH268685   3.504   5.851   5.858  1.0758  0.0364  0.5207
15757TIP3    H168686   3.425   5.798   5.851  1.9508 -1.2969  0.4665
15757TIP3    H268687   3.529   5.869   5.768  0.0189  1.7691  0.5291
15758TIP3   OH268688   0.030   6.533  17.186 -0.3022  0.2520  0.0862
15758TIP3    H168689   0.043   6.558  17.095  1.1226 -1.4887 -0.2451
15758TIP3    H268690  -0.039   6.466  17.184 -0.9492  0.8949  0.4178
15759TIP3   OH268691   4.884   5.157   0.453  0.5830 -0.0076  0.4168
15759TIP3    H168692   4.846   5.238   0.417  0.1028 -0.9789 -1.3755
15759TIP3    H268693   4.967   5.185   0.491  0.3817  1.3452 -0.0688
15760TIP3   OH268694   5.548   3.875   0.888 -0.0326  0.8358  0.4775
15760TIP3    H168695   5.634   3.832   0.895  0.0575  0.9350 -0.0102
15760TIP3    H268696   5.532   3.909   0.976 -0.6188 -1.1559  1.1873
15761TIP3   OH268697   0.463   0.766   5.099  0.0607  0.4583 -0.2793
15761TIP3    H168698   0.444   0.837   5.038  2.4867 -0.1464 -1.9255
15761TIP3    H268699   0.549   0.787   5.136 -0.4948 -0.1749  1.4934
15762TIP3   OH268700   1.166   5.153   1.262  1.1147 -0.6665 -0.7291
15762TIP3    H168701   1.133   5.164   1.351  1.8329 -0.7172 -0.4449
15762TIP3    H268702   1.117   5.216   1.210  1.8062  0.5174  0.0075
15763TIP3   OH268703   0.563   5.008   0.425 -0.8290 -0.4049  0.0613
15763TIP3    H168704   0.577   5.027   0.518 -0.4396  0.3524 -0.1502
15763TIP3    H268705   0.630   5.057   0.379 -0.7526 -1.1092 -0.6075
15764TIP3   OH268706   1.768   6.566   3.308  0.0690 -0.6728  0.2339
15764TIP3    H168707   1.752   6.626   3.381 -0.1408 -0.6183  0.1409
15764TIP3    H268708   1.796   6.484   3.351  2.1090 -0.0033  0.3251
15765TIP3   OH268709   1.641   0.007  12.249  0.3960  0.5573 -0.2053
15765TIP3    H168710   1.698  -0.052  12.299 -0.5473  1.0552  1.5475
15765TIP3    H268711   1.552  -0.019  12.275 -0.0605  2.2419 -0.0013
15766TIP3   OH268712   1.335   2.686  11.826  0.1226  0.1040  0.2019
15766TIP3    H168713   1.371   2.598  11.841  0.1731  0.0324 -0.3174
15766TIP3    H268714   1.260   2.671  11.769 -0.6253  0.2746  1.1156
15767TIP3   OH268715   6.037   1.345  11.569 -0.0091 -0.2291  0.1997
15767TIP3    H168716   5.992   1.429  11.564  0.6161  0.1086  0.1574
15767TIP3    H268717   5.967   1.281  11.579 -0.5990  0.1149 -1.5402
15768TIP3   OH268718   3.404   3.596   6.213 -0.8642 -0.1552 -0.1713
15768TIP3    H168719   3.347   3.596   6.290 -1.2051 -0.8707 -0.4184
15768TIP3    H268720   3.344   3.595   6.139 -0.5581 -1.4083 -0.4314
15769TIP3   OH268721   1.664   0.410   5.699  0.1349  0.0521  0.1924
15769TIP3    H168722   1.656   0.389   5.792 -1.4629  1.0931  0.3230
15769TIP3    H268723   1.693   0.328   5.659 -1.8437 -1.2356  1.2411
15770TIP3   OH268724   4.338   6.107  15.994  0.2844  0.9450  0.2010
15770TIP3    H168725   4.357   6.093  16.087  0.5977 -0.4370 -0.0534
15770TIP3    H268726   4.404   6.171  15.966  0.6204  0.8565  0.7652
15771TIP3   OH268727   2.771   5.790  15.478  0.6769 -0.8267  0.4427
15771TIP3    H168728   2.751   5.826  15.565 -0.7191  0.8985 -0.5278
15771TIP3    H268729   2.686   5.763  15.443  0.7582  1.1029 -1.4448
15772TIP3   OH268730   4.987   3.892   4.480  0.3259  0.0856  0.5345
15772TIP3    H168731   5.021   3.857   4.563  3.9006  1.3584 -0.1926
15772TIP3    H268732   5.064   3.898   4.424 -1.7081  0.7107 -2.4095
15773TIP3   OH268733   1.241   3.892   0.927  0.4394  0.2426  0.1246
15773TIP3    H168734   1.147   3.882   0.910  0.3482  1.2714 -0.0496
15773TIP3    H268735   1.280   3.810   0.897 -0.3199  0.1082 -0.5311
15774TIP3   OH268736   5.623   4.051   1.417  0.1964 -0.2270 -0.1346
15774TIP3    H168737   5.661   4.101   1.489 -0.1908 -1.2650  0.8097
15774TIP3    H268738   5.674   4.079   1.340 -0.6119  2.3124  0.1434
15775TIP3   OH268739   1.252   5.571   3.584 -0.4091 -0.0574 -0.4767
15775TIP3    H168740   1.212   5.658   3.579 -1.9449 -0.7427 -0.7379
15775TIP3    H268741   1.281   5.552   3.495 -1.3399 -0.3614 -0.7275
15776TIP3   OH268742   5.299   4.178   2.034  0.5996 -0.8004  0.3081
15776TIP3    H168743   5.315   4.232   2.112 -0.3714 -1.3328  0.8997
15776TIP3    H268744   5.354   4.101   2.047  1.1508 -0.4559  0.0068
15777TIP3   OH268745   6.094   2.581   6.266 -0.3752 -0.1024 -0.0542
15777TIP3    H168746   6.059   2.541   6.345 -0.9872 -0.7980 -0.6555
15777TIP3    H268747   6.070   2.520   6.196 -2.3231  1.8160 -1.1834
15778TIP3   OH268748   6.619   4.369   1.324  1.0947 -0.1454  0.4245
15778TIP3    H168749   6.558   4.407   1.388  2.1145 -0.8544  1.8842
15778TIP3    H268750   6.603   4.275   1.328  0.0951 -0.1087 -1.5676
15779TIP3   OH268751   3.393   0.460   3.126  0.3616 -0.1377 -0.2932
15779TIP3    H168752   3.405   0.501   3.040  1.6736  0.1456 -0.0104
15779TIP3    H268753   3.444   0.516   3.186 -0.5094 -0.3403  0.6733
15780TIP3   OH268754   4.892   1.046  11.689  0.4828 -0.0244 -0.0948
15780TIP3    H168755   4.977   1.002  11.686  1.2141  1.3854 -1.4231
15780TIP3    H268756   4.903   1.115  11.754  0.1890 -0.1573  0.0973
15781TIP3   OH268757   1.106   2.193  12.553 -0.1916  0.0364 -0.4439
15781TIP3    H168758   1.202   2.197  12.546 -0.0866  0.5202  0.9141
15781TIP3    H268759   1.080   2.128  12.488  1.2428 -1.6800  0.6024
15782TIP3   OH268760   4.274   2.894  13.883 -0.2301  0.6211 -0.5868
15782TIP3    H168761   4.256   2.974  13.933 -0.6098 -0.2107  0.6340
15782TIP3    H268762   4.370   2.892  13.876 -0.2650  2.4798 -2.8445
15783TIP3   OH268763   5.855   3.901   0.141  0.1880 -0.1708 -0.0891
15783TIP3    H168764   5.868   3.990   0.108 -0.4679 -0.0657 -0.0845
15783TIP3    H268765   5.924   3.850   0.100  0.7451  0.3951  0.1329
15784TIP3   OH268766   3.246   0.508  11.784  0.4941  0.4202 -0.3124
15784TIP3    H168767   3.216   0.440  11.723  1.8162 -0.6425  0.1680
15784TIP3    H268768   3.188   0.501  11.859 -0.2798  0.8049 -0.8691
15785TIP3   OH268769   3.614   2.957  12.757  0.2464  0.1038 -0.1064
15785TIP3    H168770   3.636   3.028  12.818  0.7441 -1.2144  1.3429
15785TIP3    H268771   3.533   2.920  12.792  0.1622 -0.2497 -0.6633
15786TIP3   OH268772   5.097   6.755  11.671  0.0876 -0.2759 -0.5180
15786TIP3    H168773   5.056   6.826  11.722  1.5120  1.2852 -1.4296
15786TIP3    H268774   5.171   6.726  11.725 -1.0297 -1.7942  0.2789
15787TIP3   OH268775   2.039   3.131   3.370 -0.5508 -0.0625 -0.1290
15787TIP3    H168776   2.121   3.081   3.383 -0.5053  0.1573  0.4578
15787TIP3    H268777   2.040   3.154   3.277 -0.0657 -0.2761 -0.1840
15788TIP3   OH268778   1.562   5.254  15.344 -0.0383  0.3613 -0.3195
15788TIP3    H168779   1.524   5.212  15.422  1.2511  0.5443  0.4293
15788TIP3    H268780   1.652   5.221  15.341 -0.7832 -1.8287 -3.3367
15789TIP3   OH268781   5.047   4.601   2.692  0.0559  0.2658  0.0859
15789TIP3    H168782   5.127   4.603   2.639  0.3147 -0.7281  0.4164
15789TIP3    H268783   4.977   4.587   2.629 -0.3658  4.5092 -0.6906
15790TIP3   OH268784   4.088   1.015  14.525  0.5121  0.2289  0.0618
15790TIP3    H168785   4.064   1.106  14.542 -1.0239 -0.1278 -0.0180
15790TIP3    H268786   4.004   0.971  14.507  1.3610 -0.8489 -1.5441
15791TIP3   OH268787   6.761   2.149  12.121 -0.3213 -0.6346  0.2608
15791TIP3    H168788   6.818   2.124  12.193 -1.0409  1.7702  1.8042
15791TIP3    H268789   6.682   2.096  12.133  0.4939 -2.0370 -0.3045
15792TIP3   OH268790   1.987   6.686  16.878 -1.0527  0.0279  0.4405
15792TIP3    H168791   2.054   6.751  16.898 -0.8191  0.1078 -0.5919
15792TIP3    H268792   1.974   6.692  16.784 -0.8950 -1.5354  0.2857
15793TIP3   OH268793   6.740   5.371   1.388  0.1959  0.0500  0.4595
15793TIP3    H168794   6.805   5.435   1.358  0.1294 -0.3840 -0.6702
15793TIP3    H268795   6.662   5.424   1.408  0.6133  0.4774  0.9940
15794TIP3   OH268796   0.368   5.257  10.957  0.2939 -0.6057  0.3277
15794TIP3    H168797   0.297   5.312  10.924  0.9651  0.1671  0.1497
15794TIP3    H268798   0.361   5.176  10.906  2.2779  1.1027 -3.0345
15795TIP3   OH268799   5.157   5.663   3.078 -0.5588  0.4532 -0.3110
15795TIP3    H168800   5.075   5.619   3.056 -1.2944  1.1822  0.8513
15795TIP3    H268801   5.216   5.640   3.007 -1.9901  0.5020 -1.5829
15796TIP3   OH268802   4.681   3.312   3.391 -0.3981 -0.0178  0.1402
15796TIP3    H168803   4.685   3.222   3.358 -0.5748  0.1105 -0.2316
15796TIP3    H268804   4.737   3.361   3.331 -3.2903  0.8622 -2.0541
15797TIP3   OH268805   4.205   3.470   6.708  0.8572  0.8392 -0.2896
15797TIP3    H168806   4.252   3.502   6.631  1.7126 -0.1642 -0.1964
15797TIP3    H268807   4.268   3.478   6.780 -0.0408  2.0933  0.4062
15798TIP3   OH268808   3.978   3.753   3.680 -0.6614 -0.8048 -0.2309
15798TIP3    H168809   4.040   3.772   3.751 -0.0995  0.4197 -1.0223
15798TIP3    H268810   4.017   3.679   3.633 -1.4311 -2.1563  1.1714
15799TIP3   OH268811   5.445   5.600  15.617 -0.0124 -0.0238  0.5979
15799TIP3    H168812   5.396   5.607  15.535 -0.1870 -1.8533  0.5154
15799TIP3    H268813   5.514   5.666  15.609 -0.2831  0.1203 -0.8362
15800TIP3   OH268814   3.850   5.007  13.252 -0.4295 -0.5816 -0.4955
15800TIP3    H168815   3.890   5.062  13.319 -0.7764 -0.4162 -0.4241
15800TIP3    H268816   3.885   5.042  13.169 -1.8579  0.7880 -0.5686
15801TIP3   OH268817   0.983   2.261  17.267 -0.5783  0.6165 -0.1784
15801TIP3    H168818   1.044   2.276  17.195 -1.4705  0.4412 -0.9814
15801TIP3    H268819   0.921   2.334  17.262 -2.3083 -0.8412 -1.3652
15802TIP3   OH268820   1.720   6.720  16.165 -0.7323 -0.4595 -0.4376
15802TIP3    H168821   1.633   6.684  16.149 -0.8767  0.3991 -1.7692
15802TIP3    H268822   1.714   6.811  16.136  0.1665  0.0871  0.9711
15803TIP3   OH268823   3.547   1.215  11.811 -0.4088 -0.4727 -0.1708
15803TIP3    H168824   3.461   1.234  11.849 -0.4229  0.2129 -0.5313
15803TIP3    H268825   3.596   1.174  11.883 -1.0970 -1.0688 -0.0210
15804TIP3   OH268826   1.460   3.134  14.987  0.2865 -0.4220  0.1508
15804TIP3    H168827   1.405   3.110  15.062  1.3032 -0.8446  0.7854
15804TIP3    H268828   1.549   3.110  15.014  1.2250  2.7074  0.2701
15805TIP3   OH268829   2.906   3.016   4.298  0.1073  0.3726 -0.0295
15805TIP3    H168830   2.880   2.924   4.290 -0.4083  0.3475  1.4430
15805TIP3    H268831   2.889   3.037   4.390  2.0008  1.4059  0.1356
15806TIP3   OH268832   5.200   4.385  13.572 -0.4990  0.1729  0.3789
15806TIP3    H168833   5.222   4.344  13.656  0.4300 -1.3028 -0.5287
15806TIP3    H268834   5.115   4.347  13.548 -0.9601  0.8999  0.8109
15807TIP3   OH268835   3.470   5.734   0.610 -0.1156  0.5218  0.2536
15807TIP3    H168836   3.446   5.714   0.519 -0.2286  1.8231 -0.0196
15807TIP3    H268837   3.458   5.829   0.618 -1.1179  0.3055  1.9295
15808TIP3   OH268838   4.972   6.400   3.000 -0.3040 -0.4985 -0.7036
15808TIP3    H168839   5.012   6.313   3.008  1.8512  0.2174 -2.4981
15808TIP3    H268840   4.956   6.411   2.906 -1.0564  0.8319 -0.4475
15809TIP3   OH268841   6.226   3.469   1.041  0.1417  0.1532 -0.2034
15809TIP3    H168842   6.235   3.410   1.116  1.2337  0.2052 -0.2815
15809TIP3    H268843   6.260   3.419   0.967 -0.9549  0.0955 -0.6771
15810TIP3   OH268844   3.222   2.751   2.251 -0.5006  0.0008  0.4997
15810TIP3    H168845   3.153   2.753   2.185 -0.3279 -1.1477  0.2711
15810TIP3    H268846   3.197   2.682   2.311 -1.0317  1.5074  2.1050
15811TIP3   OH268847   2.766   2.872   2.644  0.4134 -0.4067 -0.1595
15811TIP3    H168848   2.859   2.869   2.663  0.3499 -0.2795  0.1862
15811TIP3    H268849   2.728   2.917   2.719  0.1940  0.4354 -0.7587
15812TIP3   OH268850   1.548   2.643   2.184 -0.0566  0.0280  0.3489
15812TIP3    H168851   1.502   2.672   2.105  0.1112  0.3624  0.3705
15812TIP3    H268852   1.627   2.601   2.152  0.0623  0.2569  0.3427
15813TIP3   OH268853   2.981   0.955   3.406 -0.2532 -0.6031  0.3799
15813TIP3    H168854   2.985   0.867   3.443  0.7371 -0.4031  0.7924
15813TIP3    H268855   3.069   0.970   3.371 -0.2893  0.3742  0.6763
15814TIP3   OH268856   2.689   4.823   2.883  0.4556 -0.2276  0.1616
15814TIP3    H168857   2.608   4.780   2.912  0.3807 -0.5904 -0.5810
15814TIP3    H268858   2.739   4.753   2.840 -0.8040  0.9136 -3.4723
15815TIP3   OH268859   5.427   0.715  11.057  0.2195 -0.5704  0.5425
15815TIP3    H168860   5.343   0.704  11.103 -1.6677  0.4702 -2.3373
15815TIP3    H268861   5.440   0.633  11.011 -0.0783 -0.1560 -0.2885
15816TIP3   OH268862   6.551   5.819   0.990  0.6892 -0.9086  0.2122
15816TIP3    H168863   6.643   5.794   0.976  0.3933 -0.8531 -2.1310
15816TIP3    H268864   6.553   5.914   0.999  0.7895 -0.8275 -0.6243
15817TIP3   OH268865   1.503   0.962   2.518  0.2607 -0.3827  0.3150
15817TIP3    H168866   1.518   0.881   2.468 -3.7651 -0.9969 -0.2643
15817TIP3    H268867   1.487   0.932   2.607  1.9698  0.1585  0.8258
15818TIP3   OH268868   6.617   1.450   6.295  0.1160  0.0299 -0.1219
15818TIP3    H168869   6.685   1.444   6.362 -1.1217 -0.4869  1.1354
15818TIP3    H268870   6.641   1.383   6.231  0.3513 -0.7141  0.7268
15819TIP3   OH268871   4.385   1.256   3.936 -0.2903 -0.4451  0.5113
15819TIP3    H168872   4.464   1.205   3.950  0.5451  0.3642 -0.9547
15819TIP3    H268873   4.416   1.340   3.903 -1.6363  0.9224  2.4577
15820TIP3   OH268874   4.279   6.682   2.036  0.6479  0.2261  0.4053
15820TIP3    H168875   4.294   6.695   1.942  0.0289 -0.9239  0.1253
15820TIP3    H268876   4.193   6.721   2.052  1.2458  1.4455  0.7515
15821TIP3   OH268877   4.095   0.616  12.204  0.6700 -0.5669  0.0895
15821TIP3    H168878   4.168   0.630  12.144  1.4220 -0.7984  0.9390
15821TIP3    H268879   4.066   0.527  12.186  0.7187 -0.5410 -0.1178
15822TIP3   OH268880   6.560   2.272   6.254  0.7296  0.0982 -0.3662
15822TIP3    H168881   6.594   2.183   6.252  1.6089  0.3693  1.1221
15822TIP3    H268882   6.520   2.284   6.168  0.2865 -1.8349 -0.4776
15823TIP3   OH268883   5.589   2.757   4.380  0.6846  0.6962 -0.1134
15823TIP3    H168884   5.634   2.749   4.464  3.2466 -1.4947 -1.5271
15823TIP3    H268885   5.651   2.806   4.325 -0.2178  0.6623 -1.1958
15824TIP3   OH268886   5.482   1.015   3.387  0.7120  0.1461 -0.4273
15824TIP3    H168887   5.439   1.092   3.350 -0.2582 -0.7830 -1.2938
15824TIP3    H268888   5.567   1.013   3.345  1.2040  1.3567  0.4442
15825TIP3   OH268889   4.576   3.450   1.204  0.2013 -0.4084 -0.3586
15825TIP3    H168890   4.662   3.428   1.169  0.2239 -0.1879 -0.4412
15825TIP3    H268891   4.594   3.482   1.293  0.2639  0.2194 -0.5963
15826TIP3   OH268892   1.208   2.617   0.776 -0.2970 -0.0155  0.1859
15826TIP3    H168893   1.135   2.646   0.831 -0.8592 -0.7754 -0.1232
15826TIP3    H268894   1.178   2.533   0.740  1.6468 -1.5724  1.8937
15827TIP3   OH268895   3.220   0.742   2.822  0.1172  0.2147  0.2028
15827TIP3    H168896   3.284   0.805   2.787 -0.0365  0.6508  0.6953
15827TIP3    H268897   3.266   0.658   2.821  0.9208  0.6290  1.1397
15828TIP3   OH268898   1.748   3.158   1.529  0.3215  0.7253 -0.1676
15828TIP3    H168899   1.750   3.238   1.582 -1.6417 -0.1701  1.3830
15828TIP3    H268900   1.704   3.093   1.584  2.1316 -1.5784 -1.2449
15829TIP3   OH268901   2.866   3.904  14.898 -0.1748  0.0092 -0.4204
15829TIP3    H168902   2.927   3.852  14.951  0.6721  1.0770 -0.3184
15829TIP3    H268903   2.784   3.855  14.902 -0.1436  0.0316  1.8760
15830TIP3   OH268904   5.318   4.869  15.339 -0.0703 -0.3724  0.1424
15830TIP3    H168905   5.240   4.815  15.348 -0.9770  0.0214 -3.7935
15830TIP3    H268906   5.299   4.929  15.267  2.9057  1.6067  0.7904
15831TIP3   OH268907   5.260   2.939  14.467  0.4744 -0.3366 -0.3315
15831TIP3    H168908   5.277   3.010  14.529  1.4937  1.0270 -2.0836
15831TIP3    H268909   5.166   2.942  14.452 -0.0361 -1.5535  2.0583
15832TIP3   OH268910   1.164   2.001  14.245 -0.0290 -0.0238  0.4891
15832TIP3    H168911   1.081   2.013  14.200  0.9744 -1.0053 -1.7328
15832TIP3    H268912   1.180   2.086  14.288 -0.7552  1.2188 -1.5497
15833TIP3   OH268913   5.605   3.288   0.927 -0.3513 -0.2283  0.0128
15833TIP3    H168914   5.684   3.236   0.943 -0.1938 -0.0152 -0.0544
15833TIP3    H268915   5.632   3.352   0.861 -0.1428  0.8207  1.0730
15834TIP3   OH268916   1.921   0.621  10.926  0.0834 -0.1874  0.1647
15834TIP3    H168917   1.927   0.586  10.837  1.6121  1.0011 -0.2428
15834TIP3    H268918   1.840   0.672  10.927  0.7206  0.8865 -0.9779
15835TIP3   OH268919   3.269   5.473   3.161  0.4630 -0.4128 -0.0685
15835TIP3    H168920   3.322   5.533   3.214  0.5640 -1.5671  1.1842
15835TIP3    H268921   3.312   5.388   3.171 -0.9654 -1.1469  0.0463
15836TIP3   OH268922   5.093   1.470  14.365 -0.3454 -0.2001  0.5673
15836TIP3    H168923   5.067   1.498  14.452  1.4902 -2.7172  2.0493
15836TIP3    H268924   5.015   1.486  14.311 -1.2189  2.3187  2.3705
15837TIP3   OH268925   4.219   2.502  16.549 -0.0185  0.0183 -0.7682
15837TIP3    H168926   4.280   2.475  16.481 -0.4220 -1.3489 -0.6153
15837TIP3    H268927   4.248   2.456  16.628 -1.7086 -1.3384 -0.8822
15838TIP3   OH268928   5.325   1.751  14.456  0.5189 -0.7798  0.4729
15838TIP3    H168929   5.411   1.763  14.416  0.0078 -0.0459 -0.4551
15838TIP3    H268930   5.335   1.783  14.546  0.5496  1.9623 -0.4078
15839TIP3   OH268931   5.222   0.614   5.171  0.3286 -0.4226 -0.1111
15839TIP3    H168932   5.234   0.621   5.077  0.7158  2.1445  0.0576
15839TIP3    H268933   5.162   0.540   5.183 -0.0903 -0.5060 -2.3748
15840TIP3   OH268934   6.525   2.122  17.239  0.3267 -0.1081 -0.5439
15840TIP3    H168935   6.602   2.151  17.191 -0.1889 -0.5022 -1.6320
15840TIP3    H268936   6.450   2.154  17.187 -0.3740  2.8416  1.9459
15841TIP3   OH268937   5.969   5.647  16.040  0.5306 -0.2266 -0.4451
15841TIP3    H168938   5.966   5.575  16.103 -1.9069  1.2716  1.3416
15841TIP3    H268939   6.001   5.722  16.090 -0.8653  0.8513 -1.0868
15842TIP3   OH268940   2.701   5.996   0.392  0.0870  0.3037 -0.0477
15842TIP3    H168941   2.729   5.925   0.334 -1.5290 -1.0626  0.7527
15842TIP3    H268942   2.770   6.002   0.458  0.2120 -0.5756 -0.0893
15843TIP3   OH268943   6.187   6.364  11.236 -0.2357 -0.1728 -0.2579
15843TIP3    H168944   6.187   6.452  11.197 -0.7876 -0.7812 -1.6776
15843TIP3    H268945   6.099   6.331  11.222 -0.1032 -0.8715  0.4849
15844TIP3   OH268946   4.797   4.769   3.457  0.1289 -0.6726 -0.4146
15844TIP3    H168947   4.748   4.805   3.531 -2.3080  1.6273 -2.9296
15844TIP3    H268948   4.737   4.706   3.417 -0.0731  0.6297 -2.3243
15845TIP3   OH268949   0.085   3.011  11.636  0.1907  0.2899 -0.1551
15845TIP3    H168950   0.108   3.098  11.666 -0.2574  0.2951  0.1724
15845TIP3    H268951   0.134   2.952  11.693 -1.2007  0.2779  1.1012
15846TIP3   OH268952   3.858   0.673   4.126 -0.5215  0.3586 -0.0229
15846TIP3    H168953   3.890   0.586   4.153 -0.2193  0.4387 -0.1196
15846TIP3    H268954   3.905   0.734   4.182 -0.3759  0.4879 -0.2859
15847TIP3   OH268955   5.367   3.612  14.992 -0.4855 -0.1127 -0.6202
15847TIP3    H168956   5.389   3.692  14.945 -2.1403  1.0917  0.5538
15847TIP3    H268957   5.405   3.624  15.079 -0.1154 -0.9506 -0.6555
15848TIP3   OH268958   4.174   5.763  12.022 -0.3300 -0.4026  0.2388
15848TIP3    H168959   4.185   5.687  11.965  0.1891 -1.4530  1.6552
15848TIP3    H268960   4.099   5.740  12.077 -0.3053  0.2165  0.5385
15849TIP3   OH268961   5.717   2.919   0.674 -0.7385 -0.4268 -0.1989
15849TIP3    H168962   5.734   2.825   0.672 -0.7651 -0.5033  1.5982
15849TIP3    H268963   5.795   2.956   0.717 -1.1987  0.2370  0.0818
15850TIP3   OH268964   5.544   2.198   2.751  0.3256 -0.3496  0.2054
15850TIP3    H168965   5.528   2.109   2.721 -1.4636  0.2429 -0.7408
15850TIP3    H268966   5.638   2.201   2.769  0.4091 -2.4371  0.3573
15851TIP3   OH268967   4.187   3.147  15.636 -0.4603  0.4471  0.7067
15851TIP3    H168968   4.237   3.098  15.571 -2.3412 -0.8192  0.1167
15851TIP3    H268969   4.224   3.120  15.720  1.2620  1.2471  0.2278
15852TIP3   OH268970   0.808   4.496   0.968 -0.1280  0.2012 -0.3252
15852TIP3    H168971   0.746   4.510   0.896  0.5281 -0.5769 -1.0683
15852TIP3    H268972   0.755   4.463   1.040 -1.1725  3.0616  0.3457
15853TIP3   OH268973   5.516   3.939   3.206  0.4296 -0.8863 -0.3098
15853TIP3    H168974   5.552   3.974   3.287 -1.4685  0.0900  0.1619
15853TIP3    H268975   5.591   3.933   3.147  1.0284  3.6354 -0.3244
15854TIP3   OH268976   0.845   0.806   0.867 -0.8520 -0.0598  0.4588
15854TIP3    H168977   0.912   0.749   0.830 -2.0322 -1.0811 -0.1788
15854TIP3    H268978   0.889   0.890   0.879  0.9818 -1.1112  1.5945
15855TIP3   OH268979   2.212   4.018  14.514  0.1269 -0.1680 -0.0975
15855TIP3    H168980   2.164   3.951  14.563 -0.9355  0.7843  0.2194
15855TIP3    H268981   2.226   3.979  14.427 -0.5831 -0.7576  0.0455
15856TIP3   OH268982   3.174   5.032  13.477  0.5524  0.6904  0.9448
15856TIP3    H168983   3.246   4.970  13.483 -0.3832 -0.3611  1.6438
15856TIP3    H268984   3.105   4.994  13.532 -1.4677  0.3612 -1.6315
15857TIP3   OH268985   1.193   3.596   1.815 -0.4251 -0.3141 -0.2596
15857TIP3    H168986   1.128   3.593   1.745 -0.0103  0.1432 -0.6714
15857TIP3    H268987   1.265   3.648   1.779  0.0640 -0.6076  0.2788
15858TIP3   OH268988   5.406   3.224   5.444  0.1541  0.2554 -0.1514
15858TIP3    H168989   5.501   3.228   5.434  0.2845 -2.0687 -0.2782
15858TIP3    H268990   5.372   3.255   5.360  0.8467 -0.1525 -0.5994
15859TIP3   OH268991   1.343   3.423   3.796 -0.1377  0.3536  0.3099
15859TIP3    H168992   1.248   3.412   3.788  0.0528 -2.3393  0.8111
15859TIP3    H268993   1.377   3.392   3.712  0.3410  0.4112  0.4826
15860TIP3   OH268994   5.614   4.979   3.404 -0.1325 -0.2665  0.5103
15860TIP3    H168995   5.684   4.919   3.430 -0.7215 -1.7697 -1.1243
15860TIP3    H268996   5.537   4.948   3.452 -0.3816 -0.6898 -0.1467
15861TIP3   OH268997   0.069   5.914  16.584 -0.1690  0.2788  0.9584
15861TIP3    H168998   0.103   5.900  16.495 -1.8424  1.1839  0.1428
15861TIP3    H268999   0.148   5.923  16.638  0.8872  0.6035 -0.5748
15862TIP3   OH269000   1.953   3.880  17.286 -0.1183 -0.0111  0.0712
15862TIP3    H169001   2.016   3.877  17.214  0.4532 -1.3264  0.5693
15862TIP3    H269002   1.932   3.972  17.296  0.6331  0.3095 -1.0578
15863TIP3   OH269003   4.454   3.058  13.223  0.2108 -0.7098 -0.1545
15863TIP3    H169004   4.514   2.992  13.188 -0.8264 -2.0861  0.5799
15863TIP3    H269005   4.415   3.099  13.147  2.1103  0.2822 -0.6605
15864TIP3   OH269006   5.255   0.318  14.061 -0.0987  0.4407  0.7242
15864TIP3    H169007   5.215   0.235  14.087 -0.0884 -0.1359 -0.9834
15864TIP3    H269008   5.321   0.293  13.996 -1.4103  1.9337 -1.2632
15865TIP3   OH269009   3.761   0.732   1.811  0.1143  0.6172  0.2910
15865TIP3    H169010   3.850   0.716   1.840 -0.5203 -0.0721  1.9861
15865TIP3    H269011   3.722   0.645   1.801 -0.1829  0.8863 -1.1141
15866TIP3   OH269012   3.844   2.745   0.971  0.5623 -0.1688  0.0665
15866TIP3    H169013   3.924   2.796   0.964 -0.0964  0.8902  0.1275
15866TIP3    H269014   3.781   2.803   1.014  0.0943 -1.3788  1.1079
15867TIP3   OH269015   3.154   3.746  14.665 -0.6953  0.0617 -0.4727
15867TIP3    H169016   3.148   3.651  14.672 -0.8202  0.1453  0.6654
15867TIP3    H269017   3.248   3.764  14.664 -0.6668 -0.0126  0.3497
15868TIP3   OH269018   2.849   5.309   0.723 -0.3106 -0.3277 -0.3408
15868TIP3    H169019   2.917   5.368   0.753 -0.8801  0.6941 -0.9907
15868TIP3    H269020   2.767   5.355   0.741 -0.7416 -0.5689 -1.5647
15869TIP3   OH269021   5.252   5.256  14.479  0.0774 -0.1322  0.4061
15869TIP3    H169022   5.322   5.274  14.542  1.0284  0.8271 -0.8677
15869TIP3    H269023   5.262   5.164  14.458  1.7581  0.2420 -0.6282
15870TIP3   OH269024   2.431   6.738   3.128  0.3381 -0.5610 -0.8778
15870TIP3    H169025   2.370   6.736   3.054  0.2145 -0.0374 -0.7912
15870TIP3    H269026   2.411   6.658   3.177 -0.3963 -0.3098 -0.7593
15871TIP3   OH269027   2.267   5.533  12.429  0.1264  0.7114 -0.6070
15871TIP3    H169028   2.326   5.472  12.474  1.3129  1.4517 -1.1382
15871TIP3    H269029   2.315   5.615  12.426 -1.8525  2.0065  1.0097
15872TIP3   OH269030   4.010   1.485   2.685 -0.2775 -0.1113  0.7925
15872TIP3    H169031   4.068   1.409   2.683 -0.0094  0.0888  0.8547
15872TIP3    H269032   4.042   1.541   2.614 -0.4609 -0.0483  0.7601
15873TIP3   OH269033   2.877   5.111   3.115  0.0509 -0.2732 -0.3743
15873TIP3    H169034   2.942   5.069   3.059  1.2164  1.0485 -0.0619
15873TIP3    H269035   2.900   5.083   3.204  1.5058  1.7404 -0.0392
15874TIP3   OH269036   5.203   4.125   6.326  0.1314 -0.1536 -0.6459
15874TIP3    H169037   5.235   4.072   6.253  1.5723 -0.6201  0.2731
15874TIP3    H269038   5.149   4.065   6.377 -0.1742 -0.0685 -0.8689
15875TIP3   OH269039   0.168   4.206   3.198  0.4024  1.1089  1.2127
15875TIP3    H169040   0.236   4.225   3.134  0.3507  0.9757  1.1162
15875TIP3    H269041   0.214   4.165   3.271  0.4038  0.8555  1.0726
15876TIP3   OH269042   4.313   1.112   6.681  0.1095  0.8179  0.3146
15876TIP3    H169043   4.296   1.185   6.621 -0.6586 -0.4148 -1.0031
15876TIP3    H269044   4.272   1.036   6.640  3.6038 -1.1068 -0.0009
15877TIP3   OH269045   0.410   0.935  16.244 -0.3620  0.1080 -0.2439
15877TIP3    H169046   0.384   0.999  16.177  2.0931  0.2456 -1.1658
15877TIP3    H269047   0.445   0.988  16.316 -2.6498 -0.0594  1.0901
15878TIP3   OH269048   6.230   1.943   0.501 -0.0071 -0.2209  0.4351
15878TIP3    H169049   6.211   2.035   0.486 -0.3791 -0.1414  1.3098
15878TIP3    H269050   6.318   1.930   0.467  0.2773  0.5996  0.8351
15879TIP3   OH269051   1.155   1.868   5.802  0.1227  0.1035 -0.6704
15879TIP3    H169052   1.065   1.871   5.771 -0.1718  0.0456  0.1639
15879TIP3    H269053   1.167   1.950   5.850  1.1561  1.0686 -2.4689
15880TIP3   OH269054   6.509   2.495   4.137 -0.3270 -0.2095 -0.4783
15880TIP3    H169055   6.575   2.450   4.190 -1.4473 -0.4050  0.8351
15880TIP3    H269056   6.547   2.581   4.119  0.0665 -0.0853  0.7969
15881TIP3   OH269057   6.744   3.214   2.325  0.0592  0.2691  0.2257
15881TIP3    H169058   6.797   3.261   2.390 -0.4781  1.0485  0.1116
15881TIP3    H269059   6.715   3.281   2.264  0.1431 -0.3855 -0.5480
15882TIP3   OH269060   1.213   0.887   3.162 -0.0533 -0.2015 -0.2059
15882TIP3    H169061   1.281   0.826   3.192  0.5791  0.4833 -0.2211
15882TIP3    H269062   1.196   0.942   3.238 -1.4685 -1.1248  0.1775
15883TIP3   OH269063   2.026   4.592   3.739  0.5867 -0.1326 -0.1778
15883TIP3    H169064   2.020   4.649   3.815  1.8058 -0.1089 -0.0848
15883TIP3    H269065   2.071   4.514   3.771 -0.8787 -1.0922 -0.3531
15884TIP3   OH269066   3.063   6.328   4.139 -0.3291  0.3627 -0.3249
15884TIP3    H169067   3.134   6.359   4.083 -0.8270  1.4923 -0.3492
15884TIP3    H269068   3.103   6.314   4.225  0.5611 -1.8755 -1.0253
15885TIP3   OH269069   0.899   4.438  11.028 -0.4070  0.0210 -0.2007
15885TIP3    H169070   0.863   4.479  10.949 -0.1327  1.4721  0.3986
15885TIP3    H269071   0.823   4.404  11.074 -0.6809  0.1927 -0.5204
15886TIP3   OH269072   5.404   6.470   4.734 -0.3688  0.5504  0.3266
15886TIP3    H169073   5.390   6.552   4.688 -1.1808 -0.8812 -2.2192
15886TIP3    H269074   5.460   6.419   4.675  0.7148 -0.4870  2.1648
15887TIP3   OH269075   1.592   1.899  10.235 -0.8324 -0.1788  0.0323
15887TIP3    H169076   1.543   1.943  10.166 -0.9150  1.3285  0.9915
15887TIP3    H269077   1.672   1.950  10.244 -0.5293 -0.7358  0.6205
15888TIP3   OH269078   4.252   5.513   4.143  0.1169 -0.5536  0.4014
15888TIP3    H169079   4.247   5.596   4.190  0.8248 -0.1877 -0.1388
15888TIP3    H269080   4.317   5.462   4.191  1.5023  0.1579 -0.6323
15889TIP3   OH269081   6.501   3.871   5.777 -0.6148 -0.3456  0.3406
15889TIP3    H169082   6.429   3.879   5.714 -1.3252 -0.0596  1.1602
15889TIP3    H269083   6.575   3.916   5.735 -0.5051 -1.7412 -1.0622
15890TIP3   OH269084   5.675   6.362  16.183  0.4790 -0.0829 -0.4751
15890TIP3    H169085   5.608   6.351  16.251  0.4213  0.7698 -0.3873
15890TIP3    H269086   5.625   6.366  16.101  0.4041  0.6730 -0.3998
15891TIP3   OH269087   2.860   4.238  13.318  0.1726 -0.0280  0.3758
15891TIP3    H169088   2.914   4.181  13.374 -0.4403  1.1913  2.2971
15891TIP3    H269089   2.877   4.326  13.351 -1.5658  0.5467 -0.2081
15892TIP3   OH269090   4.181   6.189  13.929  0.7875  0.0519 -0.0824
15892TIP3    H169091   4.144   6.203  14.017 -1.9438  2.0596 -1.4121
15892TIP3    H269092   4.114   6.222  13.869  3.2978  0.4720 -2.9040
15893TIP3   OH269093   1.458   5.056  14.961 -0.2292 -0.1708 -0.0375
15893TIP3    H169094   1.482   5.141  14.999 -2.0325  0.9493 -1.2620
15893TIP3    H269095   1.540   5.006  14.962  0.4972  0.8864  2.3847
15894TIP3   OH269096   0.791   1.354   5.885  0.2377  0.2614  0.0318
15894TIP3    H169097   0.774   1.266   5.916  1.3219 -0.0879 -0.2955
15894TIP3    H269098   0.882   1.372   5.912  0.7459  0.4762 -1.6588
15895TIP3   OH269099   0.254   0.928   4.127 -0.2386  0.2063  0.3753
15895TIP3    H169100   0.279   1.007   4.175 -3.5962  2.3023 -0.9617
15895TIP3    H269101   0.204   0.961   4.052 -2.2595 -3.2261  0.0345
15896TIP3   OH269102   2.767   1.722  11.985  1.0950 -0.6272  0.5821
15896TIP3    H169103   2.792   1.813  12.002 -0.5047 -0.0999  0.3573
15896TIP3    H269104   2.759   1.683  12.072 -0.2977  0.0909  0.8117
15897TIP3   OH269105   6.153   1.505   0.879 -0.1250  0.8369 -0.0772
15897TIP3    H169106   6.175   1.423   0.836 -1.0828  0.6653 -0.2705
15897TIP3    H269107   6.159   1.487   0.972  0.1141  0.6745 -0.1261
15898TIP3   OH269108   6.389   3.356   3.796 -0.1596  0.0713 -0.1989
15898TIP3    H169109   6.451   3.310   3.853  1.9256  0.3172 -2.1475
15898TIP3    H269110   6.427   3.443   3.785 -0.1790 -0.1549 -2.3901
15899TIP3   OH269111   4.947   0.914   1.944 -0.7701  0.3589  0.0821
15899TIP3    H169112   4.948   0.936   2.037 -0.1969  0.4210  0.0648
15899TIP3    H269113   4.910   0.826   1.940  1.5904 -0.7343  0.6192
15900TIP3   OH269114   5.723   0.669  13.850  0.0096 -0.4378  0.6325
15900TIP3    H169115   5.735   0.619  13.931  1.3240 -1.3290 -0.0799
15900TIP3    H269116   5.647   0.628  13.808  0.3624 -1.0880  0.6193
15901TIP3   OH269117   2.962   5.611   3.010 -0.0104  0.4379  0.2896
15901TIP3    H169118   3.005   5.684   3.055  0.5583 -0.1954  0.8048
15901TIP3    H269119   2.958   5.541   3.076 -1.4813  0.3375  0.1277
15902TIP3   OH269120   3.385   2.059   4.527 -0.1997 -0.3195  0.1770
15902TIP3    H169121   3.431   2.112   4.462 -0.3846  0.2115  0.4711
15902TIP3    H269122   3.319   2.011   4.477 -1.2549  1.1120  0.1393
15903TIP3   OH269123   0.712   2.618   4.067  0.1367  0.3588 -0.1717
15903TIP3    H169124   0.712   2.583   3.977 -1.4951  0.3098 -0.1998
15903TIP3    H269125   0.658   2.697   4.061 -1.5525 -0.6176  1.0589
15904TIP3   OH269126   1.277   4.692   0.687  0.0511  0.7964 -0.1753
15904TIP3    H169127   1.205   4.639   0.652 -0.2215  1.7517 -1.0838
15904TIP3    H269128   1.246   4.782   0.682  1.3663  1.2323 -0.7026
15905TIP3   OH269129   0.806   0.167  12.602  0.5592  0.0353 -0.4696
15905TIP3    H169130   0.811   0.082  12.647 -0.2976 -0.1226 -0.6457
15905TIP3    H269131   0.768   0.226  12.667  2.2543  0.6024  0.0559
15906TIP3   OH269132   1.712   5.127   4.539 -0.6406  0.6512  0.9942
15906TIP3    H169133   1.654   5.085   4.475  1.6440  0.4949 -1.1324
15906TIP3    H269134   1.712   5.068   4.614  1.1649 -2.4636 -1.2397
15907TIP3   OH269135   5.656   2.867  14.923 -0.2953  0.0507 -0.2838
15907TIP3    H169136   5.729   2.924  14.899  0.3729 -0.3433  0.7593
15907TIP3    H269137   5.652   2.871  15.019  0.4301 -2.4333 -0.0832
15908TIP3   OH269138   3.409   4.064   1.570  0.2364  0.2743 -0.6602
15908TIP3    H169139   3.319   4.062   1.602  0.1791 -1.2306 -0.8288
15908TIP3    H269140   3.421   4.153   1.535 -1.7917 -0.0485 -2.3459
15909TIP3   OH269141   0.852   4.781  12.904 -0.0169  0.3861 -0.0248
15909TIP3    H169142   0.794   4.743  12.837 -0.2620  0.9218 -0.1232
15909TIP3    H269143   0.801   4.776  12.985 -0.9253  2.3830 -0.3956
15910TIP3   OH269144   5.462   1.741  10.731  0.3232  0.0024  0.0213
15910TIP3    H169145   5.551   1.717  10.705 -0.5139 -1.9223 -1.3104
15910TIP3    H269146   5.464   1.837  10.736  2.0631  0.1230 -1.6421
15911TIP3   OH269147   3.859   0.789   2.675 -0.6077 -0.0466  0.2596
15911TIP3    H169148   3.848   0.834   2.592 -1.3491  0.2651  0.5195
15911TIP3    H269149   3.953   0.780   2.686 -0.3565  2.4572  0.7328
15912TIP3   OH269150   0.823   2.748   5.396 -0.1512 -0.1633  0.1758
15912TIP3    H169151   0.904   2.798   5.398 -0.3217  0.1101  1.2452
15912TIP3    H269152   0.822   2.702   5.480  0.2167 -2.3411 -0.9324
15913TIP3   OH269153   1.562   4.497   2.759  0.2736 -0.0348  0.6588
15913TIP3    H169154   1.586   4.589   2.767  1.0496  0.0428 -1.8422
15913TIP3    H269155   1.507   4.494   2.680  1.5717 -1.9220 -0.2296
15914TIP3   OH269156   6.631   6.585  11.882 -0.8068 -0.1526 -0.0381
15914TIP3    H169157   6.640   6.598  11.788  0.1495 -0.7109 -0.0347
15914TIP3    H269158   6.555   6.638  11.906  0.8040  2.5803 -0.5813
15915TIP3   OH269159   0.130   2.175  16.800 -0.0538  0.3988  0.5063
15915TIP3    H169160   0.113   2.258  16.757 -0.0776  0.8953  1.4581
15915TIP3    H269161   0.218   2.183  16.836  0.6452 -0.6354 -0.8455
15916TIP3   OH269162   0.363   3.100   4.750 -0.2555  0.6434 -0.0531
15916TIP3    H169163   0.280   3.066   4.785 -0.6429  0.2737 -1.2534
15916TIP3    H269164   0.362   3.193   4.771  0.0483  0.2653  1.8409
15917TIP3   OH269165   6.218   4.408   3.289  0.0859 -0.5623 -0.2720
15917TIP3    H169166   6.123   4.419   3.279 -0.4652 -1.7212  2.6197
15917TIP3    H269167   6.253   4.497   3.287 -0.5138 -0.1978 -4.5157
15918TIP3   OH269168   6.690   3.865  16.125 -0.0255 -0.1261  0.1068
15918TIP3    H169169   6.669   3.817  16.205 -0.1536 -0.0298  0.1303
15918TIP3    H269170   6.613   3.855  16.069  0.7592 -1.7644 -0.7706
15919TIP3   OH269171   3.351   4.789  16.101 -0.0167  0.2859  0.0412
15919TIP3    H169172   3.325   4.868  16.053  1.3205  1.7377  1.5658
15919TIP3    H269173   3.270   4.753  16.135 -0.6190  1.2211 -0.3723
15920TIP3   OH269174   2.283   1.619  10.257 -0.0405  0.0030  0.1539
15920TIP3    H169175   2.225   1.542  10.256 -1.1741  0.8067 -1.5827
15920TIP3    H269176   2.361   1.589  10.304 -0.6386 -2.0658 -0.0408
15921TIP3   OH269177   0.314   2.214  10.438 -0.4983 -0.1500 -0.3770
15921TIP3    H169178   0.262   2.158  10.381 -1.5506  1.0500 -0.6524
15921TIP3    H269179   0.255   2.235  10.511  1.0108 -2.1486  1.5478
15922TIP3   OH269180   4.507   2.826  15.093  0.2016  0.5339  0.4903
15922TIP3    H169181   4.465   2.756  15.143  1.7573  0.6846  2.1414
15922TIP3    H269182   4.547   2.782  15.018 -2.8102  0.4075 -1.1729
15923TIP3   OH269183   5.716   2.497   5.183 -0.4645 -0.7336  0.0449
15923TIP3    H169184   5.621   2.502   5.172 -0.3333 -1.4810 -1.8323
15923TIP3    H269185   5.752   2.517   5.096  1.0253 -1.9585  0.3232
15924TIP3   OH269186   4.649   5.810  13.448  0.4827  0.7951  0.1164
15924TIP3    H169187   4.597   5.732  13.424  0.7789  0.7929 -0.5245
15924TIP3    H269188   4.673   5.849  13.364  0.6827  1.3530  0.4342
15925TIP3   OH269189   5.169   4.419   6.843  0.3457 -0.0860  0.6845
15925TIP3    H169190   5.178   4.388   6.753 -0.1114 -0.1449  0.6570
15925TIP3    H269191   5.093   4.476   6.841  0.8823  0.6425  0.8451
15926TIP3   OH269192   4.278   0.421   2.047 -0.3050 -0.0342  0.2227
15926TIP3    H169193   4.320   0.449   1.966 -0.1653  1.0032  0.6395
15926TIP3    H269194   4.350   0.402   2.107 -0.2682  3.7490  1.6321
15927TIP3   OH269195   3.051   4.778   6.322 -0.1945  0.4369 -0.0056
15927TIP3    H169196   3.011   4.710   6.376  0.3266  0.7913  0.8460
15927TIP3    H269197   3.067   4.851   6.382  1.2704  0.4898 -0.4090
15928TIP3   OH269198   0.193   1.664  12.814  0.2283 -0.7662 -0.1523
15928TIP3    H169199   0.142   1.745  12.820  0.9404 -0.0953 -2.5078
15928TIP3    H269200   0.259   1.673  12.883  0.9902  1.1994 -1.0635
15929TIP3   OH269201   2.253   6.582   1.837  0.1194  0.0247  0.3619
15929TIP3    H169202   2.274   6.672   1.816 -0.2783 -0.1175 -0.6861
15929TIP3    H269203   2.182   6.558   1.777 -1.0192 -0.4345  1.8006
15930TIP3   OH269204   1.210   5.392   2.161  0.3780 -0.3806  0.5632
15930TIP3    H169205   1.245   5.481   2.160  0.3436 -0.3226  2.0891
15930TIP3    H269206   1.166   5.384   2.246  0.4831 -1.8839  0.5143
15931TIP3   OH269207   1.566   2.177  13.226  0.6285 -0.4520  0.4359
15931TIP3    H169208   1.579   2.082  13.233  0.8726 -0.4501  0.0739
15931TIP3    H269209   1.472   2.190  13.234  0.5992 -0.7217  0.5312
15932TIP3   OH269210   4.276   2.931   5.138  0.1600  0.7051 -0.0462
15932TIP3    H169211   4.212   2.961   5.072 -0.0349  3.1177  1.1052
15932TIP3    H269212   4.229   2.865   5.188  0.5738 -1.7956 -2.7239
15933TIP3   OH269213   1.107   1.066   0.128  0.0828  0.1830  0.2456
15933TIP3    H169214   1.053   1.144   0.140 -3.4468 -2.1614  1.1613
15933TIP3    H269215   1.088   1.037   0.039  1.2758  0.2498 -0.0490
15934TIP3   OH269216   5.434   5.403   0.193 -0.2283 -0.5507  0.3234
15934TIP3    H169217   5.445   5.491   0.230 -2.5433 -0.9137  2.1072
15934TIP3    H269218   5.370   5.415   0.122  0.5366 -0.6111 -0.3933
15935TIP3   OH269219   6.569   1.340  14.804 -0.2110  0.0028  0.1220
15935TIP3    H169220   6.613   1.374  14.726  1.2123  0.3780  1.0565
15935TIP3    H269221   6.626   1.364  14.877 -1.2298 -0.8229  1.2370
15936TIP3   OH269222   6.362   1.899   1.864 -0.4605  0.3847 -0.2442
15936TIP3    H169223   6.399   1.954   1.932  0.6151  1.1649 -1.4221
15936TIP3    H269224   6.284   1.947   1.834  0.4034  1.2517 -1.1824
15937TIP3   OH269225   6.234   3.283  11.356 -0.8293  0.1111 -0.0562
15937TIP3    H169226   6.260   3.348  11.421  2.4099 -2.2656  1.3424
15937TIP3    H269227   6.293   3.299  11.281  2.6299 -2.9575  1.6289
15938TIP3   OH269228   4.320   6.012  12.619 -0.5324 -0.3150 -0.3989
15938TIP3    H169229   4.399   6.068  12.614 -0.6410 -0.0159  0.8491
15938TIP3    H269230   4.320   5.980  12.709 -1.6283 -0.6441 -0.5120
15939TIP3   OH269231   5.566   2.565   2.844 -0.2150 -0.0038  0.1668
15939TIP3    H169232   5.617   2.542   2.766 -2.5424  0.3461 -1.5690
15939TIP3    H269233   5.585   2.657   2.859 -0.4703  0.1789 -0.5905
15940TIP3   OH269234   4.282   5.432   1.140  0.3084  0.0600  0.5416
15940TIP3    H169235   4.268   5.346   1.101 -0.7373  1.1151 -1.6016
15940TIP3    H269236   4.318   5.485   1.069  1.6181  1.2468  2.0034
15941TIP3   OH269237   4.766   0.097  10.668  0.0680  0.6347 -0.1876
15941TIP3    H169238   4.862   0.091  10.667  0.1293  0.7452 -2.9948
15941TIP3    H269239   4.740   0.044  10.743  2.2853 -0.0467  0.1867
15942TIP3   OH269240   0.718   0.108   5.808 -0.2668  0.4063  0.1292
15942TIP3    H169241   0.801   0.089   5.763 -0.6036 -0.1086 -0.2856
15942TIP3    H269242   0.731   0.074   5.897 -0.4562 -0.7964 -0.2816
15943TIP3   OH269243   2.295   1.186   1.399 -0.1994  0.6680  0.1571
15943TIP3    H169244   2.329   1.272   1.374  1.2261 -0.6108 -2.8505
15943TIP3    H269245   2.254   1.153   1.319 -1.6770 -1.0394  1.5478
15944TIP3   OH269246   2.482   3.892   0.704  0.1168 -0.2715  0.1179
15944TIP3    H169247   2.451   3.970   0.751 -1.1162 -0.4961 -0.2945
15944TIP3    H269248   2.410   3.869   0.645  1.4228 -0.3100 -1.5219
15945TIP3   OH269249   4.733   6.161  14.438 -0.4043 -0.3679 -0.2488
15945TIP3    H169250   4.813   6.171  14.490  0.8788 -0.3219 -2.0831
15945TIP3    H269251   4.721   6.247  14.397 -1.2113 -0.4658 -0.2165
15946TIP3   OH269252   5.455   1.510   2.881 -0.4928  0.1006  0.3768
15946TIP3    H169253   5.522   1.499   2.813  1.5083  2.7539  1.7260
15946TIP3    H269254   5.385   1.559   2.838  0.4483  1.1784  0.0269
15947TIP3   OH269255   5.857   1.372   3.523 -0.4157  0.0021 -0.0758
15947TIP3    H169256   5.949   1.371   3.495  0.0840 -0.4910  1.4309
15947TIP3    H269257   5.815   1.437   3.467  0.8420  0.2054 -0.8314
15948TIP3   OH269258   1.201   6.500  16.367 -0.3093  0.5849  0.2707
15948TIP3    H169259   1.161   6.510  16.454 -0.1424 -0.6994  0.5114
15948TIP3    H269260   1.170   6.416  16.335 -0.5266  1.1299 -1.0278
15949TIP3   OH269261   2.623   4.234  12.111  0.1100  0.2470  0.5705
15949TIP3    H169262   2.688   4.276  12.166 -1.3313  1.8258  1.1661
15949TIP3    H269263   2.593   4.303  12.052 -0.2251 -0.7403 -0.4443
15950TIP3   OH269264   6.408   1.300   6.434 -0.5268 -0.3101 -0.5447
15950TIP3    H169265   6.351   1.369   6.468  0.1728  0.5463 -1.0475
15950TIP3    H269266   6.467   1.346   6.374  0.8010 -1.1175  0.0957
15951TIP3   OH269267   0.282   0.329  14.205 -0.0743  0.1605  0.1381
15951TIP3    H169268   0.285   0.420  14.233  1.4175 -0.1815  1.1967
15951TIP3    H269269   0.194   0.299  14.230 -0.7852  1.4339 -0.7362
15952TIP3   OH269270   2.161   5.222   4.878  0.1116  0.3006 -0.5012
15952TIP3    H169271   2.142   5.160   4.808 -0.3202  0.6037 -0.6551
15952TIP3    H269272   2.080   5.271   4.891 -0.7022 -1.4904  2.0027
15953TIP3   OH269273   5.777   5.210  12.156  0.1595 -0.3813 -0.0728
15953TIP3    H169274   5.857   5.218  12.105  1.1867 -1.0442  1.3509
15953TIP3    H269275   5.798   5.252  12.240 -1.0657 -0.3496  0.2386
15954TIP3   OH269276   1.033   2.852  16.459 -0.5499 -0.0315 -0.0156
15954TIP3    H169277   0.990   2.938  16.454 -1.8415 -0.6915 -0.4875
15954TIP3    H269278   0.996   2.802  16.387 -0.7718 -1.4238  1.0362
15955TIP3   OH269279   4.012   1.058   4.039  0.4496 -0.6566 -0.3780
15955TIP3    H169280   3.986   0.986   4.096  2.7704 -1.2739 -0.0188
15955TIP3    H269281   4.088   1.096   4.081 -0.1518  1.4550 -1.0527
15956TIP3   OH269282   0.990   3.767  15.250 -0.6762  0.5131  0.0999
15956TIP3    H169283   1.009   3.673  15.247  1.2009  0.8766 -0.8995
15956TIP3    H269284   0.939   3.778  15.330  0.0730 -1.1942  0.8648
15957TIP3   OH269285   4.972   3.848   2.505  0.1822 -1.0588 -0.0214
15957TIP3    H169286   4.968   3.761   2.464 -0.6573 -0.9892 -0.0935
15957TIP3    H269287   4.883   3.865   2.535 -0.1797  0.6970 -1.8891
15958TIP3   OH269288   2.188   5.844   5.214  0.2588 -0.1734  0.2250
15958TIP3    H169289   2.282   5.862   5.217  0.3268 -0.5975  0.8065
15958TIP3    H269290   2.153   5.906   5.150  0.5728  1.6037  1.6968
15959TIP3   OH269291   2.553   2.938   3.695  0.0544  0.2624 -0.4908
15959TIP3    H169292   2.621   2.911   3.633  0.4619  0.5608 -0.1802
15959TIP3    H269293   2.505   2.857   3.714  0.2569  0.0675 -0.7917
15960TIP3   OH269294   2.296   2.143  13.956 -0.1799 -0.4644  0.1621
15960TIP3    H169295   2.262   2.136  14.045 -1.2694 -3.1113 -0.3701
15960TIP3    H269296   2.223   2.178  13.905  0.4502  1.0733  0.2501
15961TIP3   OH269297   6.179   5.549  12.721  0.2432  0.1046 -0.2857
15961TIP3    H169298   6.257   5.499  12.695 -0.6241 -1.8587  0.6730
15961TIP3    H269299   6.188   5.560  12.816 -1.3436 -1.5711  0.1224
15962TIP3   OH269300   0.512   1.388   1.871  0.0486 -0.3822  0.4882
15962TIP3    H169301   0.498   1.481   1.854  0.4824 -0.2236  1.0107
15962TIP3    H269302   0.504   1.378   1.965  1.1955 -0.6694  0.5719
15963TIP3   OH269303   4.637   6.095  12.616  0.5977  0.5241  0.0927
15963TIP3    H169304   4.617   6.029  12.549 -0.4639 -0.0054  0.9066
15963TIP3    H269305   4.732   6.095  12.621  0.6250 -1.3201  0.4146
15964TIP3   OH269306   2.882   2.890  15.132 -0.6329  0.4873 -0.2877
15964TIP3    H169307   2.873   2.968  15.186 -0.2338  1.1698 -1.1852
15964TIP3    H269308   2.904   2.820  15.194  0.1191  1.3130  0.4015
15965TIP3   OH269309   6.474   1.446  16.428 -0.4245 -0.1984 -0.1747
15965TIP3    H169310   6.547   1.436  16.367 -0.0955 -0.8492  0.3121
15965TIP3    H269311   6.439   1.533  16.410  0.5989  0.2029 -0.2779
15966TIP3   OH269312   5.005   6.436   6.710  0.0372 -0.2670  0.0008
15966TIP3    H169313   4.960   6.357   6.678  0.5146 -1.1291  1.3639
15966TIP3    H269314   5.078   6.449   6.649 -0.3332 -0.5816 -0.5188
15967TIP3   OH269315   3.980   1.659   2.435  0.1748 -0.5031 -0.1534
15967TIP3    H169316   3.943   1.728   2.489  0.2464  1.2356 -2.2071
15967TIP3    H269317   4.033   1.705   2.369  2.7260 -2.6699  0.2095
15968TIP3   OH269318   0.191   2.105  15.462 -0.8937  0.1154 -0.2527
15968TIP3    H169319   0.195   2.010  15.461 -1.4222 -0.0272  2.8854
15968TIP3    H269320   0.278   2.133  15.435 -0.2550 -1.3036  0.2677
15969TIP3   OH269321   2.935   2.310  13.990 -0.1283  0.4815 -0.3110
15969TIP3    H169322   2.841   2.332  13.987 -0.3125 -0.3645 -1.7893
15969TIP3    H269323   2.968   2.336  13.904  1.0408  0.8743  0.2370
15970TIP3   OH269324   4.434   6.440  11.084  0.1044  0.3112  0.5579
15970TIP3    H169325   4.521   6.480  11.076 -0.1466  1.0268  1.2659
15970TIP3    H269326   4.439   6.361  11.030  2.2335 -1.4094  3.0342
15971TIP3   OH269327   2.760   3.330   5.616 -0.2511 -0.3495 -0.0310
15971TIP3    H169328   2.853   3.327   5.596 -0.3436 -0.8094 -0.4141
15971TIP3    H269329   2.753   3.389   5.690  0.3470 -0.3240  0.0079
15972TIP3   OH269330   5.934   6.615  13.190 -0.2530 -0.3045  0.7100
15972TIP3    H169331   5.905   6.706  13.197  1.4179  0.2247  1.0651
15972TIP3    H269332   5.904   6.575  13.271 -0.0186  0.2237  1.0666
15973TIP3   OH269333   1.386   2.971   1.222  0.1138 -0.2944 -0.5712
15973TIP3    H169334   1.474   2.984   1.186  0.3786 -0.0795  0.1386
15973TIP3    H269335   1.354   3.060   1.239  0.4568 -0.4065  0.7956
15974TIP3   OH269336   2.300   4.548  12.739  0.1969  0.1232  0.1205
15974TIP3    H169337   2.303   4.555  12.644  0.1584  0.0447  0.1131
15974TIP3    H269338   2.223   4.493  12.756 -0.6965  1.3824  0.2606
15975TIP3   OH269339   1.502   0.453   2.322  0.2615 -0.0993 -0.1678
15975TIP3    H169340   1.516   0.445   2.228  0.9257  1.3524 -0.2278
15975TIP3    H269341   1.472   0.367   2.350 -0.3623 -0.4429 -1.7749
15976TIP3   OH269342   4.802   2.220   0.319 -0.3441 -0.5986  0.1075
15976TIP3    H169343   4.874   2.157   0.325  1.1642  0.9075 -1.1255
15976TIP3    H269344   4.828   2.291   0.378 -0.8231 -0.0433 -0.3376
15977TIP3   OH269345   4.568   0.101  15.109  0.3018  0.1724 -0.4075
15977TIP3    H169346   4.497   0.075  15.167 -0.1063  0.0640 -0.9435
15977TIP3    H269347   4.525   0.154  15.041  0.7012 -0.0559 -0.8408
15978TIP3   OH269348   4.539   2.226  11.398  0.5458  0.0710  0.3919
15978TIP3    H169349   4.486   2.235  11.318  0.1085 -0.3566  0.6262
15978TIP3    H269350   4.606   2.162  11.374 -0.8822 -1.7569  0.9862
15979TIP3   OH269351   0.554   0.225   2.242  0.1954 -0.2322 -0.1554
15979TIP3    H169352   0.641   0.202   2.211 -0.5675 -1.7805 -1.2973
15979TIP3    H269353   0.562   0.227   2.338  1.5995  0.2378 -0.2694
15980TIP3   OH269354   2.419   3.576   3.661 -0.1776 -0.1912  0.2697
15980TIP3    H169355   2.482   3.602   3.593  0.4631 -1.0695  0.5119
15980TIP3    H269356   2.457   3.608   3.742 -0.9846  0.9285  0.2312
15981TIP3   OH269357   1.384   5.878   0.967 -0.3333  0.2059 -0.7792
15981TIP3    H169358   1.352   5.939   0.899 -1.3776 -1.0540 -1.4645
15981TIP3    H269359   1.354   5.792   0.938 -0.0976 -0.4752  0.8939
15982TIP3   OH269360   5.989   3.076  11.711  0.1096 -0.5787  0.4687
15982TIP3    H169361   5.898   3.062  11.682  0.0973 -1.8090  1.0419
15982TIP3    H269362   6.005   3.005  11.773  1.1910  0.1390  1.0299
15983TIP3   OH269363   3.857   2.349   3.784  0.1178  0.0167  0.4380
15983TIP3    H169364   3.835   2.357   3.877  0.2747  0.1223  0.4662
15983TIP3    H269365   3.939   2.299   3.783 -0.5470 -1.1237  0.2935
15984TIP3   OH269366   5.141   0.017  16.612  0.2126 -0.0625  0.0755
15984TIP3    H169367   5.050  -0.002  16.589  0.0230  1.0227 -0.1193
15984TIP3    H269368   5.152  -0.020  16.699 -0.5453  0.1899  0.2851
15985TIP3   OH269369   0.504   1.254   5.995 -0.3735  0.5564  0.3098
15985TIP3    H169370   0.587   1.211   5.973  0.5150  1.7694  1.1757
15985TIP3    H269371   0.439   1.184   5.990  0.6232 -0.3390 -0.7956
15986TIP3   OH269372   3.431   0.930  10.605  0.4257 -0.1699 -0.5596
15986TIP3    H169373   3.390   0.999  10.554  2.5147 -0.8291 -3.4161
15986TIP3    H269374   3.362   0.866  10.619 -0.5470  0.6578 -1.4369
15987TIP3   OH269375   5.988   4.479   1.446  0.1115 -1.0036  0.4627
15987TIP3    H169376   5.905   4.488   1.399 -0.5250  2.0311  1.8857
15987TIP3    H269377   6.054   4.467   1.377 -1.0976  0.4549 -1.0373
15988TIP3   OH269378   4.919   3.710  12.130  0.2404 -0.5104  0.2596
15988TIP3    H169379   4.997   3.658  12.149  0.5683 -0.0901  0.0606
15988TIP3    H269380   4.946   3.801  12.143 -0.2938 -0.3746  0.4727
15989TIP3   OH269381   3.207   0.259  11.624  0.5954 -0.3496 -0.5012
15989TIP3    H169382   3.247   0.259  11.537 -1.1803 -0.0052 -1.3572
15989TIP3    H269383   3.116   0.282  11.609  0.4979  0.9062  1.5947
15990TIP3   OH269384   4.429   3.144   2.788 -0.0636  0.0806 -0.1329
15990TIP3    H169385   4.387   3.076   2.735 -2.1863  2.1936 -1.3097
15990TIP3    H269386   4.446   3.101   2.872 -2.2531 -1.6483 -0.4768
15991TIP3   OH269387   3.434   0.919  11.064 -0.1887 -0.2187  0.0546
15991TIP3    H169388   3.443   0.839  11.011 -1.7523 -0.5282  0.2162
15991TIP3    H269389   3.393   0.889  11.144 -0.6691  0.7456  0.1727
15992TIP3   OH269390   1.603   3.932  16.605  0.1195  0.0146  0.1188
15992TIP3    H169391   1.510   3.936  16.583 -0.2475  0.2825  1.5936
15992TIP3    H269392   1.631   3.845  16.577 -1.0415 -0.7712  1.2775
15993TIP3   OH269393   3.622   2.880   2.382  0.1849  0.2147  0.1292
15993TIP3    H169394   3.566   2.947   2.420 -0.9121  0.5928 -1.9777
15993TIP3    H269395   3.696   2.928   2.345 -0.0441  0.1654 -0.4087
15994TIP3   OH269396   2.173   1.436   5.215  0.0169 -0.0939 -0.1454
15994TIP3    H169397   2.082   1.443   5.186 -0.3445 -1.0606  0.7045
15994TIP3    H269398   2.182   1.506   5.280  0.4740  1.2684 -1.6017
15995TIP3   OH269399   1.968   2.448  15.302  0.5221  0.5424  0.5401
15995TIP3    H169400   2.003   2.445  15.213  0.4557 -0.4541  0.5388
15995TIP3    H269401   2.045   2.456  15.358  0.7301 -1.0874  0.5088
15996TIP3   OH269402   0.253   0.421   3.024  0.3042 -0.4906 -0.1056
15996TIP3    H169403   0.254   0.332   3.059  1.9611 -0.4851 -0.0786
15996TIP3    H269404   0.345   0.448   3.023 -0.3254  2.4217  2.9089
15997TIP3   OH269405   0.186   3.431   3.146  0.1691  0.0362  0.4513
15997TIP3    H169406   0.213   3.339   3.143  2.2332  0.5964  0.2961
15997TIP3    H269407   0.238   3.469   3.216  2.3783  1.9099 -2.0027
15998TIP3   OH269408   5.048   3.769  15.154 -0.6073 -0.2418 -0.0366
15998TIP3    H169409   4.962   3.810  15.163 -1.5507 -2.1411  0.1233
15998TIP3    H269410   5.060   3.758  15.060  0.1398  1.2897 -0.1564
15999TIP3   OH269411   5.972   4.290  13.431 -0.2508 -0.2146  0.1827
15999TIP3    H169412   5.934   4.205  13.407 -0.1503  0.1287 -1.2833
15999TIP3    H269413   5.901   4.336  13.476 -0.5551 -0.7642  0.2738
16000TIP3   OH269414   2.008   5.530  16.637 -0.0816  0.2541 -0.0130
16000TIP3    H169415   1.994   5.594  16.706  1.5738  0.2257  0.3905
16000TIP3    H269416   1.951   5.558  16.565  2.2561  3.6012 -0.7754
16001TIP3   OH269417   5.347   3.158  13.174  0.3028 -0.2408  0.3742
16001TIP3    H169418   5.393   3.110  13.243  1.5610  0.8235  0.3224
16001TIP3    H269419   5.352   3.101  13.097 -0.9794 -1.3695  1.0875
16002TIP3   OH269420   2.966   5.857  17.273 -0.3924 -0.8233 -0.4011
16002TIP3    H169421   2.899   5.798  17.237 -0.4639 -0.2741 -1.1916
16002TIP3    H269422   3.025   5.874  17.200 -1.4587  1.6323 -0.7820
16003TIP3   OH269423   6.551   6.572  12.766 -0.1182  0.4629 -0.0430
16003TIP3    H169424   6.512   6.553  12.680 -0.5384 -0.0539  0.2586
16003TIP3    H269425   6.502   6.648  12.797  0.9150  1.4876 -0.8231
16004TIP3   OH269426   3.499   4.079   4.861 -0.3145  0.5143  0.2187
16004TIP3    H169427   3.539   4.050   4.779 -0.8908  0.4716 -0.0516
16004TIP3    H269428   3.573   4.092   4.921 -0.0351 -2.8073  0.8083
16005TIP3   OH269429   5.970   0.029  12.362 -0.3387  0.3050  0.3442
16005TIP3    H169430   5.993   0.002  12.273 -2.3843 -0.4524 -0.0164
16005TIP3    H269431   6.047   0.006  12.415 -0.1799 -2.0060 -0.7456
16006TIP3   OH269432   0.539   3.654  14.160  0.2553 -0.5424 -0.3018
16006TIP3    H169433   0.481   3.608  14.220  0.5187 -0.3714  0.0852
16006TIP3    H269434   0.500   3.741  14.151  0.2747 -0.5333 -0.2971
16007TIP3   OH269435   1.814   4.142  16.462  0.2925  0.0336  0.2313
16007TIP3    H169436   1.761   4.182  16.394  1.3536 -0.1091 -0.7098
16007TIP3    H269437   1.775   4.172  16.544 -1.8047 -0.8442 -0.3972
16008TIP3   OH269438   5.383   4.910   5.415 -0.2080 -0.0585  0.1344
16008TIP3    H169439   5.439   4.924   5.492  0.5881  3.1534 -0.8682
16008TIP3    H269440   5.299   4.947   5.440 -0.2432  0.0852 -0.2009
16009TIP3   OH269441   6.275   2.740   4.367  0.5045 -0.2355 -0.0206
16009TIP3    H169442   6.370   2.736   4.376  0.4469 -1.1726  0.2796
16009TIP3    H269443   6.244   2.657   4.404 -0.5844  0.9973  2.0131
16010TIP3   OH269444   0.543   2.959  11.889  0.3156  0.3459  0.4702
16010TIP3    H169445   0.517   2.936  11.800  0.2807  0.4392  0.4561
16010TIP3    H269446   0.518   3.051  11.898  3.7528  1.5628 -0.7625
16011TIP3   OH269447   1.021   2.578   2.175 -0.0499 -0.2518 -0.1500
16011TIP3    H169448   1.027   2.588   2.270  1.7729 -2.3320  0.0395
16011TIP3    H269449   0.928   2.588   2.155 -0.4668  0.2583  1.8237
16012TIP3   OH269450   4.302   0.549  15.739  0.2631  0.0297 -0.3732
16012TIP3    H169451   4.308   0.536  15.645  2.6393  0.0307 -0.2785
16012TIP3    H269452   4.335   0.637  15.753  2.1783 -0.8019  0.6372
16013TIP3   OH269453   4.046   5.951  14.141 -0.7510 -0.3676  0.2354
16013TIP3    H169454   3.997   6.029  14.117 -1.0584 -1.0343 -1.5081
16013TIP3    H269455   4.071   5.912  14.057  1.3455 -0.9519  1.0539
16014TIP3   OH269456   1.447   2.426  11.003  0.1181  0.0640 -0.1442
16014TIP3    H169457   1.517   2.361  10.991 -0.2630  0.0047 -2.7236
16014TIP3    H269458   1.479   2.504  10.958 -1.3665  0.0782 -1.2673
16015TIP3   OH269459   5.280   4.477   1.429  0.2613  0.2740 -0.6041
16015TIP3    H169460   5.303   4.569   1.417 -0.2594  0.6403  0.9605
16015TIP3    H269461   5.187   4.472   1.408 -0.0796  0.4381  0.7825
16016TIP3   OH269462   1.403   5.394  13.457  0.0957  0.1171 -0.4714
16016TIP3    H169463   1.320   5.403  13.504 -0.3744  0.3268 -1.3111
16016TIP3    H269464   1.455   5.334  13.510 -1.1828 -1.2278 -0.7086
16017TIP3   OH269465   5.936   1.321   1.886 -0.5941  0.5442  0.4652
16017TIP3    H169466   5.944   1.236   1.843 -1.2802 -0.4572  2.1984
16017TIP3    H269467   5.874   1.305   1.958 -0.8490  2.5500  0.7397
16018TIP3   OH269468   3.017   5.658  12.896  0.2985  0.0873 -0.5935
16018TIP3    H169469   3.085   5.618  12.841 -0.5812  0.7059 -2.2152
16018TIP3    H269470   2.935   5.624  12.861 -0.2955  0.6665  0.2080
16019TIP3   OH269471   6.032   1.966   2.260 -0.2935 -0.7422  0.1145
16019TIP3    H169472   6.061   1.880   2.229 -1.4611 -1.4403  0.9185
16019TIP3    H269473   5.990   2.006   2.183  0.4780 -0.7776 -0.3306
16020TIP3   OH269474   6.336   6.333  11.852  0.3815  0.5819  0.2046
16020TIP3    H169475   6.412   6.299  11.804  1.4071  3.0446 -0.0765
16020TIP3    H269476   6.271   6.350  11.783 -1.1032 -2.8268  0.5746
16021TIP3   OH269477   4.630   1.092   3.427 -0.8681  0.0816  0.2958
16021TIP3    H169478   4.552   1.084   3.372  1.3734 -0.6589 -3.0714
16021TIP3    H269479   4.681   1.163   3.386  0.7620 -0.2312  1.6734
16022TIP3   OH269480   3.826   3.115  12.420 -0.0062 -0.1424 -1.0880
16022TIP3    H169481   3.762   3.052  12.452  0.5379 -0.8884 -1.4217
16022TIP3    H269482   3.777   3.197  12.410 -0.3582 -0.0446  0.9617
16023TIP3   OH269483   0.869   6.422   1.728 -0.7864 -0.0923 -0.1923
16023TIP3    H169484   0.837   6.333   1.737  0.5131 -0.5423  0.1995
16023TIP3    H269485   0.942   6.415   1.666 -1.3486  0.8846 -1.0052
16024TIP3   OH269486   4.575   4.455   4.652 -0.2397  0.1071 -0.2712
16024TIP3    H169487   4.543   4.433   4.740  0.3636 -1.1424 -0.3388
16024TIP3    H269488   4.659   4.500   4.668  0.0933 -0.5251 -0.2094
16025TIP3   OH269489   6.648   1.716  11.015  0.0648 -0.3331 -0.2579
16025TIP3    H169490   6.734   1.756  11.022  1.0166 -2.2871 -0.0939
16025TIP3    H269491   6.630   1.711  10.921  0.2918 -0.2187 -0.3051
16026TIP3   OH269492   1.907   4.941   4.256  0.3836 -0.4808 -0.4820
16026TIP3    H169493   1.887   4.852   4.285  2.6112 -0.9599 -0.1962
16026TIP3    H269494   1.822   4.980   4.236 -0.8515 -1.8991  1.5729
16027TIP3   OH269495   0.086   1.375  15.689  0.3606  0.3739  0.0309
16027TIP3    H169496   0.036   1.353  15.610 -0.4525  0.8258  0.3967
16027TIP3    H269497   0.168   1.326  15.681  0.3710  0.5650 -1.1788
16028TIP3   OH269498   4.924   4.858   5.341  0.3163 -0.4532  0.3633
16028TIP3    H169499   4.935   4.792   5.273  0.1157 -3.3642  2.9549
16028TIP3    H269500   5.012   4.892   5.357  0.8834 -2.0863  0.8235
16029TIP3   OH269501   0.741   3.297  15.376  0.3236 -0.1514 -0.1291
16029TIP3    H169502   0.758   3.219  15.428 -0.0321  0.3819  0.8001
16029TIP3    H269503   0.657   3.329  15.407  0.6455  0.8231 -0.2377
16030TIP3   OH269504   0.755   0.949  16.869  0.4761 -0.2905  0.6573
16030TIP3    H169505   0.829   0.894  16.894  0.2302 -0.9249  0.0299
16030TIP3    H269506   0.766   1.029  16.920  1.6870 -0.3001  0.4459
16031TIP3   OH269507   0.956   4.627  14.081  0.0685 -0.5442 -0.4868
16031TIP3    H169508   0.866   4.630  14.114  0.1994  0.4542 -0.1856
16031TIP3    H269509   1.011   4.632  14.159  0.3883  2.5802 -0.7998
16032TIP3   OH269510   0.319   2.085  16.348  0.2996 -0.0728  0.4100
16032TIP3    H169511   0.363   2.018  16.401 -0.2872 -0.4731  0.3899
16032TIP3    H269512   0.327   2.054  16.258  0.7986  0.3282  0.3069
16033TIP3   OH269513   6.044   4.269  15.827  0.4636  0.2152 -0.4487
16033TIP3    H169514   5.973   4.305  15.774  1.1949  0.1954 -1.4767
16033TIP3    H269515   6.122   4.313  15.795  1.4786 -2.5425 -2.0852
16034TIP3   OH269516   1.578   4.843  16.661  0.0551  0.2298  0.0195
16034TIP3    H169517   1.646   4.867  16.598 -1.1517  2.0913 -0.6704
16034TIP3    H269518   1.597   4.753  16.684  2.0043  0.3021 -1.1141
16035TIP3   OH269519   0.309   2.401   2.629  0.3527  0.4598  0.5579
16035TIP3    H169520   0.308   2.370   2.538  0.1651 -0.1882  0.7718
16035TIP3    H269521   0.233   2.359   2.669  0.3690  0.8349  0.9852
16036TIP3   OH269522   2.961   0.903  15.804  0.2016 -0.3974 -0.2179
16036TIP3    H169523   3.028   0.877  15.868 -0.7383  1.1712  1.4953
16036TIP3    H269524   2.897   0.831  15.807 -1.9449  1.3662  3.8439
16037TIP3   OH269525   4.252   1.720  15.336 -0.4683 -0.0652 -0.3102
16037TIP3    H169526   4.212   1.699  15.421 -2.5945  0.6323 -1.0550
16037TIP3    H269527   4.177   1.723  15.276  1.0600 -1.2578 -2.3739
16038TIP3   OH269528   6.270   5.890   0.977 -0.1482  0.1456  0.3286
16038TIP3    H169529   6.365   5.890   0.992 -0.1775  2.5227  1.0359
16038TIP3    H269530   6.235   5.834   1.045  0.7675 -1.6786 -0.6136
16039TIP3   OH269531   6.474   1.103  14.667 -0.5057 -0.5113  0.2334
16039TIP3    H169532   6.492   1.195  14.687 -2.6465  0.2206 -0.8366
16039TIP3    H269533   6.497   1.057  14.748  0.2760  0.9981  0.9301
16040TIP3   OH269534   1.589   0.686  13.372  0.3641 -0.5529 -0.1914
16040TIP3    H169535   1.529   0.750  13.410  3.3391  1.6020  1.2945
16040TIP3    H269536   1.644   0.737  13.312  2.7039 -1.6285  0.8844
16041TIP3   OH269537   5.979   6.187   0.823 -0.0414  0.2112 -0.4548
16041TIP3    H169538   6.030   6.112   0.852 -0.3707  0.4947  0.9235
16041TIP3    H269539   6.039   6.236   0.766  1.1121  0.3408  0.8273
16042TIP3   OH269540   1.915   3.034   1.836  0.3288 -0.0218  0.3485
16042TIP3    H169541   1.936   3.121   1.871 -0.3069  0.0729  0.4998
16042TIP3    H269542   1.836   3.047   1.785 -1.6396 -1.0622  2.9235
16043TIP3   OH269543   5.867   0.506   4.409 -0.0664  0.5884  0.2216
16043TIP3    H169544   5.889   0.558   4.332  0.0921  1.8534  1.0775
16043TIP3    H269545   5.936   0.441   4.416 -1.1516 -0.8925 -1.8355
16044TIP3   OH269546   5.220   6.399  15.745  0.2191 -0.1248 -0.6384
16044TIP3    H169547   5.150   6.355  15.793  0.0629 -0.0763 -0.8175
16044TIP3    H269548   5.176   6.433  15.667  0.2198  0.8206 -0.2354
16045TIP3   OH269549   4.344   0.011  12.375 -0.1255 -0.2300  0.3464
16045TIP3    H169550   4.314  -0.006  12.465 -2.6709  0.0132 -0.4057
16045TIP3    H269551   4.320  -0.068  12.326  1.1115 -0.2961 -0.2001
16046TIP3   OH269552   4.947   6.460   1.281 -0.2046  0.7468  0.0176
16046TIP3    H169553   4.913   6.512   1.208  0.4281 -0.0983 -0.8975
16046TIP3    H269554   5.038   6.442   1.258 -0.5688 -1.3010 -0.0308
16047TIP3   OH269555   0.472   2.460  11.991 -0.0712 -0.0263 -0.5737
16047TIP3    H169556   0.448   2.378  11.948 -0.2513 -0.8521  1.0345
16047TIP3    H269557   0.388   2.498  12.020  0.1361 -0.2077  0.2934
16048TIP3   OH269558   6.028   2.385   3.215 -0.0178 -0.0069 -0.2098
16048TIP3    H169559   6.062   2.406   3.302 -2.1467  2.2681  0.1623
16048TIP3    H269560   6.084   2.434   3.155  1.9934 -2.2412 -0.2891
16049TIP3   OH269561   0.793   4.236   4.645 -0.0482  0.1742  0.2308
16049TIP3    H169562   0.802   4.164   4.707  0.1890 -1.9931 -2.1212
16049TIP3    H269563   0.782   4.192   4.560 -1.4250  2.9441 -1.1328
16050TIP3   OH269564   6.497   6.396  10.924 -0.0337  0.2073  0.2348
16050TIP3    H169565   6.431   6.465  10.914  0.3440  0.8528  1.8947
16050TIP3    H269566   6.453   6.328  10.973  0.3447  0.3657  0.7963
16051TIP3   OH269567   4.519   6.214  13.912  0.6124 -0.0777  0.2370
16051TIP3    H169568   4.523   6.130  13.866 -1.0109 -1.9414  3.1248
16051TIP3    H269569   4.445   6.260  13.871  1.2127 -0.2273 -1.0634
16052TIP3   OH269570   2.324   6.257   4.542 -0.6006 -0.0683  0.3455
16052TIP3    H169571   2.335   6.296   4.629  0.5862  0.6715 -0.0995
16052TIP3    H269572   2.404   6.282   4.495 -1.9919  1.1070 -1.5535
16053TIP3   OH269573   6.771   4.369  16.341  0.2319  0.5930 -0.1821
16053TIP3    H169574   6.691   4.372  16.394  0.2937 -0.1705 -0.0342
16053TIP3    H269575   6.760   4.440  16.277 -1.0534 -0.1437 -0.8286
16054TIP3   OH269576   3.699   2.467  10.857  0.4280  0.2926 -1.0239
16054TIP3    H169577   3.612   2.453  10.820  0.1935 -0.1723 -0.3242
16054TIP3    H269578   3.751   2.391  10.828  0.5539  0.4868 -1.3065
16055TIP3   OH269579   4.360   1.227   4.506 -0.0263 -0.5801  0.4196
16055TIP3    H169580   4.400   1.263   4.427 -0.5536 -0.8182  0.0393
16055TIP3    H269581   4.400   1.140   4.515 -0.2474 -0.7049  0.2000
16056TIP3   OH269582   3.735   6.662   6.913  0.4670 -0.1241  0.0332
16056TIP3    H169583   3.790   6.594   6.873  1.9499  1.6960 -1.1816
16056TIP3    H269584   3.672   6.685   6.845  1.3932  1.2294 -0.4012
16057TIP3   OH269585   6.347   3.336   0.591 -0.5321  0.1288 -0.1916
16057TIP3    H169586   6.440   3.333   0.565 -0.7995 -0.6544 -1.1086
16057TIP3    H269587   6.342   3.411   0.650  0.4767  0.8963 -1.0255
16058TIP3   OH269588   4.930   0.944   2.887 -0.1504  0.4626 -0.4533
16058TIP3    H169589   4.879   0.955   2.806  1.2858  1.2181 -1.2831
16058TIP3    H269590   4.945   0.849   2.892  0.2078  0.4594 -1.3791
16059TIP3   OH269591   1.856   0.135  15.390  0.2491  0.1905  0.1249
16059TIP3    H169592   1.948   0.137  15.418  0.1072 -0.6243  0.6903
16059TIP3    H269593   1.853   0.192  15.313  1.3923 -0.3842 -0.3722
16060TIP3   OH269594   1.610   4.706  13.165  0.6454  0.2863  0.4691
16060TIP3    H169595   1.547   4.759  13.116  0.7478  1.4864  1.5547
16060TIP3    H269596   1.696   4.740  13.139  0.7098  0.7488  1.2411
16061TIP3   OH269597   4.982   2.209   2.621 -0.8827 -0.0637 -0.0592
16061TIP3    H169598   4.964   2.144   2.553 -0.6104 -0.7814  0.5436
16061TIP3    H269599   5.075   2.229   2.611 -0.6762 -0.6845  0.5266
16062TIP3   OH269600   6.256   4.204   2.513 -0.4266 -0.4381  0.6564
16062TIP3    H169601   6.229   4.278   2.568 -2.7191 -0.7315  0.0238
16062TIP3    H269602   6.175   4.170   2.477  0.8458 -1.4177 -1.4697
16063TIP3   OH269603   3.621   0.361  14.674 -0.0392 -0.2405 -0.4144
16063TIP3    H169604   3.564   0.284  14.672  0.4604 -0.6180 -0.6068
16063TIP3    H269605   3.564   0.434  14.653 -0.5228 -0.5624 -0.2379
16064TIP3   OH269606   4.570   3.707   5.805  0.5261  0.0911 -0.7503
16064TIP3    H169607   4.645   3.702   5.864  0.4395 -1.2412 -0.7327
16064TIP3    H269608   4.519   3.782   5.837  1.7894  0.9724 -0.7239
16065TIP3   OH269609   0.038   4.993   0.865  0.9187 -0.0804 -0.1715
16065TIP3    H169610   0.100   5.043   0.812  0.5762  0.8962  0.3177
16065TIP3    H269611   0.044   5.032   0.952  2.5580 -2.6049  0.9639
16066TIP3   OH269612   1.165   5.878  11.771  0.1125  0.3733  0.2189
16066TIP3    H169613   1.131   5.926  11.847  0.9117 -0.7646  1.3534
16066TIP3    H269614   1.232   5.935  11.735  0.5042  0.4768  1.0690
16067TIP3   OH269615   3.974   4.088   0.963 -0.5383  0.8816  0.1572
16067TIP3    H169616   3.902   4.081   0.899 -0.8652  0.2075  0.5932
16067TIP3    H269617   3.954   4.022   1.029  0.4255  0.7769  0.3515
16068TIP3   OH269618   3.676   0.593  12.081  0.3250 -0.1155 -0.5811
16068TIP3    H169619   3.738   0.529  12.048 -0.9720 -1.9052  0.2575
16068TIP3    H269620   3.590   0.557  12.058 -0.4678  2.5953 -2.2836
16069TIP3   OH269621   0.811   3.288   3.669 -0.8176 -0.7264  0.5342
16069TIP3    H169622   0.905   3.270   3.660 -0.4059  1.0557  0.8520
16069TIP3    H269623   0.801   3.318   3.759 -1.6914 -0.8390  0.4795
16070TIP3   OH269624   4.064   4.718  13.727  0.4396 -0.2613  0.6217
16070TIP3    H169625   4.085   4.634  13.686 -1.3229 -0.3072 -0.2628
16070TIP3    H269626   4.064   4.781  13.655  2.9393  0.8067  1.4363
16071TIP3   OH269627   0.723   1.998   4.413 -0.2046  0.1888  0.5162
16071TIP3    H169628   0.717   1.909   4.379  0.5133 -0.1383  1.2004
16071TIP3    H269629   0.807   2.031   4.380 -1.0661  1.1221 -0.8573
16072TIP3   OH269630   3.911   2.009  13.370 -0.2474 -1.0254  0.0003
16072TIP3    H169631   3.974   2.080  13.353  0.6161 -1.5806  0.7468
16072TIP3    H269632   3.827   2.053  13.379 -0.1271 -0.3446 -1.8354
16073TIP3   OH269633   6.402   2.156  16.601 -0.1601 -0.2511 -0.0738
16073TIP3    H169634   6.407   2.193  16.513 -0.6901  1.0352  0.4065
16073TIP3    H269635   6.493   2.136  16.624 -0.1259 -1.6442 -1.3213
16074TIP3   OH269636   0.801   4.784  12.130  0.5336  0.1270 -0.3283
16074TIP3    H169637   0.708   4.802  12.142  0.6997 -0.1041  1.5956
16074TIP3    H269638   0.805   4.688  12.123  0.6598  0.1168 -0.1040
16075TIP3   OH269639   0.698   4.251  15.072  0.5755  0.8598  0.0461
16075TIP3    H169640   0.631   4.184  15.057  1.5889  0.0833 -1.2977
16075TIP3    H269641   0.692   4.308  14.995  0.4723  1.6597  0.6381
16076TIP3   OH269642   6.740   5.212   1.626  0.1082  0.0261 -0.0791
16076TIP3    H169643   6.726   5.280   1.560 -2.0149  0.1678  0.4521
16076TIP3    H269644   6.834   5.197   1.624  0.2457  0.6654 -2.4955
16077TIP3   OH269645   5.096   4.218  15.656 -0.4859  0.1380  0.5244
16077TIP3    H169646   5.092   4.123  15.651  1.2586  0.0497 -0.1551
16077TIP3    H269647   5.190   4.238  15.649 -0.8110  1.8989  0.7091
16078TIP3   OH269648   4.453   5.584  15.566 -0.4461  0.5505  0.0334
16078TIP3    H169649   4.374   5.539  15.594 -0.3091 -0.8343 -1.6295
16078TIP3    H269650   4.524   5.543  15.616 -0.6035  0.7119  0.3910
16079TIP3   OH269651   4.536   6.105  13.284 -0.9326 -0.3931 -0.1151
16079TIP3    H169652   4.525   6.191  13.242 -3.6556 -1.1771 -1.2393
16079TIP3    H269653   4.467   6.102  13.350 -0.7533 -1.6608  0.0309
16080TIP3   OH269654   0.278   0.533  12.249  0.0884  0.4264  0.3491
16080TIP3    H169655   0.188   0.539  12.219  0.1254 -0.7595 -0.0314
16080TIP3    H269656   0.325   0.598  12.197  0.1850 -1.6324 -2.3687
16081TIP3   OH269657   0.707   6.736  11.694 -0.0446 -0.0151  0.2125
16081TIP3    H169658   0.714   6.831  11.685 -1.0897  0.4362  3.1980
16081TIP3    H269659   0.722   6.703  11.605  2.6248  2.7380 -0.5193
16082TIP3   OH269660   3.244   4.407   3.772 -0.3785 -0.2766 -0.2507
16082TIP3    H169661   3.286   4.485   3.736  0.8300 -1.0464 -0.5578
16082TIP3    H269662   3.155   4.436   3.794 -0.7490  0.6011 -2.5623
16083TIP3   OH269663   1.945   3.276   2.688 -0.1449  0.2043 -0.4467
16083TIP3    H169664   2.011   3.208   2.700  0.8203  1.2455  0.3660
16083TIP3    H269665   1.867   3.242   2.732 -0.0894 -0.9096 -1.1549
16084TIP3   OH269666   5.977   5.966   3.965  0.4628 -0.3961  0.2592
16084TIP3    H169667   6.057   5.921   3.995 -0.5953 -0.8436  2.6929
16084TIP3    H269668   5.914   5.896   3.951  0.2477  0.0119 -0.8912
16085TIP3   OH269669   3.428   4.157  15.950  0.2862 -0.4947  0.1601
16085TIP3    H169670   3.435   4.102  16.028  0.9776  0.3831  0.7369
16085TIP3    H269671   3.515   4.197  15.940  0.1262 -0.3702 -0.8939
16086TIP3   OH269672   4.154   1.261   2.704  0.0883  0.2230 -0.1170
16086TIP3    H169673   4.169   1.273   2.798  0.4071  0.0524 -0.1453
16086TIP3    H269674   4.242   1.258   2.666 -0.0529  1.1114 -0.5232
16087TIP3   OH269675   0.751   3.449   5.340 -0.7970 -0.4204 -0.9231
16087TIP3    H169676   0.753   3.358   5.372  0.0034 -0.3343 -0.7130
16087TIP3    H269677   0.658   3.472   5.341 -0.9758 -1.1092 -0.6052
16088TIP3   OH269678   3.632   3.391   3.785  0.0910  0.7254 -0.0792
16088TIP3    H169679   3.686   3.377   3.863  0.7273 -1.2362 -0.8150
16088TIP3    H269680   3.659   3.477   3.752  3.4036 -0.4678 -0.8566
16089TIP3   OH269681   2.038   1.942  16.631  0.1986 -0.4718 -0.1176
16089TIP3    H169682   2.091   1.867  16.604  0.0143  0.1120 -2.3427
16089TIP3    H269683   1.987   1.910  16.705  2.2020 -1.6418  0.8265
16090TIP3   OH269684   1.531   3.063   3.521 -0.3319  0.0223 -0.1062
16090TIP3    H169685   1.523   3.083   3.427  0.9538  0.2300 -0.1977
16090TIP3    H269686   1.593   2.991   3.525  0.0571  0.3860  0.6163
16091TIP3   OH269687   4.245   6.278  12.226  0.4288 -0.3293  0.5248
16091TIP3    H169688   4.242   6.300  12.319  1.0946  1.2572  0.2070
16091TIP3    H269689   4.155   6.255  12.203  0.1616 -0.2264  1.4518
16092TIP3   OH269690   1.436   6.256  13.923 -0.4687  0.3131  0.4370
16092TIP3    H169691   1.374   6.221  13.986  1.3204  1.1956  2.8343
16092TIP3    H269692   1.496   6.183  13.906 -1.5114 -0.2395 -1.1349
16093TIP3   OH269693   2.959   4.070   5.841  0.6565 -0.0817  0.3708
16093TIP3    H169694   2.866   4.058   5.862  0.4240 -1.5949 -1.2280
16093TIP3    H269695   2.990   3.981   5.822  1.6831  0.6796 -1.8856
16094TIP3   OH269696   0.386   3.131  12.202  0.5403 -0.0173 -0.2592
16094TIP3    H169697   0.352   3.138  12.292 -1.1456  1.4257 -0.9379
16094TIP3    H269698   0.308   3.138  12.147  1.4333 -1.7842 -1.8578
16095TIP3   OH269699   5.465   4.768   0.357  0.2035  0.3366 -0.3444
16095TIP3    H169700   5.523   4.844   0.355 -0.3279  0.7747  0.2826
16095TIP3    H269701   5.389   4.795   0.306 -0.0931  0.3153  0.0847
16096TIP3   OH269702   1.248   1.252  15.840  0.0516  0.0633 -0.0477
16096TIP3    H169703   1.241   1.288  15.928  2.0791 -1.5380  0.8208
16096TIP3    H269704   1.210   1.165  15.846 -1.1148  0.4563 -1.1552
16097TIP3   OH269705   4.081   2.651  17.121  0.1956 -0.3590 -0.9591
16097TIP3    H169706   4.076   2.610  17.035 -1.5273 -0.7014 -0.7137
16097TIP3    H269707   4.059   2.581  17.182  1.0158 -0.0107 -0.2417
16098TIP3   OH269708   2.432   4.696  13.618  0.8464 -0.0012 -0.4117
16098TIP3    H169709   2.394   4.694  13.705  1.7566 -0.9138 -0.0084
16098TIP3    H269710   2.453   4.604  13.599 -0.4526  0.0098 -2.0987
16099TIP3   OH269711   4.867   1.772   0.636 -0.1126 -0.3163  0.5435
16099TIP3    H169712   4.779   1.745   0.662 -0.4825 -0.4962 -0.8212
16099TIP3    H269713   4.885   1.721   0.557  0.5581  0.9089 -0.1244
16100TIP3   OH269714   4.691   4.492  12.879 -0.3448  0.6365 -0.2624
16100TIP3    H169715   4.609   4.491  12.829 -0.3672 -0.2950 -0.2414
16100TIP3    H269716   4.751   4.542  12.825 -0.7724  0.8567 -0.5430
16101TIP3   OH269717   4.717   1.311  15.063  0.6806  0.2490 -0.0330
16101TIP3    H169718   4.747   1.311  14.972  0.3194  1.9081 -0.1714
16101TIP3    H269719   4.628   1.346  15.059  0.0788 -1.0961  0.8082
16102TIP3   OH269720   3.305   3.243   3.039  0.4083  0.3181  0.2684
16102TIP3    H169721   3.350   3.284   2.966 -1.0184  1.4057 -0.0260
16102TIP3    H269722   3.218   3.223   3.006  0.7005 -2.0878  0.7100
16103TIP3   OH269723   3.561   0.933  13.951  0.5018  0.2040  0.3928
16103TIP3    H169724   3.483   0.989  13.953  0.3993  0.1136 -0.7571
16103TIP3    H269725   3.634   0.993  13.941  0.6316  0.3141  1.7839
16104TIP3   OH269726   3.042   0.855   2.418 -0.0862  0.0814 -0.1134
16104TIP3    H169727   3.131   0.885   2.396  0.5879 -1.7244 -0.0212
16104TIP3    H269728   3.036   0.865   2.513  0.2207 -0.2595 -0.0545
16105TIP3   OH269729   4.222   0.022  10.338  0.2478 -0.3212  0.5429
16105TIP3    H169730   4.144   0.053  10.383  0.3326 -0.6265  0.9030
16105TIP3    H269731   4.281   0.097  10.339 -0.1340 -0.0077  0.0432
16106TIP3   OH269732   2.799   5.507   4.789 -0.3074  0.1792  0.2744
16106TIP3    H169733   2.730   5.497   4.723 -0.7195  4.3757 -0.2151
16106TIP3    H269734   2.780   5.591   4.831  2.0712 -0.5686  3.2320
16107TIP3   OH269735   6.354   3.618  12.558 -0.7762  0.5352 -0.6254
16107TIP3    H169736   6.351   3.713  12.547  1.7120  0.9943  1.5120
16107TIP3    H269737   6.433   3.590  12.511 -1.2165 -0.4230 -0.8348
16108TIP3   OH269738   5.040   1.431  13.607 -0.6201  0.3016 -0.1764
16108TIP3    H169739   4.987   1.478  13.671 -1.6084  0.6711 -1.2247
16108TIP3    H269740   4.987   1.432  13.527  0.1487 -0.9841 -0.7367
16109TIP3   OH269741   2.423   0.414   0.658 -0.3543 -0.1818 -1.0255
16109TIP3    H169742   2.469   0.340   0.618  0.5034  0.0407 -0.4695
16109TIP3    H269743   2.485   0.487   0.653 -1.1915  0.5114 -1.5740
16110TIP3   OH269744   1.917   3.602  16.444  0.4517  0.0771 -0.2437
16110TIP3    H169745   1.936   3.591  16.538  0.6157 -0.0831 -0.2949
16110TIP3    H269746   2.001   3.625  16.406  0.1517  1.3665 -0.1652
16111TIP3   OH269747   1.819   6.250   1.621  0.4300  0.3177 -0.3303
16111TIP3    H169748   1.807   6.248   1.526  0.6392 -0.1072 -0.3516
16111TIP3    H269749   1.871   6.172   1.640  0.6956  0.5911  0.0901
16112TIP3   OH269750   4.331   5.630  11.585 -0.2385  0.1719  0.4300
16112TIP3    H169751   4.253   5.591  11.545 -1.3044  0.1985  2.3961
16112TIP3    H269752   4.403   5.601  11.528 -1.2285 -2.8914  0.5590
16113TIP3   OH269753   3.113   2.274  12.087 -0.3079 -0.7959  0.6907
16113TIP3    H169754   3.044   2.313  12.034 -0.8063 -0.4625  1.5653
16113TIP3    H269755   3.069   2.251  12.169  0.8106  0.2440  1.6059
16114TIP3   OH269756   5.895   6.561  15.451  0.2040  0.0074 -0.1023
16114TIP3    H169757   5.833   6.617  15.497 -0.4808  0.8338 -1.9513
16114TIP3    H269758   5.843   6.519  15.382  1.5030  0.0259 -1.1304
16115TIP3   OH269759   3.344   5.376   0.511 -0.6346  0.5368  0.2969
16115TIP3    H169760   3.389   5.354   0.430 -0.4605  2.8957 -0.3255
16115TIP3    H269761   3.358   5.301   0.568 -1.0773 -1.3740 -1.9423
16116TIP3   OH269762   1.772   0.799   6.101  0.0687  0.1900  0.0079
16116TIP3    H169763   1.722   0.725   6.136 -0.6942  0.3607 -0.6828
16116TIP3    H269764   1.729   0.819   6.018  1.2748  0.3700 -0.5910
16117TIP3   OH269765   3.276   4.595   4.905 -0.2747  0.4288 -0.4261
16117TIP3    H169766   3.226   4.647   4.842  1.5393  0.5502 -1.8470
16117TIP3    H269767   3.345   4.554   4.852  0.3766 -0.7167  1.2430
16118TIP3   OH269768   4.866   4.575   2.495 -0.2095 -0.0719  0.3642
16118TIP3    H169769   4.821   4.538   2.420  3.6386  0.1622 -2.3352
16118TIP3    H269770   4.863   4.670   2.480  1.0001 -0.0496  0.1605
16119TIP3   OH269771   2.095   1.825  10.280  0.1953 -0.2405  0.0391
16119TIP3    H169772   2.171   1.781  10.241  0.2813  1.1896 -1.5067
16119TIP3    H269773   2.112   1.821  10.374  1.4696 -1.1979 -0.1897
16120TIP3   OH269774   2.218   0.666  11.346  0.3459 -0.1807 -0.0427
16120TIP3    H169775   2.158   0.720  11.294 -1.4346 -2.0799 -0.1002
16120TIP3    H269776   2.262   0.610  11.282 -0.4828 -1.2440  0.2924
16121TIP3   OH269777   2.199   1.580   5.940  0.0490  0.0809 -0.5739
16121TIP3    H169778   2.209   1.512   5.874  1.3688  0.3261 -0.6709
16121TIP3    H269779   2.105   1.596   5.945 -0.3962 -2.3828  0.1212
16122TIP3   OH269780   2.795   0.502   1.230 -0.0298  0.0771  0.3121
16122TIP3    H169781   2.748   0.418   1.226 -1.6590  0.9142  1.1338
16122TIP3    H269782   2.732   0.564   1.265  1.3906  1.5100  0.4744
16123TIP3   OH269783   6.409   3.972  14.029 -0.0297  0.1405 -0.1827
16123TIP3    H169784   6.418   3.919  14.108  1.0483  1.6493  0.7522
16123TIP3    H269785   6.321   4.009  14.035 -1.2073 -2.2120 -1.3548
16124TIP3   OH269786   3.435   4.753  13.079 -0.1896  0.1068  0.5100
16124TIP3    H169787   3.522   4.791  13.073  0.2626 -0.7758  1.3564
16124TIP3    H269788   3.390   4.804  13.146 -0.6134  1.0506 -0.4421
16125TIP3   OH269789   1.166   5.363  14.241  0.3565 -0.8670  0.0713
16125TIP3    H169790   1.242   5.347  14.185  0.6711 -2.0109  0.7931
16125TIP3    H269791   1.204   5.382  14.327 -0.0239  2.6469 -0.3714
16126TIP3   OH269792   5.961   4.000   3.138 -0.3358  0.1989 -0.4121
16126TIP3    H169793   5.887   4.059   3.121 -0.6346  0.7808  2.3990
16126TIP3    H269794   5.941   3.961   3.222  0.9793 -2.2813 -1.1578
16127TIP3   OH269795   2.569   4.264  15.056 -0.1472  0.4254 -0.1414
16127TIP3    H169796   2.501   4.251  15.122  1.3171  1.3375  1.6362
16127TIP3    H269797   2.522   4.302  14.981 -1.9514 -1.2082  0.0743
16128TIP3   OH269798   5.821   3.312  15.747 -0.2557  0.4578  0.2728
16128TIP3    H169799   5.845   3.401  15.725  0.2650  0.3760  0.5054
16128TIP3    H269800   5.890   3.281  15.805  0.1697 -0.4808 -0.6929
16129TIP3   OH269801   5.163   0.197  12.996  0.2896  1.0161  0.8795
16129TIP3    H169802   5.190   0.113  13.033  0.7678  0.8575  0.1828
16129TIP3    H269803   5.147   0.253  13.073  0.4550  0.4436  1.3365
16130TIP3   OH269804   6.228   4.049   6.177 -0.2860 -0.2384  0.2736
16130TIP3    H169805   6.205   3.970   6.128 -1.8495 -1.5289  2.8832
16130TIP3    H269806   6.164   4.115   6.149 -0.3212 -0.5319 -0.3514
16131TIP3   OH269807   2.803   5.689  13.458 -0.0426 -0.4879  0.5528
16131TIP3    H169808   2.779   5.781  13.470  0.1962 -0.2625 -0.5728
16131TIP3    H269809   2.726   5.640  13.485 -0.6776  0.1123 -0.1093
16132TIP3   OH269810   0.289   3.909  16.125 -0.4085  0.1059 -0.3194
16132TIP3    H169811   0.219   3.974  16.122 -0.8571 -0.3033  0.7818
16132TIP3    H269812   0.363   3.955  16.166 -0.4295  0.1786 -0.3635
16133TIP3   OH269813   2.950   4.107   4.738  0.7434 -0.0715  0.4761
16133TIP3    H169814   3.042   4.083   4.732  0.7408  0.0646 -0.0970
16133TIP3    H269815   2.921   4.069   4.822  0.7067 -2.2421 -0.4558
16134TIP3   OH269816   2.253   1.326  11.154 -0.1332  0.2556  0.5715
16134TIP3    H169817   2.236   1.294  11.242 -2.5443 -1.4820 -0.3915
16134TIP3    H269818   2.174   1.303  11.105  1.4766  0.2756 -2.2734
16135TIP3   OH269819   0.769   6.426  13.524  0.0175  0.3866  0.2046
16135TIP3    H169820   0.820   6.408  13.603 -1.4224 -0.8649  0.9197
16135TIP3    H269821   0.802   6.364  13.459 -1.3713 -1.3669  1.0631
16136TIP3   OH269822   4.566   2.491   2.873  0.1156  0.0140 -0.1979
16136TIP3    H169823   4.533   2.557   2.934 -0.2800  1.0960 -1.5321
16136TIP3    H269824   4.647   2.461   2.913 -0.6678 -0.1217  1.3930
16137TIP3   OH269825   1.260   0.005   5.823  0.2920 -0.3048 -0.2130
16137TIP3    H169826   1.294   0.068   5.761 -3.2249  0.1919 -1.8937
16137TIP3    H269827   1.296  -0.079   5.795  1.2665  0.3219 -0.8959
16138TIP3   OH269828   3.488   0.615   0.890 -0.2546 -0.1333 -0.5279
16138TIP3    H169829   3.492   0.543   0.953 -0.0523 -0.2611 -0.6839
16138TIP3    H269830   3.573   0.613   0.846  0.1218  0.8103  0.1215
16139TIP3   OH269831   6.069   5.543   4.750 -0.1826  0.7584  0.2830
16139TIP3    H169832   6.109   5.489   4.818 -0.9867 -0.0478  0.1272
16139TIP3    H269833   6.124   5.529   4.673 -1.3195 -1.2049 -0.2378
16140TIP3   OH269834   1.120   1.241   2.556 -0.2497 -0.0313  0.7569
16140TIP3    H169835   1.124   1.146   2.546 -1.0259 -0.0122  0.0996
16140TIP3    H269836   1.175   1.260   2.631  0.0749 -0.9832  0.7735
16141TIP3   OH269837   0.169   3.311  10.826 -0.6720 -0.0047 -0.5075
16141TIP3    H169838   0.243   3.336  10.770  0.0335  0.2030  0.4842
16141TIP3    H269839   0.120   3.248  10.774  0.3078 -0.2826 -1.1298
16142TIP3   OH269840   6.070   0.457   3.332 -0.4520  0.1284 -0.5480
16142TIP3    H169841   6.079   0.549   3.307  1.1200  0.2484  0.3666
16142TIP3    H269842   5.978   0.437   3.315 -0.5234  1.4773 -2.0279
16143TIP3   OH269843   2.544   2.780   1.041  0.1632  0.2294 -0.0776
16143TIP3    H169844   2.628   2.808   1.004 -0.7076  1.2123 -1.3780
16143TIP3    H269845   2.479   2.837   1.000 -1.0064  0.5294  2.0539
16144TIP3   OH269846   5.766   2.908   4.253  0.4561  0.5989 -0.1759
16144TIP3    H169847   5.781   3.002   4.248  0.0179  0.6261 -4.1778
16144TIP3    H269848   5.842   2.873   4.299  0.3544  2.8704  1.8958
16145TIP3   OH269849   6.600   1.141   5.929  0.2365 -0.1635  0.3337
16145TIP3    H169850   6.652   1.186   5.996  0.6214 -0.2111  0.0735
16145TIP3    H269851   6.598   1.050   5.958  3.5584 -0.9981 -1.5351
16146TIP3   OH269852   3.371   6.219  15.018 -0.2540  0.3754  0.1978
16146TIP3    H169853   3.440   6.188  14.960  0.1456 -1.2536  1.4406
16146TIP3    H269854   3.294   6.168  14.993 -0.6467  1.1921 -0.2800
16147TIP3   OH269855   0.917   0.696  13.866 -0.2916 -0.0758  0.1356
16147TIP3    H169856   0.851   0.648  13.815 -1.2432  0.2653  1.0179
16147TIP3    H269857   0.948   0.764  13.807 -0.8869 -0.1065 -0.2220
16148TIP3   OH269858   5.522   0.390   0.758  0.3175 -0.0461 -0.0225
16148TIP3    H169859   5.524   0.308   0.710  0.3390 -0.3557  0.5039
16148TIP3    H269860   5.595   0.383   0.820 -1.2431 -0.7239  1.8098
16149TIP3   OH269861   0.259   2.504   5.270  0.0620  0.2236  0.1188
16149TIP3    H169862   0.168   2.499   5.300  0.3452 -0.2318  0.9487
16149TIP3    H269863   0.301   2.427   5.309  0.5722 -0.1369 -1.0952
16150TIP3   OH269864   4.570   0.153   1.922 -0.4487 -0.7203 -0.1425
16150TIP3    H169865   4.583   0.063   1.895  0.0868 -0.2781 -1.4440
16150TIP3    H269866   4.488   0.180   1.879 -1.1119 -0.8490  0.9946
16151TIP3   OH269867   5.867   2.512   2.865  0.1369 -0.3821  0.2584
16151TIP3    H169868   5.824   2.488   2.783  0.1251 -0.2717  0.2331
16151TIP3    H269869   5.815   2.470   2.933 -0.8267  0.8871  0.3369
16152TIP3   OH269870   0.405   1.683  13.188  0.8572  0.1521 -0.4624
16152TIP3    H169871   0.419   1.683  13.094 -0.4973  0.6757 -0.6922
16152TIP3    H269872   0.362   1.767  13.206  0.5199 -0.2149  0.5189
16153TIP3   OH269873   2.628   3.848   1.477 -0.5191  0.0399 -0.0215
16153TIP3    H169874   2.701   3.843   1.538  0.7526 -0.0488 -1.5020
16153TIP3    H269875   2.562   3.788   1.513  1.2328 -2.0232 -0.1024
16154TIP3   OH269876   0.730   3.539   0.523 -0.0625 -0.5975  0.1822
16154TIP3    H169877   0.714   3.482   0.599  1.6864  0.0305  1.0667
16154TIP3    H269878   0.747   3.625   0.562 -2.4203  0.5472 -1.1103
16155TIP3   OH269879   3.559   5.432  12.831  0.1163 -0.2525  0.0258
16155TIP3    H169880   3.543   5.413  12.739  1.0115  1.5323 -0.5441
16155TIP3    H269881   3.485   5.392  12.877 -1.4126  0.4810 -1.6645
16156TIP3   OH269882   0.869   0.854  12.417  0.7549  0.7560 -0.4776
16156TIP3    H169883   0.929   0.817  12.353 -0.6661 -0.3773 -1.2237
16156TIP3    H269884   0.866   0.789  12.488  0.5980  0.9157 -0.3362
16157TIP3   OH269885   0.084   5.350   3.821  0.5655 -0.5678  0.5897
16157TIP3    H169886   0.065   5.297   3.745 -2.4969 -1.6749  1.9490
16157TIP3    H269887   0.173   5.327   3.846  1.1310 -1.1860 -1.8034
16158TIP3   OH269888   6.356   0.740   0.835 -0.3901  0.0487  0.0452
16158TIP3    H169889   6.331   0.826   0.870 -0.9475 -0.7346  1.6654
16158TIP3    H269890   6.285   0.718   0.775 -0.3734  0.6011 -0.1867
16159TIP3   OH269891   0.558   0.342  15.270 -0.2988  0.1032 -0.5587
16159TIP3    H169892   0.564   0.247  15.256  1.1062  0.1336 -0.3052
16159TIP3    H269893   0.533   0.378  15.185  0.9226 -0.3516 -1.1279
16160TIP3   OH269894   2.705   2.347  12.094 -0.2268  0.0322  0.0535
16160TIP3    H169895   2.734   2.384  12.178 -0.0709 -1.5107  0.7237
16160TIP3    H269896   2.672   2.260  12.117  0.8577 -0.8737 -1.6186
16161TIP3   OH269897   4.869   2.219  15.834 -0.3135 -0.5644  1.2210
16161TIP3    H169898   4.789   2.167  15.825  0.3952 -1.7462  1.5083
16161TIP3    H269899   4.889   2.216  15.928 -0.0694 -0.0635  1.1872
16162TIP3   OH269900   5.170   4.049   1.184 -0.4117 -0.0708  0.6427
16162TIP3    H169901   5.200   4.007   1.103  2.4295 -1.8609  2.4629
16162TIP3    H269902   5.113   3.984   1.225 -0.2319  0.0172  1.0355
16163TIP3   OH269903   1.777   0.911   5.425 -0.1296  0.7863 -0.1428
16163TIP3    H169904   1.778   1.007   5.436  0.4588  0.6959  0.7269
16163TIP3    H269905   1.710   0.895   5.359  0.2749  1.8560 -0.8393
16164TIP3   OH269906   1.516   3.087  16.273 -0.6712 -0.7187  0.6200
16164TIP3    H169907   1.606   3.108  16.299 -0.7688  0.8508 -0.1737
16164TIP3    H269908   1.497   3.005  16.318  1.5225 -1.6683 -0.0398
16165TIP3   OH269909   0.568   5.887   3.014  0.2824  0.1896  0.0263
16165TIP3    H169910   0.544   5.839   2.935  0.1551 -0.5577  0.5087
16165TIP3    H269911   0.611   5.822   3.070  0.3431  0.6993  0.5842
16166TIP3   OH269912   2.694   4.212   0.688  0.2456 -0.8382  0.4539
16166TIP3    H169913   2.608   4.249   0.669  0.3224  0.5516  2.5151
16166TIP3    H269914   2.755   4.261   0.633  0.1051  0.7905  1.6834
16167TIP3   OH269915   4.347   5.512  12.927 -0.6161 -0.1673 -0.1429
16167TIP3    H169916   4.391   5.484  13.008 -0.8682  0.1773  0.1163
16167TIP3    H269917   4.254   5.512  12.949 -0.6288  0.8095 -0.1521
16168TIP3   OH269918   0.896   0.634  16.731 -0.0225 -0.0149  0.1629
16168TIP3    H169919   0.873   0.726  16.719  0.2716 -0.0763 -0.9652
16168TIP3    H269920   0.898   0.597  16.643  1.2231 -0.7758  0.4765
16169TIP3   OH269921   0.978   2.230  13.896  0.3180 -0.8117  0.1265
16169TIP3    H169922   1.041   2.272  13.837  0.6817 -0.0240  1.0539
16169TIP3    H269923   0.929   2.170  13.839  0.8000 -0.2359 -0.9371
16170TIP3   OH269924   5.158   5.263   3.241 -0.7574  0.0777  0.0539
16170TIP3    H169925   5.096   5.334   3.226 -0.0098  0.7680  0.1393
16170TIP3    H269926   5.120   5.211   3.311  0.1562  2.2342  2.3187
16171TIP3   OH269927   4.679   4.942   4.902 -0.1991  0.2480  0.4089
16171TIP3    H169928   4.612   4.940   4.834  0.6136  0.4764 -0.4128
16171TIP3    H269929   4.686   4.851   4.931 -0.4334  0.1182  0.0649
16172TIP3   OH269930   1.366   2.903  11.313  0.1664 -0.0622 -0.2175
16172TIP3    H169931   1.415   2.885  11.393 -1.2333 -1.7131  0.3602
16172TIP3    H269932   1.401   2.841  11.249 -0.9646 -1.1476  0.1570
16173TIP3   OH269933   3.475   1.444   5.019  0.3838  0.9060  0.0054
16173TIP3    H169934   3.543   1.448   5.086  0.9000  0.1561 -0.4495
16173TIP3    H269935   3.417   1.374   5.049  1.2446 -0.2371 -0.8551
16174TIP3   OH269936   0.668   1.510  16.761  0.0127 -0.2848 -0.2010
16174TIP3    H169937   0.722   1.584  16.789 -1.1728  1.3069 -1.9452
16174TIP3    H269938   0.619   1.542  16.686  0.2313 -3.1773 -1.7365
16175TIP3   OH269939   4.580   6.257  12.306 -0.3497 -0.0567  0.5641
16175TIP3    H169940   4.591   6.349  12.283  0.0853 -0.8099 -2.6277
16175TIP3    H269941   4.666   6.231  12.340 -0.0313  0.3700  0.0989
16176TIP3   OH269942   2.255   3.294   0.479  0.0886  0.0694  0.2634
16176TIP3    H169943   2.190   3.320   0.413  1.2798  0.3192 -0.8657
16176TIP3    H269944   2.309   3.229   0.434  0.5135 -0.2669  1.2438
16177TIP3   OH269945   2.511   0.500  12.370  0.6049 -0.2111  0.1764
16177TIP3    H169946   2.432   0.515  12.421 -0.4083  0.1102 -1.4226
16177TIP3    H269947   2.571   0.569  12.398  0.0984 -0.0548  0.9215
16178TIP3   OH269948   4.602   0.583   3.365  0.6547 -0.5176  0.5147
16178TIP3    H169949   4.654   0.663   3.371  0.3520 -0.2071 -0.7356
16178TIP3    H269950   4.512   0.615   3.354  0.6333 -0.9999 -0.8691
16179TIP3   OH269951   0.530   0.493  13.869  0.2760 -0.1549  0.0530
16179TIP3    H169952   0.443   0.502  13.831 -0.8818  1.3542  2.7299
16179TIP3    H269953   0.514   0.491  13.964  3.1557  0.4312  0.6445
16180TIP3   OH269954   5.285   1.187   1.461  0.1398 -0.0009  0.4902
16180TIP3    H169955   5.363   1.133   1.472  0.9284  0.4158 -2.2019
16180TIP3    H269956   5.287   1.213   1.369 -2.8762  0.5274  0.4604
16181TIP3   OH269957   3.917   2.077  12.595  0.5725 -0.3493 -0.0286
16181TIP3    H169958   3.867   1.996  12.609 -2.2971  1.7699  3.5682
16181TIP3    H269959   3.863   2.127  12.534  0.8600 -0.0097 -0.0027
16182TIP3   OH269960   1.138   4.277   3.415 -0.4561 -0.1198  0.0265
16182TIP3    H169961   1.179   4.244   3.335 -0.3500  2.4906 -1.0680
16182TIP3    H269962   1.165   4.215   3.482  1.6472 -0.9386 -1.4663
16183TIP3   OH269963   2.039   5.107   1.001  0.2831 -0.1939 -0.4691
16183TIP3    H169964   2.035   5.150   1.086 -2.0259 -0.4064 -0.3982
16183TIP3    H269965   1.988   5.164   0.943 -2.2025 -2.3257 -0.5514
16184TIP3   OH269966   3.652   0.362   0.597 -0.3545 -0.1989 -0.3658
16184TIP3    H169967   3.569   0.352   0.552 -0.3260  0.6569 -0.6212
16184TIP3    H269968   3.658   0.286   0.655 -1.5913  0.0501  0.1071
16185TIP3   OH269969   1.370   6.252  12.313 -0.1873 -0.0959 -0.0154
16185TIP3    H169970   1.393   6.254  12.406 -0.4967 -0.3499  0.0675
16185TIP3    H269971   1.397   6.165  12.283  0.5381  0.2262 -0.3281
16186TIP3   OH269972   4.929   0.742  12.141 -0.4108 -0.6553  0.2163
16186TIP3    H169973   4.841   0.776  12.156  0.5535  3.5027 -1.9889
16186TIP3    H269974   4.920   0.684  12.065 -1.1631  0.6816 -0.7630
16187TIP3   OH269975   1.957   1.498   3.971  0.4112  0.0447 -0.0545
16187TIP3    H169976   2.038   1.498   3.921  0.3148 -1.4117 -0.2478
16187TIP3    H269977   1.944   1.589   3.996  1.8060  0.3832 -0.4989
16188TIP3   OH269978   0.783   1.777   5.516 -0.1332  0.4306  0.0299
16188TIP3    H169979   0.688   1.782   5.529  0.0168  1.2297  0.9163
16188TIP3    H269980   0.802   1.683   5.517 -0.8816  0.2692  0.0289
16189TIP3   OH269981   5.819   1.951   6.195 -0.5841 -0.1886 -0.4597
16189TIP3    H169982   5.842   1.943   6.102  1.4550 -0.3951 -0.0021
16189TIP3    H269983   5.862   1.877   6.237 -0.3323  0.6386  0.8110
16190TIP3   OH269984   4.144   5.090   1.827 -0.3196 -0.3786  0.4078
16190TIP3    H169985   4.221   5.090   1.885  0.5915  1.0017 -0.7190
16190TIP3    H269986   4.083   5.151   1.868  0.2065  0.3795  0.0883
16191TIP3   OH269987   2.725   1.286   0.189 -0.0380 -0.9506  0.2518
16191TIP3    H169988   2.720   1.251   0.278 -1.1745  0.0109  0.5851
16191TIP3    H269989   2.658   1.354   0.186 -0.8931 -1.7874 -1.7047
16192TIP3   OH269990   3.373   4.789  16.948  0.0631 -0.3572  0.0246
16192TIP3    H169991   3.457   4.835  16.957 -0.6830  1.7634 -2.5222
16192TIP3    H269992   3.319   4.823  17.019  0.6616 -0.0266  0.3297
16193TIP3   OH269993   1.487   0.051   1.613 -0.8103  0.3364 -0.3164
16193TIP3    H169994   1.443   0.020   1.693  2.0711 -0.6999  0.9824
16193TIP3    H269995   1.493   0.145   1.625 -0.4313  0.1972  0.7145
16194TIP3   OH269996   3.104   5.671   5.302 -0.0215  0.5319 -0.1866
16194TIP3    H169997   3.019   5.629   5.315 -1.1483  1.9025 -2.3850
16194TIP3    H269998   3.131   5.644   5.214  1.0701  1.3541 -0.1302
16195TIP3   OH269999   6.707   6.623  12.245  0.6839  0.9403 -0.1191
16195TIP3    H170000   6.797   6.599  12.223  1.0009  0.8502  1.1799
16195TIP3    H270001   6.653   6.556  12.204  1.2020  0.9843 -0.8915
16196TIP3   OH270002   0.742   3.649   4.424 -0.5220 -0.4462 -0.1940
16196TIP3    H170003   0.657   3.621   4.458 -2.0354  4.6541  1.1564
16196TIP3    H270004   0.720   3.712   4.355  2.0687  1.4117  0.5306
16197TIP3   OH270005   6.111   4.724  16.223  0.4876  0.3541 -0.2884
16197TIP3    H170006   6.185   4.692  16.171  0.2568 -0.4823 -0.1219
16197TIP3    H270007   6.111   4.667  16.301  0.2425  0.9642  0.1634
16198TIP3   OH270008   0.130   4.117  11.904  0.6881  0.1235  0.9964
16198TIP3    H170009   0.068   4.078  11.966  0.8993 -0.9334  0.5743
16198TIP3    H270010   0.198   4.050  11.894  0.8940  0.4743 -0.0100
16199TIP3   OH270011   3.377   2.350   2.473 -0.5557  0.1855 -0.3605
16199TIP3    H170012   3.369   2.410   2.547 -0.8849 -1.6788  1.2027
16199TIP3    H270013   3.466   2.315   2.482  0.3995  1.8687 -2.4677
16200TIP3   OH270014   2.359   4.657   5.312 -0.0829 -0.3304  0.1323
16200TIP3    H170015   2.382   4.730   5.255 -2.2405  0.4455  0.1716
16200TIP3    H270016   2.420   4.665   5.386  0.0273  1.1535 -0.0883
16201TIP3   OH270017   6.378   2.399   3.256 -0.0085 -0.2378  0.0580
16201TIP3    H170018   6.376   2.313   3.214 -0.4266 -0.0891 -0.2390
16201TIP3    H270019   6.470   2.423   3.257  0.3014 -1.3369  1.4951
16202TIP3   OH270020   1.301   4.538   1.871  0.6228  0.0426  0.9137
16202TIP3    H170021   1.370   4.604   1.872  1.3121 -0.5739  3.6337
16202TIP3    H270022   1.342   4.460   1.834  0.9365  0.1230  1.0915
16203TIP3   OH270023   2.679   6.623   3.451 -0.0365 -0.4857 -0.1046
16203TIP3    H170024   2.613   6.556   3.469 -1.2446  0.6750 -0.0568
16203TIP3    H270025   2.641   6.675   3.380  0.8021  0.2619 -0.0197
16204TIP3   OH270026   3.759   4.225   0.056 -0.5007  0.4049  0.1575
16204TIP3    H170027   3.786   4.143   0.014 -1.3888  0.3661 -0.3716
16204TIP3    H270028   3.760   4.289  -0.015  0.4584  0.9258  0.6301
16205TIP3   OH270029   5.324   2.747  11.775  0.5629 -0.1977 -0.8714
16205TIP3    H170030   5.311   2.817  11.838  0.4967 -0.3134 -0.7570
16205TIP3    H270031   5.418   2.728  11.781  0.5815 -0.1177 -0.9046
16206TIP3   OH270032   2.296   0.531  15.825  0.0426  0.2197 -0.5726
16206TIP3    H170033   2.205   0.505  15.812 -0.1858  1.3625 -1.3729
16206TIP3    H270034   2.321   0.573  15.743  0.4668  2.2798  0.5526
16207TIP3   OH270035   4.194   1.312  10.957 -0.8143  0.2696  0.3619
16207TIP3    H170036   4.247   1.238  10.988  1.1505  1.2336 -0.5362
16207TIP3    H270037   4.171   1.289  10.867  0.1296  0.8817 -0.0524
16208TIP3   OH270038   2.139   0.764   0.620  0.6141  0.4334  0.4181
16208TIP3    H170039   2.197   0.816   0.676  1.6233 -1.4581  1.2613
16208TIP3    H270040   2.191   0.748   0.541 -0.2893  1.9507 -0.5254
16209TIP3   OH270041   1.189   1.356  16.092 -0.1636  0.0561  0.2926
16209TIP3    H170042   1.127   1.421  16.125 -1.5487 -1.1423  0.1499
16209TIP3    H270043   1.272   1.404  16.084 -1.5807  2.4164 -1.8904
16210TIP3   OH270044   6.562   1.750  14.266  0.0810  0.6213 -1.0730
16210TIP3    H170045   6.601   1.669  14.297  0.6117 -0.1647 -3.5806
16210TIP3    H270046   6.637   1.805  14.242 -0.3098  0.9066 -1.6527
16211TIP3   OH270047   2.763   5.831   4.081 -0.4285  0.4501  0.1150
16211TIP3    H170048   2.694   5.765   4.071 -1.8381  1.2757  3.2370
16211TIP3    H270049   2.717   5.915   4.071  1.0966  1.1051 -2.4150
16212TIP3   OH270050   5.240   3.875   1.611 -0.3810  0.4642  0.0674
16212TIP3    H170051   5.156   3.835   1.590 -0.0963  0.0792 -0.3563
16212TIP3    H270052   5.262   3.840   1.698  0.0976 -0.7098 -0.5024
16213TIP3   OH270053   3.979   5.588  16.789  0.0229  0.4627  0.2598
16213TIP3    H170054   3.995   5.682  16.788  0.4783  0.3817 -0.0601
16213TIP3    H270055   4.065   5.548  16.774  0.1725 -0.0460  2.1092
16214TIP3   OH270056   3.765   0.129  12.957  0.0519 -0.0013  0.0123
16214TIP3    H170057   3.670   0.126  12.944 -0.1321 -0.6379  1.3596
16214TIP3    H270058   3.782   0.064  13.025  1.6482 -0.9170 -1.1879
16215TIP3   OH270059   0.338   1.243   2.392 -0.1760  0.5149  0.1373
16215TIP3    H170060   0.402   1.264   2.461  0.5204  0.6887 -0.5469
16215TIP3    H270061   0.296   1.163   2.423 -0.9362  1.3920  1.4800
16216TIP3   OH270062   3.809   4.198  16.146  0.3880 -0.0637 -0.1221
16216TIP3    H170063   3.792   4.132  16.080  0.3749 -0.5263  0.3375
16216TIP3    H270064   3.733   4.257  16.141  0.0749 -0.4581 -0.0846
16217TIP3   OH270065   6.644   2.650  15.691 -0.6123 -0.1468 -0.3485
16217TIP3    H170066   6.740   2.655  15.686 -0.5219 -0.7971  0.4606
16217TIP3    H270067   6.613   2.715  15.628  0.3618 -0.0167 -0.7112
16218TIP3   OH270068   3.338   2.616   4.353 -0.5274 -0.0450  0.3848
16218TIP3    H170069   3.357   2.627   4.260 -0.3346  2.4392  0.6505
16218TIP3    H270070   3.358   2.702   4.392  0.4015 -1.3086  2.8998
16219TIP3   OH270071   3.554   0.479  12.747 -0.5353 -0.6415  0.4227
16219TIP3    H170072   3.461   0.456  12.752 -1.2002  1.0924 -2.0709
16219TIP3    H270073   3.596   0.402  12.710 -1.4851 -0.4619 -1.0862
16220TIP3   OH270074   4.551   5.916   5.218 -0.1764 -0.4714 -0.1300
16220TIP3    H170075   4.527   5.892   5.129  0.5034  4.3382 -1.9242
16220TIP3    H270076   4.468   5.917   5.266 -0.9928 -0.5218 -1.4801
16221TIP3   OH270077   3.413   3.888  14.997  0.1672 -0.5769 -0.0289
16221TIP3    H170078   3.489   3.919  14.947 -0.2939  0.6070 -0.0206
16221TIP3    H270079   3.442   3.888  15.088  0.2899 -0.5095 -0.0676
16222TIP3   OH270080   6.175   0.032   0.704  0.5320 -0.1181  0.2335
16222TIP3    H170081   6.094  -0.001   0.744 -0.6441 -0.6964 -2.4509
16222TIP3    H270082   6.191   0.115   0.749 -3.0210  1.3073 -0.8229
16223TIP3   OH270083   3.630   6.284  12.610 -0.4318 -0.7350  0.4066
16223TIP3    H170084   3.722   6.280  12.585 -0.4449 -1.3849  0.4587
16223TIP3    H270085   3.610   6.378  12.609  0.6265 -0.4557  1.8477
16224TIP3   OH270086   2.843   1.209  11.450 -0.0327 -0.1907 -0.0180
16224TIP3    H170087   2.911   1.273  11.431 -1.9325  1.6050 -1.1645
16224TIP3    H270088   2.880   1.125  11.422  2.4008  0.3653  1.2513
16225TIP3   OH270089   1.944   6.584  15.030 -0.2329  0.4151 -0.3498
16225TIP3    H170090   1.904   6.602  15.115 -0.6174  0.3388 -0.5132
16225TIP3    H270091   1.995   6.504  15.044  1.4125  1.5269  0.3577
16226TIP3   OH270092   5.380   5.305   3.402 -0.3969  0.1628  0.1598
16226TIP3    H170093   5.392   5.395   3.372 -4.4272  1.0727  0.8112
16226TIP3    H270094   5.335   5.261   3.330  1.4180 -1.4076 -0.1059
16227TIP3   OH270095   1.984   5.269   1.230  0.0159 -0.4715  0.1746
16227TIP3    H170096   2.034   5.346   1.257  0.5053 -0.8568  0.3781
16227TIP3    H270097   1.979   5.214   1.309 -0.4677 -0.5750  0.0747
16228TIP3   OH270098   0.057   3.947   1.971  0.2637 -0.2666 -0.1903
16228TIP3    H170099   0.152   3.943   1.965  0.1769 -0.3100 -1.8370
16228TIP3    H270100   0.029   3.855   1.969  0.3019 -0.6375  4.4663
16229TIP3   OH270101   3.299   1.997  15.849 -0.1610 -0.2699  0.1139
16229TIP3    H170102   3.321   2.076  15.800  0.3736 -1.3716 -1.5156
16229TIP3    H270103   3.203   1.991  15.844 -0.1305 -0.2649 -0.6821
16230TIP3   OH270104   6.655   1.727  12.135  0.0856 -0.0312 -0.0514
16230TIP3    H170105   6.733   1.732  12.080 -0.3747 -1.1845 -0.8265
16230TIP3    H270106   6.583   1.710  12.074 -0.6067 -0.1263  0.7744
16231TIP3   OH270107   3.261   0.771  13.810  0.0018  0.4506 -0.3780
16231TIP3    H170108   3.204   0.735  13.743  0.8051 -0.0497 -0.8060
16231TIP3    H270109   3.339   0.800  13.762  2.5229 -3.7724  0.6914
16232TIP3   OH270110   3.679   6.498  13.536 -0.3024 -0.3001 -0.0900
16232TIP3    H170111   3.587   6.506  13.560  0.0271 -1.0022  1.5179
16232TIP3    H270112   3.709   6.588  13.525 -1.2220 -0.0737 -0.8857
16233TIP3   OH270113   2.168   6.312   1.194  0.1018  0.3663 -0.3727
16233TIP3    H170114   2.160   6.308   1.290  0.2297  0.1682 -0.3700
16233TIP3    H270115   2.221   6.235   1.171  1.9109  1.5696 -0.4001
16234TIP3   OH270116   4.121   2.434   4.785 -0.0063 -0.0935  0.2470
16234TIP3    H170117   4.212   2.424   4.759  0.3806  1.0776  1.0815
16234TIP3    H270118   4.097   2.523   4.760 -0.0829  0.5377  2.3419
16235TIP3   OH270119   6.707   4.859  15.601  0.4126  0.2287  0.6856
16235TIP3    H170120   6.728   4.875  15.693  2.6060 -0.5797  0.3917
16235TIP3    H270121   6.694   4.764  15.595 -0.4573  0.3616  0.2725
16236TIP3   OH270122   4.128   2.429  11.332  0.4150 -0.7676  0.4738
16236TIP3    H170123   4.205   2.461  11.286  0.0121 -0.1395  0.2265
16236TIP3    H270124   4.161   2.398  11.416  0.8584 -0.0274  0.5727
16237TIP3   OH270125   3.061   1.069  17.197  0.3273 -0.2369  0.5002
16237TIP3    H170126   3.091   1.096  17.110  0.8937  0.8104  1.0053
16237TIP3    H270127   2.969   1.095  17.200  0.5727  0.6631  0.5668
16238TIP3   OH270128   2.941   4.816  14.142  0.4030 -0.0313 -0.1273
16238TIP3    H170129   3.031   4.792  14.162  0.7895 -0.9184 -2.5928
16238TIP3    H270130   2.894   4.733  14.136  0.4548  0.0284 -3.0130
16239TIP3   OH270131   5.612   0.356   1.124 -0.1103 -0.0032  0.0526
16239TIP3    H170132   5.608   0.262   1.141  1.7814 -0.0329  0.5505
16239TIP3    H270133   5.625   0.363   1.030 -1.6029 -0.1561 -0.1938
16240TIP3   OH270134   5.158   6.332   6.448 -0.3471 -0.3163  0.3074
16240TIP3    H170135   5.093   6.281   6.497  1.0816 -1.1660  1.3968
16240TIP3    H270136   5.224   6.267   6.423  0.4221  0.6411 -0.1772
16241TIP3   OH270137   4.488   4.536  12.695  0.2209  0.7459 -0.4591
16241TIP3    H170138   4.527   4.619  12.724  1.3673 -0.0768  0.5026
16241TIP3    H270139   4.557   4.494  12.643 -0.8112  0.9384 -2.0261
16242TIP3   OH270140   3.019   0.615  17.239 -0.2707 -0.4503  0.3918
16242TIP3    H170141   2.976   0.593  17.156 -1.5434 -2.1248  1.4497
16242TIP3    H270142   3.021   0.533  17.288  1.6149  0.2256  1.5434
16243TIP3   OH270143   1.383   6.191   5.294  0.4512 -0.1763  0.0983
16243TIP3    H170144   1.302   6.204   5.344  1.1370  0.9535  0.9634
16243TIP3    H270145   1.357   6.206   5.203 -0.5188 -0.8305  0.2565
16244TIP3   OH270146   0.413   4.697  12.588 -0.2522  0.7996 -0.4178
16244TIP3    H170147   0.331   4.733  12.552 -0.8444  0.3324  0.4381
16244TIP3    H270148   0.443   4.635  12.521 -1.4781 -0.2457 -0.0426
16245TIP3   OH270149   2.063   4.929  16.284  0.2018  0.1510  0.4949
16245TIP3    H170150   2.051   5.023  16.283  0.8545  0.2354 -0.3819
16245TIP3    H270151   2.058   4.905  16.377  0.3690  1.0882  0.7536
16246TIP3   OH270152   4.408   0.943  14.651 -0.1949  0.2868  0.2403
16246TIP3    H170153   4.327   0.960  14.603 -0.3950  0.1291  0.5187
16246TIP3    H270154   4.388   0.868  14.706  0.2483  0.0215  0.0519
16247TIP3   OH270155   3.083   3.523  11.024 -0.8146  0.0640 -0.0646
16247TIP3    H170156   3.019   3.593  11.013 -0.3333  0.9934  2.4461
16247TIP3    H270157   3.038   3.444  10.991 -1.9357  1.2482 -1.4948
16248TIP3   OH270158   1.153   2.244  14.359  0.5911  0.0581  0.1861
16248TIP3    H170159   1.210   2.320  14.368 -0.7272  1.1568 -0.4564
16248TIP3    H270160   1.064   2.279  14.364 -0.0590 -1.3412 -0.7444
16249TIP3   OH270161   4.105   3.592   5.388  0.2861 -0.7768  0.0206
16249TIP3    H170162   4.016   3.556   5.394  0.1710 -0.5394 -0.2355
16249TIP3    H270163   4.097   3.681   5.425  0.0177 -0.0793 -1.6280
16250TIP3   OH270164   5.407   3.760  13.213 -0.0841 -0.2869  0.4735
16250TIP3    H170165   5.403   3.674  13.173  1.6821 -0.3189  0.3065
16250TIP3    H270166   5.375   3.820  13.145 -0.4820 -0.7048  0.2908
16251TIP3   OH270167   0.781   0.223  13.852  0.5592  0.7909  0.7821
16251TIP3    H170168   0.745   0.249  13.936  0.0578 -0.4713  0.9681
16251TIP3    H270169   0.858   0.280  13.841 -1.4454  3.6290  0.3185
16252TIP3   OH270170   1.188   5.753  13.892 -0.6163 -0.6262  0.2054
16252TIP3    H170171   1.169   5.761  13.799 -0.3846 -3.5163 -0.1909
16252TIP3    H270172   1.264   5.809  13.907 -0.2699 -0.5984 -1.4956
16253TIP3   OH270173   4.744   1.839  16.292  0.1806  0.0405  0.0588
16253TIP3    H170174   4.727   1.816  16.201  1.3353  2.3533 -0.8270
16253TIP3    H270175   4.665   1.883  16.321  0.9885  2.4515 -1.0591
16254TIP3   OH270176   5.959   1.589   3.114 -0.0838 -0.4115 -0.3565
16254TIP3    H170177   5.991   1.677   3.093  1.0476 -0.3950  1.3089
16254TIP3    H270178   5.876   1.604   3.158  0.6901 -0.0650  1.0458
16255TIP3   OH270179   2.779   0.259   1.409 -0.2792 -0.0100 -0.1788
16255TIP3    H170180   2.748   0.169   1.406 -0.5505 -0.0022  1.4021
16255TIP3    H270181   2.874   0.252   1.395 -0.2521 -0.5791  0.2500
16256TIP3   OH270182   2.430   2.275  15.729  0.7634 -0.1758 -0.9499
16256TIP3    H170183   2.460   2.186  15.747 -0.2128 -0.5274 -0.9812
16256TIP3    H270184   2.354   2.287  15.786 -0.0763  0.0567 -2.0618
16257TIP3   OH270185   3.933   2.189  15.061  0.0365  0.3243  0.4254
16257TIP3    H170186   3.982   2.245  15.122  0.4028 -1.0533  1.4259
16257TIP3    H270187   3.842   2.194  15.091 -0.0959  1.0464 -0.0372
16258TIP3   OH270188   0.816   6.131  16.274  0.9499 -0.5879 -0.5764
16258TIP3    H170189   0.798   6.089  16.190  1.4864 -1.2278 -0.3801
16258TIP3    H270190   0.747   6.196  16.283 -1.1772 -2.8204  0.0945
16259TIP3   OH270191   2.941   6.581  16.431 -0.5422  0.0483 -0.1651
16259TIP3    H170192   2.913   6.504  16.480 -0.1125 -0.9919 -1.4959
16259TIP3    H270193   3.033   6.565  16.411 -0.7640  0.3259 -1.4907
16260TIP3   OH270194   3.690   1.863  14.695 -0.3018  0.0147 -0.3262
16260TIP3    H170195   3.781   1.872  14.668 -0.1113 -0.0739  0.2636
16260TIP3    H270196   3.639   1.892  14.620  0.1956 -0.9558 -1.0522
16261TIP3   OH270197   1.109   6.772  14.993  0.2039 -0.0980 -0.3284
16261TIP3    H170198   1.041   6.798  15.055  0.0223  0.3918 -0.7229
16261TIP3    H270199   1.070   6.787  14.907  1.1666  1.2050 -0.5737
16262TIP3   OH270200   6.718   1.021  10.588 -0.3986  0.3348 -0.3034
16262TIP3    H170201   6.731   1.092  10.651  1.6069  1.0404 -1.4196
16262TIP3    H270202   6.722   0.942  10.641  1.1171  0.9142  0.5197
16263TIP3   OH270203   3.397   3.446   0.452 -0.1974 -0.1183 -0.5334
16263TIP3    H170204   3.337   3.514   0.482  3.1504  2.9899 -0.1556
16263TIP3    H270205   3.425   3.476   0.366  1.2790 -1.0927 -0.4215
16264TIP3   OH270206   3.828   6.092  15.990  0.0911  0.0280 -0.7987
16264TIP3    H170207   3.886   6.081  15.915  1.1994  0.9794 -0.1102
16264TIP3    H270208   3.871   6.157  16.045 -1.0965 -0.0474  0.2774
16265TIP3   OH270209   0.297   2.869   3.658  0.0010  0.0469 -0.1350
16265TIP3    H170210   0.384   2.892   3.626  0.8483 -0.3638  1.7377
16265TIP3    H270211   0.238   2.929   3.612  1.1698 -0.0531 -1.8700
16266TIP3   OH270212   4.417   5.168   0.980 -0.1387 -0.5077  0.2451
16266TIP3    H170213   4.412   5.073   0.977  0.8522 -0.5458 -1.4419
16266TIP3    H270214   4.343   5.198   0.927 -0.1029 -0.3607  0.2780
16267TIP3   OH270215   2.178   2.448  15.709 -0.8253  0.3749 -0.6363
16267TIP3    H170216   2.189   2.425  15.801  0.8677  0.9725 -0.6651
16267TIP3    H270217   2.112   2.518  15.709  0.4009  1.5688  0.3094
16268TIP3   OH270218   6.042   2.434   1.702  0.3284  0.2564  0.3203
16268TIP3    H170219   6.119   2.491   1.696 -0.4413  1.2459 -0.4242
16268TIP3    H270220   5.971   2.493   1.727 -0.5288 -0.3176 -0.6940
16269TIP3   OH270221   0.363   1.934   3.426  0.3781 -0.0521 -0.4880
16269TIP3    H170222   0.296   1.866   3.417  2.0530 -1.7049 -0.9770
16269TIP3    H270223   0.362   1.957   3.519 -0.8891  0.0091 -0.4986
16270TIP3   OH270224   5.520   5.339   1.348 -0.5182  0.1400 -0.1024
16270TIP3    H170225   5.516   5.374   1.437  2.4705  0.4523 -0.0041
16270TIP3    H270226   5.537   5.414   1.292  1.8827 -0.5074 -0.3623
16271TIP3   OH270227   0.145   5.256   5.517  0.5605  0.1200 -0.8381
16271TIP3    H170228   0.135   5.184   5.579 -0.5657 -0.3079 -1.4823
16271TIP3    H270229   0.235   5.248   5.485  0.5427 -0.8358 -0.6796
16272TIP3   OH270230   0.017   5.396   1.946 -0.6630  0.0383 -1.2911
16272TIP3    H170231  -0.043   5.347   2.002  0.4301 -0.4229 -0.4646
16272TIP3    H270232   0.091   5.336   1.933  1.2968  1.7987  0.7804
16273TIP3   OH270233   1.374   3.741   4.253  0.0428 -0.1314  0.2812
16273TIP3    H170234   1.396   3.826   4.291 -0.3975 -0.6913  1.8505
16273TIP3    H270235   1.367   3.758   4.159  0.5535  1.4322  0.4972
16274TIP3   OH270236   5.328   1.853   0.270 -0.2882  0.8474 -0.1211
16274TIP3    H170237   5.364   1.819   0.351  0.1130  1.7861  0.1053
16274TIP3    H270238   5.267   1.922   0.298 -0.5696  0.7959 -0.5936
16275TIP3   OH270239   1.428   5.513   4.987  0.1075  0.1918 -0.3966
16275TIP3    H170240   1.417   5.442   5.050  1.7345 -1.5780 -1.9722
16275TIP3    H270241   1.367   5.491   4.916  0.1797  0.7294 -0.6294
16276TIP3   OH270242   3.436   5.126  11.937 -0.3738 -0.4253  0.3187
16276TIP3    H170243   3.375   5.105  12.007 -0.7251 -0.6585 -0.0568
16276TIP3    H270244   3.499   5.054  11.937 -0.6966 -0.7144  0.0341
16277TIP3   OH270245   2.414   5.117  15.737  0.8556  0.5468 -0.1613
16277TIP3    H170246   2.419   5.213  15.733  0.3501  0.5504 -1.1804
16277TIP3    H270247   2.485   5.087  15.680 -0.1294  0.3639 -1.3385
16278TIP3   OH270248   1.193   4.500  11.996  0.1610 -0.9601  0.2982
16278TIP3    H170249   1.157   4.487  12.084  0.3781 -0.4329  0.4736
16278TIP3    H270250   1.126   4.550  11.950 -0.0234 -1.3783  0.1086
16279TIP3   OH270251   6.090   2.930   6.067  0.1627  0.6635  0.6623
16279TIP3    H170252   6.022   2.903   6.129 -1.5811  0.9444 -1.0392
16279TIP3    H270253   6.158   2.862   6.075 -1.5729 -1.1967  0.4649
16280TIP3   OH270254   4.322   2.666  12.582 -0.5074  0.5308 -0.0800
16280TIP3    H170255   4.253   2.730  12.564  0.2567  1.1869 -0.7678
16280TIP3    H270256   4.372   2.662  12.501 -0.0564 -0.3404  0.2313
16281TIP3   OH270257   3.186   5.973   3.537  0.2654  0.2027 -0.0392
16281TIP3    H170258   3.158   6.059   3.506  0.6425  0.0363 -0.8749
16281TIP3    H270259   3.270   5.957   3.493 -0.0867 -0.8450 -0.3729
16282TIP3   OH270260   5.303   1.562  15.523  0.4080  0.1619  0.1034
16282TIP3    H170261   5.359   1.589  15.451 -1.6334 -0.0142 -1.6657
16282TIP3    H270262   5.292   1.642  15.576  1.5261  0.4264 -0.0333
16283TIP3   OH270263   6.563   1.057  11.483  0.4257  0.1984 -0.1515
16283TIP3    H170264   6.553   1.150  11.501 -0.1447  0.1920 -0.4011
16283TIP3    H270265   6.566   1.016  11.569 -0.0059  0.3871 -0.0416
16284TIP3   OH270266   5.580   1.206   4.672  0.4852  0.1878  1.0477
16284TIP3    H170267   5.495   1.182   4.635  1.0735 -0.4962  0.0863
16284TIP3    H270268   5.574   1.300   4.689  0.3754  0.6967 -1.4331
16285TIP3   OH270269   6.548   3.658  11.747 -0.5660 -0.1274 -0.4486
16285TIP3    H170270   6.612   3.631  11.813 -1.3176  1.7554  1.1726
16285TIP3    H270271   6.599   3.697  11.677  0.1559 -0.7279 -0.2726
16286TIP3   OH270272   6.507   3.629   3.548 -0.5314 -0.1766  0.1088
16286TIP3    H170273   6.587   3.643   3.497  0.9407  1.0694  2.5995
16286TIP3    H270274   6.445   3.593   3.484  1.2743  0.9239 -2.4658
16287TIP3   OH270275   6.152   1.282   3.801 -0.1947 -0.1538 -0.5136
16287TIP3    H170276   6.159   1.222   3.727 -0.9655  1.4750 -1.9793
16287TIP3    H270277   6.176   1.230   3.877  0.1835 -2.0096 -1.8536
16288TIP3   OH270278   4.093   3.891   4.403 -0.4536  0.2873 -0.0028
16288TIP3    H170279   4.018   3.877   4.346 -0.7065  1.4742  0.0221
16288TIP3    H270280   4.165   3.845   4.360 -0.9983 -0.1478 -0.4589
16289TIP3   OH270281   3.457   1.972  13.486  0.4796  0.0600  0.5173
16289TIP3    H170282   3.378   2.004  13.443  0.9594  2.7621  1.3941
16289TIP3    H270283   3.455   2.013  13.573  2.9796  0.5122  0.4415
16290TIP3   OH270284   5.608   0.557  12.201  0.2320  0.2820 -0.1034
16290TIP3    H170285   5.638   0.545  12.111  1.8255 -1.0710  0.5525
16290TIP3    H270286   5.658   0.631  12.235 -0.3443  0.7710 -0.2995
16291TIP3   OH270287   0.916   5.269   3.403  0.5650 -0.0741 -0.0390
16291TIP3    H170288   0.854   5.197   3.412  0.4402 -0.4940 -3.2431
16291TIP3    H270289   1.002   5.227   3.401  0.7782  0.2331  1.3082
16292TIP3   OH270290   1.005   1.458  13.037 -0.0341 -0.2292  0.2948
16292TIP3    H170291   1.032   1.452  13.129 -0.6000  2.3920  0.7033
16292TIP3    H270292   1.084   1.488  12.992 -0.2795  0.4014  0.2762
16293TIP3   OH270293   3.401   3.573  16.594  0.3430 -0.2144  1.0039
16293TIP3    H170294   3.369   3.591  16.505  3.0192 -1.1489 -0.2547
16293TIP3    H270295   3.366   3.487  16.615  0.3693 -0.3529  0.4981
16294TIP3   OH270296   0.648   1.959   0.078  0.2615  0.3090 -0.7886
16294TIP3    H170297   0.619   2.018   0.008  0.8751  0.2126 -1.1306
16294TIP3    H270298   0.611   1.996   0.157 -0.5219  0.3692 -1.1780
16295TIP3   OH270299   6.668   2.467   4.653 -0.8234  0.2901 -0.6761
16295TIP3    H170300   6.753   2.470   4.610 -1.4131  3.4147 -1.8776
16295TIP3    H270301   6.686   2.434   4.741  1.3077 -0.7837 -1.4456
16296TIP3   OH270302   0.298   5.801   4.228 -0.0834 -1.2292 -0.2023
16296TIP3    H170303   0.216   5.786   4.275 -0.8978 -1.8005 -1.7241
16296TIP3    H270304   0.362   5.746   4.274  0.4360  1.8353  3.2245
16297TIP3   OH270305   1.415   4.423   3.510 -0.3437  0.4240  0.5946
16297TIP3    H170306   1.427   4.328   3.513  1.0847  0.5788  0.4786
16297TIP3    H270307   1.474   4.456   3.578 -0.8591  1.2347  0.6604
16298TIP3   OH270308   3.302   5.113   1.066  0.5028  0.2361  0.0989
16298TIP3    H170309   3.247   5.101   0.989  2.2342 -0.3520 -1.1098
16298TIP3    H270310   3.254   5.071   1.137 -1.1824  0.8954 -0.6141
16299TIP3   OH270311   1.679   5.051   3.743  0.2075 -0.1655 -0.6995
16299TIP3    H170312   1.707   5.045   3.651 -0.1732 -3.0732 -0.7199
16299TIP3    H270313   1.674   4.960   3.772 -4.3954  0.3185  0.7699
16300TIP3   OH270314   2.934   6.074   5.356 -0.2275  0.1610 -0.7405
16300TIP3    H170315   2.860   6.114   5.403 -0.8957 -1.0758 -0.7044
16300TIP3    H270316   2.967   6.007   5.416  0.3764  0.1131 -1.1201
16301TIP3   OH270317   2.681   5.912  15.704 -0.1852  0.2380  0.0558
16301TIP3    H170318   2.639   5.858  15.771  0.4536  0.7414  0.8804
16301TIP3    H270319   2.734   5.974  15.753 -1.2681  1.9446 -0.8470
16302TIP3   OH270320   0.845   1.538  12.704  0.1591 -0.2051 -0.1126
16302TIP3    H170321   0.940   1.530  12.706  0.0513 -1.7935  0.0398
16302TIP3    H270322   0.820   1.560  12.794  0.3734  0.1616 -0.1431
16303TIP3   OH270323   3.272   3.454  16.975  0.0966 -0.1365 -0.1056
16303TIP3    H170324   3.359   3.477  17.008 -0.2283 -0.1744  0.8250
16303TIP3    H270325   3.212   3.499  17.035 -0.5239 -0.2542 -0.6335
16304TIP3   OH270326   4.667   5.416  14.785  0.3666 -0.3969  0.1985
16304TIP3    H170327   4.647   5.372  14.703  1.0498 -3.0994  1.3698
16304TIP3    H270328   4.762   5.421  14.788  0.3841 -0.9782  1.1089
16305TIP3   OH270329   6.397   5.542   0.945  0.0578 -0.2418  0.0677
16305TIP3    H170330   6.375   5.484   0.871  1.1088  1.8796 -2.0629
16305TIP3    H270331   6.488   5.566   0.930  0.0570  0.8662  1.6528
16306TIP3   OH270332   1.515   0.900   3.533  1.0014 -1.1380 -0.2613
16306TIP3    H170333   1.445   0.835   3.525 -2.3510  2.2307 -1.5722
16306TIP3    H270334   1.490   0.954   3.608  1.0369  1.2856 -1.8739
16307TIP3   OH270335   4.515   2.309  13.189  0.6608  0.1463 -0.2957
16307TIP3    H170336   4.536   2.382  13.131  0.5947  0.8560  0.5453
16307TIP3    H270337   4.600   2.276  13.219  0.6835  1.3751  1.1109
16308TIP3   OH270338   0.716   1.595   4.076  0.2659 -0.0846  0.0639
16308TIP3    H170339   0.810   1.584   4.061  0.2183 -0.6650  0.1563
16308TIP3    H270340   0.682   1.628   3.993  0.6067  0.4787  0.1446
16309TIP3   OH270341   5.740   6.104  15.288  0.2790 -0.3262  0.5333
16309TIP3    H170342   5.653   6.095  15.250  0.2891 -0.5168  0.5568
16309TIP3    H270343   5.725   6.143  15.374  0.1431 -1.1750  0.9033
16310TIP3   OH270344   4.325   2.495  10.921  0.3666 -0.8070  0.3429
16310TIP3    H170345   4.289   2.582  10.910  0.3871 -0.7201  0.9265
16310TIP3    H270346   4.378   2.480  10.842  0.3823 -0.2855  0.2543
16311TIP3   OH270347   5.761   0.693   4.588 -0.3325 -0.0967 -0.1608
16311TIP3    H170348   5.833   0.753   4.571  1.0116 -1.7796 -0.6068
16311TIP3    H270349   5.759   0.634   4.512 -1.0795 -1.1386  0.6265
16312TIP3   OH270350   1.625   6.583   5.841  0.3681 -0.5462 -0.1320
16312TIP3    H170351   1.547   6.583   5.786  1.0221  1.2005 -1.1540
16312TIP3    H270352   1.682   6.518   5.802  0.0591 -0.6830 -0.3598
16313TIP3   OH270353   3.131   4.485   6.364  0.0843  0.0694  0.1223
16313TIP3    H170354   3.039   4.478   6.390  0.0749  0.8024  0.2961
16313TIP3    H270355   3.157   4.395   6.345 -0.2596 -0.3370  1.4813
16314TIP3   OH270356   6.451   3.739   2.141 -0.0443  0.2848  0.3618
16314TIP3    H170357   6.477   3.740   2.233 -0.7881 -0.1493  0.5852
16314TIP3    H270358   6.422   3.649   2.125  1.0659  0.0729 -0.5835
16315TIP3   OH270359   2.016   6.707   3.003  0.8096  0.2148 -0.3685
16315TIP3    H170360   1.999   6.732   2.912 -1.5226 -0.8383 -0.3030
16315TIP3    H270361   1.959   6.764   3.055  1.8236  0.5305  0.4261
16316TIP3   OH270362   0.091   3.408  16.134 -0.1352  0.0502 -0.0356
16316TIP3    H170363   0.144   3.482  16.164  1.1405 -0.4115 -1.0979
16316TIP3    H270364   0.111   3.401  16.041  0.8894 -2.5487  0.3229
16317TIP3   OH270365   5.065   4.033   0.641 -0.1706 -0.0581 -0.3017
16317TIP3    H170366   5.049   3.956   0.696  0.2234  1.5468  2.1972
16317TIP3    H270367   5.137   4.007   0.583  1.3086 -0.9730  1.8456
16318TIP3   OH270368   1.316   6.719   3.790 -0.6308 -0.6821  0.1630
16318TIP3    H170369   1.367   6.682   3.862  3.5036  1.1471 -1.4896
16318TIP3    H270370   1.279   6.800   3.826  2.9320  1.2140  0.0575
16319TIP3   OH270371   4.936   6.444  13.624 -0.4875 -0.1628 -0.2892
16319TIP3    H170372   4.857   6.396  13.598 -0.9778  1.0203 -1.0704
16319TIP3    H270373   4.903   6.526  13.661  0.3438 -0.3490  0.9072
16320TIP3   OH270374   0.353   1.182  16.818  0.3654  0.3650  0.1463
16320TIP3    H170375   0.309   1.097  16.814 -0.8896  1.0135 -0.5239
16320TIP3    H270376   0.362   1.208  16.727  0.5983  1.0156  0.3536
16321TIP3   OH270377   4.078   1.492  17.197  0.0110  0.2601 -0.3159
16321TIP3    H170378   4.022   1.415  17.203  1.3931 -0.6775  1.6134
16321TIP3    H270379   4.046   1.550  17.266  0.2094  0.5796 -0.4905
16322TIP3   OH270380   5.670   4.054   5.260 -0.1611 -0.5397 -0.2122
16322TIP3    H170381   5.730   3.980   5.261  0.1434 -0.3157 -0.9797
16322TIP3    H270382   5.706   4.115   5.324  0.0861 -0.6765 -0.2204
16323TIP3   OH270383   2.211   3.971  13.005 -0.1593 -0.0121  0.2983
16323TIP3    H170384   2.232   3.897  13.062  3.5901  0.8454  0.3093
16323TIP3    H270385   2.253   3.950  12.921 -1.5034  0.8418 -0.6278
16324TIP3   OH270386   4.430   6.242  12.020  0.1569  0.2221 -0.3803
16324TIP3    H170387   4.373   6.263  12.094  1.1999  1.1994  0.1617
16324TIP3    H270388   4.385   6.278  11.944 -0.9272 -0.7968 -0.2468
16325TIP3   OH270389   0.166   2.446   1.540  0.1772 -0.8235  0.4650
16325TIP3    H170390   0.250   2.407   1.564  0.2690 -0.8822  0.0489
16325TIP3    H270391   0.101   2.381   1.567  0.2556 -0.7485  0.8513
16326TIP3   OH270392   2.266   1.406  11.513  0.0185  0.3772 -0.2951
16326TIP3    H170393   2.194   1.463  11.485 -0.9035  0.4043  1.9624
16326TIP3    H270394   2.314   1.458  11.577 -0.1297 -0.9385  0.9202
16327TIP3   OH270395   2.524   0.598   3.556  0.4064 -0.0201 -0.5799
16327TIP3    H170396   2.577   0.523   3.583 -0.7208 -1.0058 -0.9919
16327TIP3    H270397   2.513   0.586   3.461  1.1779  1.3252 -0.8648
16328TIP3   OH270398   0.148   1.275  14.749  0.0865  0.0343  0.8678
16328TIP3    H170399   0.081   1.295  14.683 -1.0223 -1.3380  1.5242
16328TIP3    H270400   0.175   1.360  14.782 -1.8434  0.6496  1.0305
16329TIP3   OH270401   2.019   5.797   4.165 -0.1972 -0.0278 -0.6603
16329TIP3    H170402   2.111   5.778   4.180 -0.1383  1.0098  0.4239
16329TIP3    H270403   1.989   5.838   4.246 -1.4657  0.1651 -1.2030
16330TIP3   OH270404   6.593   3.580  15.918 -0.4545  0.1370 -0.1880
16330TIP3    H170405   6.543   3.577  15.836 -1.5615  1.1671  0.4126
16330TIP3    H270406   6.533   3.622  15.980 -0.0346 -1.5691  1.4392
16331TIP3   OH270407   6.237   6.741   1.272  0.0408  0.2176 -0.7286
16331TIP3    H170408   6.220   6.822   1.320  1.1696  0.9079 -1.4300
16331TIP3    H270409   6.274   6.770   1.188 -0.5561 -1.0005 -1.4439
16332TIP3   OH270410   4.131   4.585   0.400  0.3127 -0.0438  0.0501
16332TIP3    H170411   4.194   4.657   0.395  0.3573 -0.0464  0.5598
16332TIP3    H270412   4.121   4.567   0.493  0.3213 -0.7179 -0.0682
16333TIP3   OH270413   2.236   3.531   4.456 -0.3842  0.7691 -0.0948
16333TIP3    H170414   2.204   3.507   4.368 -0.3667  0.3910 -0.0016
16333TIP3    H270415   2.257   3.447   4.497 -1.2366  0.8781  0.5951
16334TIP3   OH270416   0.305   0.526   6.182 -0.1364 -0.1897 -0.1602
16334TIP3    H170417   0.308   0.553   6.091  0.6130 -1.1873 -0.4524
16334TIP3    H270418   0.345   0.439   6.183 -2.2559 -1.2418  0.7565
16335TIP3   OH270419   2.148   1.277  13.563  0.5671  0.1712 -0.7217
16335TIP3    H170420   2.077   1.230  13.608  2.0092 -0.1522  1.3565
16335TIP3    H270421   2.190   1.210  13.509  0.8793 -0.2842  0.0681
16336TIP3   OH270422   6.429   0.947  11.274  0.0485  0.3260 -0.0505
16336TIP3    H170423   6.443   1.025  11.220 -1.4012  1.3456  0.9718
16336TIP3    H270424   6.470   0.968  11.358 -1.0703  0.3604  0.5088
16337TIP3   OH270425   2.209   1.006   6.614 -0.0047  0.6395 -0.4003
16337TIP3    H170426   2.166   1.054   6.686  0.4764  0.8879 -0.2766
16337TIP3    H270427   2.235   1.074   6.552 -0.2946  0.4358 -0.7520
16338TIP3   OH270428   0.377   3.837  15.422 -1.0660 -0.2486 -0.5636
16338TIP3    H170429   0.453   3.778  15.426  0.0688  1.2369  0.9153
16338TIP3    H270430   0.381   3.887  15.503 -2.1647  1.6767 -1.6252
16339TIP3   OH270431   2.749   5.297  10.855 -0.0221 -0.1133  0.1930
16339TIP3    H170432   2.823   5.345  10.892 -0.0139 -0.0800  0.1325
16339TIP3    H270433   2.782   5.208  10.842  0.5816  0.3295 -1.5543
16340TIP3   OH270434   0.209   5.681  16.819  0.0634  0.2853 -0.0650
16340TIP3    H170435   0.238   5.738  16.890  1.3921 -0.6640  0.1889
16340TIP3    H270436   0.125   5.718  16.791  0.7201  2.1418  0.3066
16341TIP3   OH270437   0.767   2.517   4.630  0.3127  0.6109  0.1500
16341TIP3    H170438   0.846   2.478   4.669  0.4089  1.5392  0.9071
16341TIP3    H270439   0.764   2.606   4.665 -2.2081 -0.0304  1.8411
16342TIP3   OH270440   0.137   3.872   4.650 -0.5808 -0.2756  0.2670
16342TIP3    H170441   0.105   3.856   4.561  0.1553  2.0217 -0.4960
16342TIP3    H270442   0.141   3.968   4.657  2.0143 -0.3921  1.7693
16343TIP3   OH270443   4.522   0.471  11.922  0.3139 -0.2406  0.4553
16343TIP3    H170444   4.598   0.493  11.976 -0.0293  1.3228  0.3585
16343TIP3    H270445   4.539   0.514  11.839  0.8189 -2.5987 -0.7334
16344TIP3   OH270446   3.297   1.470  12.363  0.1917  0.1874  0.3553
16344TIP3    H170447   3.313   1.440  12.452 -2.6796  1.5821  1.4976
16344TIP3    H270448   3.206   1.502  12.365  0.1381  0.6060 -2.9867
16345TIP3   OH270449   1.531   4.191   4.200 -0.3765  0.3983 -0.6832
16345TIP3    H170450   1.509   4.259   4.136  0.7527  2.0714  0.6261
16345TIP3    H270451   1.624   4.175   4.186 -0.3998 -0.1141 -0.2564
16346TIP3   OH270452   3.340   1.640  15.269  0.1530  0.2782  0.2670
16346TIP3    H170453   3.279   1.651  15.341  1.6314  1.1917  1.4420
16346TIP3    H270454   3.338   1.724  15.222 -1.5908 -0.6523 -1.4801
16347TIP3   OH270455   2.826   2.748   4.328 -0.2263  0.3921 -0.1212
16347TIP3    H170456   2.801   2.753   4.421 -0.8527 -1.6055 -0.1501
16347TIP3    H270457   2.756   2.698   4.287  0.8581 -0.1351 -1.3832
16348TIP3   OH270458   3.337   2.175   0.307  0.2422  0.2388 -0.4032
16348TIP3    H170459   3.344   2.259   0.262 -0.6578  0.3645 -0.3213
16348TIP3    H270460   3.243   2.164   0.323  0.5636  1.2459  3.3172
16349TIP3   OH270461   6.279   0.481  12.485 -0.3554 -0.3050 -0.3428
16349TIP3    H170462   6.245   0.513  12.569 -2.1221 -1.2086 -0.6564
16349TIP3    H270463   6.266   0.554  12.425 -1.5695 -0.5410 -0.3931
16350TIP3   OH270464   0.281   4.096  13.162  0.0620  0.3522  0.4744
16350TIP3    H170465   0.360   4.042  13.161  0.1960  0.3858  2.9319
16350TIP3    H270466   0.312   4.185  13.143  0.4679  0.2077  0.4672
16351TIP3   OH270467   5.379   2.743   0.932 -0.2396  0.4049 -0.2493
16351TIP3    H170468   5.382   2.743   1.027  2.1596  0.2774 -0.2634
16351TIP3    H270469   5.393   2.835   0.908 -1.5911  0.5659 -0.5095
16352TIP3   OH270470   5.434   6.504   3.662 -0.3932  0.1416  0.8344
16352TIP3    H170471   5.461   6.439   3.727  1.6445 -0.2837 -0.3818
16352TIP3    H270472   5.338   6.500   3.665 -0.3575 -1.0109  2.6424
16353TIP3   OH270473   3.609   2.392   0.092 -0.0030  0.8674  0.0016
16353TIP3    H170474   3.653   2.472   0.065 -0.5679  1.7404  1.5233
16353TIP3    H270475   3.515   2.412   0.085 -0.1575  0.6057  1.0444
16354TIP3   OH270476   4.308   2.090  15.159  0.0007  0.2406 -0.4252
16354TIP3    H170477   4.291   2.100  15.066  0.9906  0.0005 -0.6370
16354TIP3    H270478   4.222   2.071  15.197 -0.2766 -0.4977 -1.3999
16355TIP3   OH270479   5.558   3.129  16.235 -0.1954  0.0759 -0.6338
16355TIP3    H170480   5.512   3.051  16.266  1.3478 -0.2158  1.1009
16355TIP3    H270481   5.493   3.199  16.240 -1.4425 -0.9494 -1.6811
16356TIP3   OH270482   6.771   6.516  11.485 -0.2083  0.5686 -0.3406
16356TIP3    H170483   6.741   6.585  11.544  0.8215  0.2326  0.5994
16356TIP3    H270484   6.700   6.451  11.487 -0.8720  1.2665 -0.7027
16357TIP3   OH270485   6.062   0.404  10.444  0.2706  0.2442 -0.1827
16357TIP3    H170486   6.061   0.495  10.475  2.8788 -0.4055  2.2964
16357TIP3    H270487   6.149   0.392  10.407  0.2341 -1.4095  0.1830
16358TIP3   OH270488   6.410   3.037   2.330  0.3635 -0.7859 -0.5316
16358TIP3    H170489   6.314   3.037   2.330  0.3171 -2.6886  0.4199
16358TIP3    H270490   6.433   3.086   2.409  0.1388 -1.0073 -0.3233
16359TIP3   OH270491   5.578   4.754  15.792  0.5348 -0.0087  0.1081
16359TIP3    H170492   5.584   4.811  15.868 -1.8197 -1.1318  1.2438
16359TIP3    H270493   5.527   4.803  15.728 -0.0051 -0.1685  0.4130
16360TIP3   OH270494   5.367   2.247  14.356 -0.2073 -0.2164 -0.5180
16360TIP3    H170495   5.377   2.198  14.437 -0.1838  2.0640  0.9266
16360TIP3    H270496   5.349   2.180  14.290  1.6246 -2.3097  0.9829
16361TIP3   OH270497   0.950   5.881  16.308 -0.5996 -0.2904 -0.1664
16361TIP3    H170498   1.041   5.878  16.337 -0.1864 -0.8971 -1.4491
16361TIP3    H270499   0.919   5.968  16.335  0.5282  0.1446 -0.1989
16362TIP3   OH270500   1.152   2.067  16.118  0.1544  0.4804 -0.4081
16362TIP3    H170501   1.079   2.092  16.062  0.0568  1.6117  0.1903
16362TIP3    H270502   1.228   2.069  16.061 -0.3095 -1.1790 -1.1557
16363TIP3   OH270503   0.961   3.767  14.987 -0.5709  0.6014 -0.2757
16363TIP3    H170504   0.981   3.752  15.079 -0.8533  1.1699 -0.1134
16363TIP3    H270505   0.931   3.858  14.984  1.5750  1.3475 -1.2676
16364TIP3   OH270506   1.225   0.400   4.946  0.0163 -0.4232 -0.0890
16364TIP3    H170507   1.279   0.479   4.939  1.1661 -1.2406 -0.8092
16364TIP3    H270508   1.136   0.432   4.961  0.3672  1.0283 -0.9683
16365TIP3   OH270509   3.679   0.132   5.873  0.4795  0.0525  0.7037
16365TIP3    H170510   3.663   0.192   5.800  1.3902 -2.6136 -1.8884
16365TIP3    H270511   3.599   0.080   5.879  0.5874 -0.0470  1.3257
16366TIP3   OH270512   6.385   3.469   2.157  0.1860 -0.3213  1.0532
16366TIP3    H170513   6.358   3.463   2.066 -0.7569 -0.6179  1.3379
16366TIP3    H270514   6.305   3.451   2.207  0.8435 -0.9135  1.9305
16367TIP3   OH270515   3.914   2.469   4.603 -0.7124 -0.2115 -0.1997
16367TIP3    H170516   3.896   2.485   4.510 -0.3125  0.5669 -0.1511
16367TIP3    H270517   3.941   2.554   4.637 -0.9922 -0.4621  0.6677
16368TIP3   OH270518   3.946   6.558   3.918  0.9964  0.5981  0.0481
16368TIP3    H170519   4.040   6.561   3.901  0.8963 -0.3568 -0.6934
16368TIP3    H270520   3.907   6.603   3.843  0.7786 -0.3363 -0.4068
16369TIP3   OH270521   6.680   0.303   3.813 -0.0023 -0.1303  0.2344
16369TIP3    H170522   6.676   0.253   3.895 -0.2451 -0.9300 -0.2593
16369TIP3    H270523   6.723   0.385   3.838 -0.7229 -0.0535  1.3178
16370TIP3   OH270524   0.950   5.242  11.094 -0.0966 -0.3947  0.8940
16370TIP3    H170525   0.923   5.320  11.143 -0.8275  1.7390 -2.5873
16370TIP3    H270526   1.030   5.213  11.138 -0.1214  1.9578  2.6790
16371TIP3   OH270527   2.943   4.285   5.651  0.2479 -0.3537 -0.5333
16371TIP3    H170528   2.964   4.206   5.700 -1.1740 -0.8062 -0.6111
16371TIP3    H270529   2.852   4.273   5.624 -0.6838  2.1357  1.1117
16372TIP3   OH270530   3.717   3.533   3.314  0.0830  0.6584 -0.3064
16372TIP3    H170531   3.651   3.599   3.298 -0.2114  0.1621 -1.2017
16372TIP3    H270532   3.675   3.470   3.373 -0.5891 -0.1334 -1.5793
16373TIP3   OH270533   5.388   0.322  11.277  0.5113 -0.2572  0.1931
16373TIP3    H170534   5.393   0.230  11.249 -1.6743 -0.3152 -0.1973
16373TIP3    H270535   5.332   0.320  11.355  0.0913  0.7849 -0.0622
16374TIP3   OH270536   4.295   3.797  17.050 -0.2770  0.5759 -0.0716
16374TIP3    H170537   4.390   3.787  17.044 -0.3973  0.0342 -1.2494
16374TIP3    H270538   4.261   3.751  16.974 -1.4791  0.9802  0.2019
16375TIP3   OH270539   2.673   2.428  14.043 -0.0659  0.1410 -0.0014
16375TIP3    H170540   2.582   2.439  14.071  0.3297  1.0732  1.0221
16375TIP3    H270541   2.714   2.511  14.065  0.8197  0.0968 -1.3741
16376TIP3   OH270542   2.830   3.315   2.050  0.0213  0.3922  0.4863
16376TIP3    H170543   2.901   3.261   2.085 -0.4691  0.0576  0.9753
16376TIP3    H270544   2.750   3.279   2.089 -0.3501  1.2577  0.5517
16377TIP3   OH270545   1.492   4.926  11.457 -0.8750 -0.2868 -0.0782
16377TIP3    H170546   1.560   4.956  11.517  1.0543 -0.5658 -2.0149
16377TIP3    H270547   1.500   4.830  11.458 -0.5654 -0.2785 -1.0375
16378TIP3   OH270548   4.063   2.256   0.523 -0.4550 -0.2393 -0.2324
16378TIP3    H170549   4.031   2.339   0.557 -2.0203 -0.2866 -1.4793
16378TIP3    H270550   4.128   2.280   0.457  0.7323 -0.0945  0.9495
16379TIP3   OH270551   6.319   3.190  14.452 -0.2535  0.2853 -0.2048
16379TIP3    H170552   6.241   3.148  14.491  0.1993  0.5934  1.0860
16379TIP3    H270553   6.350   3.250  14.520  0.5373  0.9105 -1.0952
16380TIP3   OH270554   1.946   2.507  12.426  0.1153 -0.0417 -0.5268
16380TIP3    H170555   1.966   2.542  12.513 -1.0527 -0.1543 -0.1972
16380TIP3    H270556   1.945   2.412  12.438  2.3472 -0.2251 -1.2186
16381TIP3   OH270557   4.936   1.459   0.137 -0.1716 -0.0073 -0.8249
16381TIP3    H170558   5.009   1.433   0.193 -0.2747 -0.4933 -0.9057
16381TIP3    H270559   4.970   1.530   0.083  0.3477 -0.4574 -1.0987
16382TIP3   OH270560   0.817   2.998   0.260  0.0263  0.3070  0.1179
16382TIP3    H170561   0.859   2.924   0.306 -0.5649  0.0524  0.2542
16382TIP3    H270562   0.724   2.985   0.275 -0.2274 -0.0768 -1.6191
16383TIP3   OH270563   6.004   6.706   4.904 -0.7378  0.6297  0.0252
16383TIP3    H170564   5.978   6.743   4.819  0.5019 -0.0762 -0.6976
16383TIP3    H270565   6.093   6.739   4.918 -0.6996  0.2325  0.7560
16384TIP3   OH270566   3.064   0.266   0.282  0.1582  0.2296 -0.2262
16384TIP3    H170567   3.035   0.248   0.371  0.3613  1.0647  0.0206
16384TIP3    H270568   3.102   0.184   0.252 -0.1179 -0.1245  0.3753
16385TIP3   OH270569   4.668   4.911   2.646  0.2479  0.2185 -0.3586
16385TIP3    H170570   4.702   4.948   2.727 -2.1430  0.1398  0.7774
16385TIP3    H270571   4.616   4.982   2.608 -2.4703 -1.0831  0.6490
16386TIP3   OH270572   4.432   0.633  16.534  0.5341 -0.5855 -0.7903
16386TIP3    H170573   4.436   0.725  16.510  1.7444 -0.1249  1.0270
16386TIP3    H270574   4.339   0.615  16.544  0.3513  1.2753  1.7203
16387TIP3   OH270575   1.789   0.469  14.942  0.1807  0.2241  0.8993
16387TIP3    H170576   1.831   0.399  14.892 -1.0308 -0.0702  0.2405
16387TIP3    H270577   1.757   0.530  14.876 -1.8570 -0.4046  1.2265
16388TIP3   OH270578   0.868   1.120  15.031 -0.0280  0.0705 -0.0706
16388TIP3    H170579   0.938   1.148  15.090 -0.3625 -0.4009  0.5624
16388TIP3    H270580   0.800   1.085  15.089  0.0665 -1.3466 -0.7807
16389TIP3   OH270581   1.498   1.607  12.329  0.3204 -0.3904  0.0681
16389TIP3    H170582   1.517   1.542  12.396 -1.2278 -0.5769  0.3745
16389TIP3    H270583   1.413   1.581  12.293 -0.1586  1.2070 -0.0797
16390TIP3   OH270584   0.070   1.568   3.546 -0.3727  0.2786 -0.3257
16390TIP3    H170585   0.166   1.568   3.554 -0.4536 -0.4802  0.9316
16390TIP3    H270586   0.048   1.658   3.523  0.4924  1.0535  1.7048
16391TIP3   OH270587   6.347   3.987  15.822  0.3848 -0.1573 -0.0370
16391TIP3    H170588   6.394   3.958  15.744  0.4474  2.2839 -0.9895
16391TIP3    H270589   6.255   3.985  15.795  0.4318  1.0458 -0.3486
16392TIP3   OH270590   2.874   3.617   5.392 -0.3010 -0.6511 -0.0371
16392TIP3    H170591   2.805   3.559   5.359 -0.0137 -2.8398  2.8431
16392TIP3    H270592   2.954   3.587   5.350 -0.5875 -0.2837 -0.8651
16393TIP3   OH270593   0.194   2.239  14.720 -0.2270  0.2499 -0.1452
16393TIP3    H170594   0.218   2.272  14.806 -1.6241  1.2305 -0.1032
16393TIP3    H270595   0.273   2.252  14.666  0.2282  0.8166  0.6449
16394TIP3   OH270596   1.187   3.576   0.235 -0.0757  0.4179  0.1080
16394TIP3    H170597   1.112   3.552   0.290 -0.2263  2.0070  0.6298
16394TIP3    H270598   1.152   3.637   0.171  0.2241 -0.9674 -1.4588
16395TIP3   OH270599   0.268   6.438   0.965 -0.4292 -0.4527 -0.6143
16395TIP3    H170600   0.295   6.487   0.887 -0.0188  0.1427 -0.1092
16395TIP3    H270601   0.191   6.486   0.997  1.7325  1.8247  1.6441
16396TIP3   OH270602   1.403   1.476  10.553 -0.2751  0.2908 -0.2223
16396TIP3    H170603   1.418   1.566  10.524  1.1985 -0.2586 -1.2953
16396TIP3    H270604   1.480   1.428  10.523 -1.5893 -1.6061 -0.7438
16397TIP3   OH270605   1.917   3.719  11.528  0.7749  0.0257  0.1778
16397TIP3    H170606   1.945   3.630  11.503 -1.7067 -0.6713 -0.3675
16397TIP3    H270607   1.852   3.743  11.462  2.2852  2.8338 -0.4513
16398TIP3   OH270608   5.338   6.634  16.342 -0.4998  0.0401  0.2158
16398TIP3    H170609   5.402   6.670  16.404 -1.0430  1.1153  0.1683
16398TIP3    H270610   5.336   6.698  16.271 -0.4256 -0.8154 -0.5798
16399TIP3   OH270611   4.155   5.887  15.300 -0.5420 -0.3170  0.1132
16399TIP3    H170612   4.231   5.851  15.346 -1.9243 -1.2067  1.8024
16399TIP3    H270613   4.095   5.814  15.291 -1.5245  0.5327 -0.5239
16400TIP3   OH270614   1.690   0.600  14.739  0.1038 -0.4837 -0.1718
16400TIP3    H170615   1.768   0.646  14.708  0.6407 -2.4564 -2.0427
16400TIP3    H270616   1.617   0.651  14.705  0.5720  0.5072  0.2454
16401TIP3   OH270617   2.967   6.416  15.256  0.5056 -0.4576 -0.6893
16401TIP3    H170618   2.941   6.500  15.295  1.5642 -0.4713  0.0834
16401TIP3    H270619   2.885   6.367  15.251 -0.3687  1.0576 -2.3430
16402TIP3   OH270620   4.323   4.995  13.316  0.1553 -0.0394  0.3399
16402TIP3    H170621   4.268   4.972  13.391  0.0597 -3.0957 -0.5234
16402TIP3    H270622   4.403   4.944  13.329  1.3581  1.6476 -0.2008
16403TIP3   OH270623   3.131   6.163  16.722  0.2590  0.6745 -0.3411
16403TIP3    H170624   3.150   6.168  16.628  0.1262  0.5007 -0.3786
16403TIP3    H270625   3.215   6.181  16.764  0.2958  0.8594 -0.4915
16404TIP3   OH270626   6.456   6.056   1.651  0.4186  0.2886 -0.1953
16404TIP3    H170627   6.385   6.053   1.715  1.4260 -0.0437  0.9308
16404TIP3    H270628   6.451   6.145   1.615  0.4974  0.8500  1.1245
16405TIP3   OH270629   3.943   1.403  13.719 -0.0635 -0.7650  0.3078
16405TIP3    H170630   4.038   1.406  13.726  0.1015  2.7343 -1.4015
16405TIP3    H270631   3.914   1.492  13.739 -2.9926 -1.6595  0.6010
16406TIP3   OH270632   1.384   2.612   3.424  0.3957 -0.2026  0.3485
16406TIP3    H170633   1.389   2.594   3.330 -1.7167  2.6096 -0.4403
16406TIP3    H270634   1.469   2.650   3.446 -0.0959  2.0106 -1.2314
16407TIP3   OH270635   3.049   4.598  15.836  0.1896 -0.2662 -0.6230
16407TIP3    H170636   3.047   4.613  15.741 -2.7222  0.9812 -0.4557
16407TIP3    H270637   3.133   4.635  15.864  0.5495  0.4863 -2.5207
16408TIP3   OH270638   5.825   6.723   0.262 -0.5143 -0.0095  0.0126
16408TIP3    H170639   5.755   6.726   0.328 -0.1171 -0.2292  0.4423
16408TIP3    H270640   5.778   6.726   0.179 -1.0796 -0.9511  0.2854
16409TIP3   OH270641   5.525   0.958  13.967 -0.2493 -0.3235  0.3250
16409TIP3    H170642   5.455   0.914  13.919  0.6452 -1.2296 -0.2040
16409TIP3    H270643   5.597   0.894  13.968  1.1171  1.1258 -0.4914
16410TIP3   OH270644   0.909   2.608   6.004 -0.4162 -0.3863  0.1560
16410TIP3    H170645   0.998   2.592   6.035 -0.3433 -0.1218  0.0860
16410TIP3    H270646   0.881   2.686   6.051 -1.2821 -1.4958  1.5505
16411TIP3   OH270647   5.570   3.111  14.783  0.5565 -0.5308  0.1527
16411TIP3    H170648   5.570   3.086  14.691 -3.1167  1.5378 -0.5979
16411TIP3    H270649   5.611   3.037  14.828  0.7963 -2.4400 -2.9267
16412TIP3   OH270650   4.285   2.760  10.830 -0.3832  0.2725 -0.3086
16412TIP3    H170651   4.336   2.837  10.856 -0.0341  0.5021 -1.6144
16412TIP3    H270652   4.218   2.794  10.771  0.0023 -0.4651 -1.1909
16413TIP3   OH270653   4.842   6.073   2.689 -0.2185 -0.5727 -0.4188
16413TIP3    H170654   4.919   6.019   2.670 -0.9201 -2.6942  2.0091
16413TIP3    H270655   4.784   6.060   2.614  1.7608  1.2458 -2.3938
16414TIP3   OH270656   6.721   2.583   6.022  0.1644  0.1360  0.0026
16414TIP3    H170657   6.714   2.622   6.109 -0.8903  1.2933 -0.5720
16414TIP3    H270658   6.655   2.514   6.021  0.5200 -0.2137  0.2770
16415TIP3   OH270659   5.442   3.963  14.604 -0.5785 -0.0707 -0.0807
16415TIP3    H170660   5.406   4.046  14.572  0.6270 -0.0912 -1.6589
16415TIP3    H270661   5.443   3.907  14.527  1.7045 -0.4265  0.1499
16416TIP3   OH270662   2.356   6.731  14.180  0.6233  0.3335 -0.3698
16416TIP3    H170663   2.358   6.794  14.251  0.5024  1.2556 -1.1603
16416TIP3    H270664   2.395   6.777  14.106 -0.3010 -0.2026 -1.2126
16417TIP3   OH270665   3.488   0.477   1.491  0.2251  0.3554 -0.6489
16417TIP3    H170666   3.580   0.485   1.516  0.6947  0.7851 -2.3494
16417TIP3    H270667   3.440   0.524   1.559  1.0075 -1.7735  1.5161
16418TIP3   OH270668   0.790   3.522   3.518  0.0214  0.1606  0.6125
16418TIP3    H170669   0.800   3.446   3.575 -0.9868  0.0143  0.6160
16418TIP3    H270670   0.798   3.487   3.429 -0.1222  0.0957  0.6238
16419TIP3   OH270671   4.490   6.622   3.155 -0.0199 -0.1666  0.3372
16419TIP3    H170672   4.546   6.579   3.220 -0.7199 -0.6319  0.6517
16419TIP3    H270673   4.545   6.691   3.118  0.6190 -0.3350  0.9365
16420TIP3   OH270674   1.864   3.660   3.808 -0.0910 -0.0585  0.2016
16420TIP3    H170675   1.773   3.685   3.798 -0.9485 -3.4481 -2.2625
16420TIP3    H270676   1.873   3.641   3.902 -1.8455  0.5532  0.5319
16421TIP3   OH270677   3.378   4.605  14.869 -0.7648 -0.3384  0.6791
16421TIP3    H170678   3.302   4.626  14.815 -0.1598 -1.3884 -0.6390
16421TIP3    H270679   3.452   4.643  14.823 -0.4706  0.8547  2.0616
16422TIP3   OH270680   0.258   1.596  15.035 -0.5717 -0.6892  0.2283
16422TIP3    H170681   0.262   1.676  15.088 -0.1800  0.0524 -0.8815
16422TIP3    H270682   0.298   1.529  15.091  1.2739  0.4073  0.3336
16423TIP3   OH270683   4.400   3.798   3.189  0.4765  0.1066  0.1103
16423TIP3    H170684   4.404   3.855   3.265  0.2387  0.7498 -0.3502
16423TIP3    H270685   4.306   3.787   3.172  0.5294  0.0763 -0.1659
16424TIP3   OH270686   0.728   4.226  16.661  0.6861 -0.0850 -0.0712
16424TIP3    H170687   0.653   4.277  16.630  0.8456  1.6705  2.2229
16424TIP3    H270688   0.695   4.176  16.735  1.2470 -1.1714 -0.5251
16425TIP3   OH270689   0.497   3.630  13.124  0.5204  0.3162  0.3268
16425TIP3    H170690   0.433   3.590  13.065  1.9563  0.4105 -1.3880
16425TIP3    H270691   0.510   3.565  13.194  0.6485 -0.9636 -0.8375
16426TIP3   OH270692   3.124   3.485  12.231  0.2296  0.1253  0.2706
16426TIP3    H170693   3.120   3.579  12.249  0.8906 -0.1046  1.8255
16426TIP3    H270694   3.138   3.445  12.317 -4.7067 -1.8111  0.5034
16427TIP3   OH270695   6.530   0.661   3.103  0.5228 -0.5311 -0.0881
16427TIP3    H170696   6.459   0.678   3.165  0.9991 -0.1607  0.3669
16427TIP3    H270697   6.600   0.721   3.130  0.7903 -0.4618 -0.8991
16428TIP3   OH270698   4.127   1.088  12.619 -0.1460 -0.4497 -0.5545
16428TIP3    H170699   4.181   1.031  12.675  2.2774  0.6862 -1.5756
16428TIP3    H270700   4.142   1.176  12.654 -2.3858 -0.1754 -0.1329
16429TIP3   OH270701   3.578   6.474  11.965  0.5160 -0.5288  0.1304
16429TIP3    H170702   3.641   6.546  11.974  1.4108 -1.4492  1.8690
16429TIP3    H270703   3.494   6.513  11.989  0.8064  0.1833  0.0200
16430TIP3   OH270704   6.542   3.309  16.718 -0.5108 -0.0314  0.4911
16430TIP3    H170705   6.476   3.366  16.681 -0.5450 -0.5634 -0.2770
16430TIP3    H270706   6.576   3.259  16.644 -0.7187 -1.2479  1.1950
16431TIP3   OH270707   5.672   4.724  14.240 -0.5902 -0.3959 -0.6148
16431TIP3    H170708   5.729   4.748  14.166  2.5412 -0.9396  1.4142
16431TIP3    H270709   5.654   4.807  14.284 -0.1817 -0.3641 -0.5014
16432TIP3   OH270710   0.829   1.197   2.185 -0.5520  0.3060  0.1476
16432TIP3    H170711   0.875   1.281   2.180 -1.6510  0.9046 -0.0762
16432TIP3    H270712   0.898   1.132   2.170  0.6624  1.0510  2.0174
16433TIP3   OH270713   2.288   0.716  17.251  0.6039 -0.3361  0.7793
16433TIP3    H170714   2.324   0.804  17.259  0.9767 -0.5656  1.8021
16433TIP3    H270715   2.365   0.660  17.245  0.3680 -0.5856 -0.1507
16434TIP3   OH270716   2.545   4.528  16.030 -0.5779  0.1243 -0.0820
16434TIP3    H170717   2.635   4.528  15.999 -0.0917  0.1286  1.2602
16434TIP3    H270718   2.516   4.437  16.020 -0.1576 -0.0431  0.1816
16435TIP3   OH270719   5.850   2.997  16.522  0.7461 -0.1340  0.5492
16435TIP3    H170720   5.806   2.936  16.463  0.1652 -0.1931  1.0264
16435TIP3    H270721   5.793   3.073  16.525  1.3524  0.3470  0.1443
16436TIP3   OH270722   4.435   0.368  14.556  0.4704  0.3641  0.0318
16436TIP3    H170723   4.340   0.371  14.548  0.4643 -0.6370 -0.4735
16436TIP3    H270724   4.465   0.456  14.533 -0.3285  0.6778  0.1760
16437TIP3   OH270725   3.631   0.359   0.119  0.0329  0.6272  0.1959
16437TIP3    H170726   3.574   0.322   0.185  1.1506  1.6808  1.8325
16437TIP3    H270727   3.718   0.326   0.141  0.5236  1.5257 -0.3266
16438TIP3   OH270728   3.185   6.382   2.906 -0.3696  0.4520  0.0777
16438TIP3    H170729   3.130   6.314   2.867  0.1964 -0.2364  0.4496
16438TIP3    H270730   3.240   6.412   2.834  2.4076 -2.5273  0.6919
16439TIP3   OH270731   1.554   2.677   4.823 -0.4094  0.1080  0.2080
16439TIP3    H170732   1.580   2.767   4.842 -2.5168  0.2392  3.3338
16439TIP3    H270733   1.467   2.685   4.784 -1.2475 -0.5171  1.8364
16440TIP3   OH270734   2.762   0.769   3.640 -0.2614 -0.1855 -0.3953
16440TIP3    H170735   2.723   0.727   3.563  2.4305 -2.1234 -0.8753
16440TIP3    H270736   2.773   0.697   3.702  2.9770  0.0351 -0.5679
16441TIP3   OH270737   2.499   2.545   1.873  0.0361  0.2433 -0.5302
16441TIP3    H170738   2.455   2.588   1.946  0.8917 -0.4662  0.4426
16441TIP3    H270739   2.444   2.470   1.852  0.7528 -0.6779  0.7222
16442TIP3   OH270740   2.716   0.086  17.030  0.2508  0.4350 -0.1279
16442TIP3    H170741   2.797   0.034  17.024 -0.5763 -0.8277 -0.7038
16442TIP3    H270742   2.744   0.168  17.070  1.6185 -0.4161  0.7619
16443TIP3   OH270743   2.382   5.198  13.937 -0.1314 -0.2054  0.5224
16443TIP3    H170744   2.366   5.135  13.867 -1.7300  0.9607 -0.2393
16443TIP3    H270745   2.374   5.283  13.894 -0.9156  0.5350  2.0657
16444TIP3   OH270746   2.776   5.091   0.605  0.6855 -0.3004  0.1946
16444TIP3    H170747   2.813   5.168   0.648 -2.6418 -0.2798  3.5392
16444TIP3    H270748   2.734   5.126   0.526  0.9395  0.9726  0.5972
16445TIP3   OH270749   0.595   3.302  10.545 -0.5704 -0.6044  0.0169
16445TIP3    H170750   0.656   3.230  10.563 -0.7588 -0.6530  0.4703
16445TIP3    H270751   0.590   3.306  10.450 -0.4699 -1.1163 -0.0118
16446TIP3   OH270752   0.253   3.823   5.775  0.3823  0.4520  0.2600
16446TIP3    H170753   0.219   3.796   5.689  0.2725 -1.7513  0.9539
16446TIP3    H270754   0.348   3.816   5.766  0.3469 -0.4775  0.5097
16447TIP3   OH270755   4.915   4.675   0.756  0.9035  0.6971 -1.2251
16447TIP3    H170756   4.893   4.606   0.819  0.0209  1.9420 -0.1278
16447TIP3    H270757   4.998   4.646   0.719  2.1896  0.5390  1.5025
16448TIP3   OH270758   3.550   0.188   2.585  0.1300 -0.3241  0.0309
16448TIP3    H170759   3.578   0.140   2.508 -0.0774 -0.1279 -0.1687
16448TIP3    H270760   3.631   0.211   2.630  0.2338 -0.7783  0.0796
16449TIP3   OH270761   1.675   1.355   2.671 -0.2642  0.2535  0.2493
16449TIP3    H170762   1.583   1.362   2.698 -0.2667 -0.6276  0.5194
16449TIP3    H270763   1.672   1.366   2.576 -0.9593 -1.8894 -0.0326
16450TIP3   OH270764   4.294   4.472   3.625  0.4242 -0.1796  0.7573
16450TIP3    H170765   4.203   4.501   3.630  0.9342  1.3661  1.7219
16450TIP3    H270766   4.288   4.376   3.627 -1.1693 -0.1097  0.9453
16451TIP3   OH270767   3.178   0.102  17.180  0.2166  0.7825 -0.0277
16451TIP3    H170768   3.248   0.066  17.126 -0.0069 -1.6097  1.1622
16451TIP3    H270769   3.220   0.127  17.262 -0.0558  0.8641  0.0872
16452TIP3   OH270770   3.094   4.316   6.010  0.0345  0.5047  0.2454
16452TIP3    H170771   3.085   4.238   6.065  0.6288  1.3730  1.6088
16452TIP3    H270772   3.127   4.283   5.927  0.0156 -0.7243  0.7086
16453TIP3   OH270773   5.016   2.275   5.209 -0.3927  0.4772  0.0599
16453TIP3    H170774   4.981   2.318   5.287 -0.1388  0.3095  0.2642
16453TIP3    H270775   5.059   2.346   5.160  0.7104  0.3188  0.7796
16454TIP3   OH270776   2.351   5.389  17.242 -0.2766 -0.6291  0.3578
16454TIP3    H170777   2.297   5.439  17.304 -0.5224 -0.4423 -0.0031
16454TIP3    H270778   2.322   5.298  17.254 -1.1445 -0.4548 -0.2954
16455TIP3   OH270779   0.073   4.540   5.259  0.7644  0.0257  0.3962
16455TIP3    H170780   0.031   4.605   5.316 -0.0147  0.4868 -0.6776
16455TIP3    H270781   0.102   4.590   5.183  0.6385 -0.7876 -0.1946
16456TIP3   OH270782   6.044   3.210   0.384 -0.7917  0.2714  0.2343
16456TIP3    H170783   6.108   3.163   0.437 -0.2878 -0.0544 -0.6377
16456TIP3    H270784   6.016   3.283   0.439 -0.6277 -0.3194  1.1157
16457TIP3   OH270785   6.189   0.364   1.339  0.7755  0.3516 -0.1211
16457TIP3    H170786   6.118   0.301   1.350 -0.8542  1.5469 -2.7861
16457TIP3    H270787   6.248   0.347   1.413 -1.5529 -1.6195  1.4382
16458TIP3   OH270788   1.728   2.147   0.780 -0.3786  0.0542 -0.3037
16458TIP3    H170789   1.766   2.101   0.705 -0.4135  1.0008 -0.9144
16458TIP3    H270790   1.649   2.188   0.746 -0.2489  0.7284  0.1702
16459TIP3   OH270791   2.527   6.523   1.817 -0.3700  0.0806 -0.0367
16459TIP3    H170792   2.436   6.517   1.846 -0.4114  1.5045  0.2160
16459TIP3    H270793   2.522   6.570   1.734  0.0555 -0.8107 -0.5797
16460TIP3   OH270794   1.201   5.384   4.217  0.2881 -0.1688  0.4440
16460TIP3    H170795   1.169   5.314   4.275  1.7610 -2.0841 -0.8998
16460TIP3    H270796   1.126   5.406   4.162 -0.4813  0.0656  1.5552
16461TIP3   OH270797   2.671   0.648  16.015  0.0078 -0.5572  0.2714
16461TIP3    H170798   2.723   0.595  16.074 -0.5893 -0.3654  0.9920
16461TIP3    H270799   2.728   0.664  15.940  0.4035 -1.7064  0.3068
16462TIP3   OH270800   1.134   3.365   3.470 -0.1951  0.6931 -0.2992
16462TIP3    H170801   1.208   3.381   3.528  0.9377 -1.8499 -0.9374
16462TIP3    H270802   1.104   3.277   3.491 -1.8064  0.9197 -1.4111
16463TIP3   OH270803   1.803   3.550  14.141  0.3375  0.5369  0.4489
16463TIP3    H170804   1.829   3.625  14.194 -0.6971  0.7105  0.7245
16463TIP3    H270805   1.793   3.478  14.204  1.6655  0.0644  0.1432
16464TIP3   OH270806   2.602   4.687  10.774  0.7128  0.3079 -0.3070
16464TIP3    H170807   2.559   4.769  10.800  0.6453 -0.6057  2.7437
16464TIP3    H270808   2.688   4.715  10.743 -0.0960  1.6839 -1.4622
16465TIP3   OH270809   6.442   1.563   4.482  0.2424  0.1653 -0.8891
16465TIP3    H170810   6.519   1.620   4.481  1.5515 -1.5144 -0.6577
16465TIP3    H270811   6.430   1.537   4.391  0.8716 -0.7193 -0.7330
16466TIP3   OH270812   4.193   5.635   2.949 -0.3100 -0.4128  0.5393
16466TIP3    H170813   4.149   5.663   3.029  1.5479 -2.3946  2.3755
16466TIP3    H270814   4.124   5.631   2.883 -2.4153 -1.1389  2.6743
16467TIP3   OH270815   1.578   6.558   4.582 -0.1728  0.3520 -0.2688
16467TIP3    H170816   1.662   6.513   4.593 -1.5540 -1.9502  2.0511
16467TIP3    H270817   1.547   6.529   4.496  0.8123  0.2235 -0.5968
16468TIP3   OH270818   2.309   1.145   4.452 -0.2251 -0.2231 -0.1496
16468TIP3    H170819   2.349   1.226   4.420  0.3948  0.0724  1.2727
16468TIP3    H270820   2.290   1.163   4.544  1.8574 -2.3222  0.8051
16469TIP3   OH270821   0.747   2.784   4.732 -0.4959 -0.3899 -0.1491
16469TIP3    H170822   0.675   2.835   4.769 -0.2003 -0.0680 -0.0068
16469TIP3    H270823   0.825   2.821   4.773 -0.3183 -1.3594  0.4163
16470TIP3   OH270824   0.522   3.177   6.163 -0.4937 -0.0561  0.2642
16470TIP3    H170825   0.557   3.123   6.234 -3.1906  1.2003  2.7457
16470TIP3    H270826   0.584   3.249   6.154  1.1495 -1.4956 -0.4511
16471TIP3   OH270827   1.321   5.584   0.594 -0.0184 -0.6168 -1.0272
16471TIP3    H170828   1.383   5.644   0.552  0.8885 -1.4971 -0.9931
16471TIP3    H270829   1.336   5.500   0.551 -4.1682 -0.0751 -4.0361
16472TIP3   OH270830   6.349   2.453   2.343  0.4795  0.3926 -0.1252
16472TIP3    H170831   6.268   2.434   2.295  0.5390  0.9815 -0.4656
16472TIP3    H270832   6.418   2.419   2.287  0.5275  0.7673 -0.2937
16473TIP3   OH270833   2.003   3.562   2.192 -0.2912  0.1717 -0.4600
16473TIP3    H170834   2.087   3.519   2.208 -0.1790  0.9611  1.3438
16473TIP3    H270835   2.027   3.650   2.163 -0.4858  0.3467 -0.0973
16474TIP3   OH270836   3.308   1.143  14.024  0.1466 -0.3606 -0.1556
16474TIP3    H170837   3.234   1.088  14.048 -0.5334  1.2545  1.6954
16474TIP3    H270838   3.303   1.151  13.929 -1.0369 -1.6194 -0.2241
16475TIP3   OH270839   1.917   1.120  14.992  0.5358 -0.2516  0.4010
16475TIP3    H170840   2.003   1.154  14.968  1.0625  0.1124  2.5507
16475TIP3    H270841   1.879   1.089  14.910  1.4073  2.4449 -1.1652
16476TIP3   OH270842   4.279   3.432   3.787 -0.6799 -0.0237 -0.4797
16476TIP3    H170843   4.233   3.494   3.731 -0.5771  0.2571 -0.2570
16476TIP3    H270844   4.223   3.354   3.789  0.0231 -0.6113 -2.1820
16477TIP3   OH270845   5.574   1.939  11.497 -0.4209 -0.5419  0.6412
16477TIP3    H170846   5.649   1.899  11.453  1.0758  2.2566  0.3623
16477TIP3    H270847   5.550   1.878  11.566  0.6366 -2.5740 -0.6961
16478TIP3   OH270848   0.377   5.638   1.512 -0.0560  0.3813  0.8245
16478TIP3    H170849   0.308   5.689   1.470  0.0096  0.8688  1.3018
16478TIP3    H270850   0.376   5.666   1.603 -1.4707 -2.0180  1.6381
16479TIP3   OH270851   5.667   4.301  12.921 -0.3002  0.0062  0.2578
16479TIP3    H170852   5.584   4.321  12.877 -0.9686  0.2672  1.5962
16479TIP3    H270853   5.658   4.339  13.008  1.2516  0.0557  0.4179
16480TIP3   OH270854   0.650   0.611   4.809  0.0072 -0.6206  0.2993
16480TIP3    H170855   0.700   0.534   4.837  0.8986 -0.0091  0.4366
16480TIP3    H270856   0.605   0.582   4.729  0.2175 -1.3217  0.4264
16481TIP3   OH270857   0.722   5.125   3.511 -0.3285 -0.2608 -0.1188
16481TIP3    H170858   0.775   5.137   3.590 -0.3186  2.2914 -0.4573
16481TIP3    H270859   0.683   5.038   3.522  0.0934 -0.2064  2.4297
16482TIP3   OH270860   6.208   0.506  16.052 -0.2304  0.9190 -0.2143
16482TIP3    H170861   6.260   0.586  16.046  1.1220  0.1255  0.2418
16482TIP3    H270862   6.117   0.536  16.054  0.2713  2.5189  1.1067
16483TIP3   OH270863   1.708   5.286   1.176 -0.1623 -0.0864 -0.3805
16483TIP3    H170864   1.639   5.236   1.219 -1.4664  0.6241 -1.5329
16483TIP3    H270865   1.785   5.273   1.230 -1.7329  0.9789  2.3267
16484TIP3   OH270866   1.740   5.654   1.718 -0.4571 -0.0935  0.0998
16484TIP3    H170867   1.673   5.639   1.652  0.9414 -0.2465 -1.3398
16484TIP3    H270868   1.801   5.582   1.707 -0.6295 -0.6395  2.2028
16485TIP3   OH270869   4.354   2.673   3.837  0.4145 -0.1661  0.0999
16485TIP3    H170870   4.438   2.681   3.884  0.6741  0.6417 -0.4749
16485TIP3    H270871   4.323   2.585   3.858  1.5094 -0.5527  0.1610
16486TIP3   OH270872   4.493   4.997  16.442  0.3789 -0.2486 -0.3617
16486TIP3    H170873   4.583   5.013  16.472 -0.0883  1.9253  0.0339
16486TIP3    H270874   4.497   5.006  16.347  0.1826  2.4457 -0.1842
16487TIP3   OH270875   1.857   4.815  13.085  0.6049  0.6222 -0.2369
16487TIP3    H170876   1.867   4.910  13.093  1.1785  0.4467  1.4999
16487TIP3    H270877   1.921   4.779  13.145 -0.9741 -0.8289  0.6617
16488TIP3   OH270878   6.093   1.158  12.625 -0.0659 -0.1768 -0.3416
16488TIP3    H170879   6.155   1.104  12.577  0.6440  1.6683 -1.6045
16488TIP3    H270880   6.131   1.165  12.713  1.3862  0.6457 -1.0016
16489TIP3   OH270881   3.981   5.098  13.019 -0.2601 -0.0640  0.7770
16489TIP3    H170882   4.048   5.097  12.950 -0.2254 -1.3554  0.8010
16489TIP3    H270883   3.912   5.154  12.985 -0.4186 -0.9936 -0.5003
16490TIP3   OH270884   3.574   2.594  15.584  0.1367  0.1005 -0.1391
16490TIP3    H170885   3.498   2.634  15.627  1.0405 -0.5941  2.2843
16490TIP3    H270886   3.537   2.524  15.531 -0.9825  0.2507  0.4064
16491TIP3   OH270887   3.108   4.544   1.200 -0.0728  0.1299 -0.0478
16491TIP3    H170888   3.136   4.577   1.286  0.1126  1.1224 -0.4748
16491TIP3    H270889   3.150   4.458   1.193 -2.3984 -1.3117  2.0706
16492TIP3   OH270890   2.779   6.078  11.851  0.2352 -0.2548  0.3161
16492TIP3    H170891   2.845   6.040  11.908 -0.6942 -0.6363  1.1785
16492TIP3    H270892   2.768   6.013  11.781 -0.6471 -1.1769  1.2611
16493TIP3   OH270893   2.216   2.253   6.077  0.7663  0.0204  0.0768
16493TIP3    H170894   2.243   2.180   6.133  1.9369  1.2762  1.2326
16493TIP3    H270895   2.272   2.326   6.105 -0.8053  1.5393 -0.5863
16494TIP3   OH270896   2.258   0.281  12.340  0.1090  0.0266 -0.2295
16494TIP3    H170897   2.296   0.265  12.426  0.5026  0.2158 -0.3656
16494TIP3    H270898   2.264   0.196  12.295  0.3455  0.0475 -0.2400
16495TIP3   OH270899   6.573   6.509   5.164  0.2881 -0.4708 -0.3014
16495TIP3    H170900   6.548   6.431   5.213 -1.0092 -0.0972 -0.3307
16495TIP3    H270901   6.667   6.500   5.150  0.2224 -1.8337  0.0323
16496TIP3   OH270902   4.067   6.076  16.558  0.4427  0.4289  0.0361
16496TIP3    H170903   4.111   6.094  16.475 -1.2094  0.2031 -0.9328
16496TIP3    H270904   4.117   6.127  16.623  0.7569  1.9731 -1.3421
16497TIP3   OH270905   4.087   2.788  14.551  0.3165 -0.2122 -0.3580
16497TIP3    H170906   4.172   2.743  14.558 -0.4054 -1.5671  0.1034
16497TIP3    H270907   4.063   2.808  14.641 -0.1649 -0.4528 -0.4292
16498TIP3   OH270908   0.962   4.372   5.393  0.4981  0.2526 -0.4655
16498TIP3    H170909   0.917   4.309   5.337  1.1893  0.8439 -1.7299
16498TIP3    H270910   0.915   4.454   5.379  0.0271  0.1886  0.6481
16499TIP3   OH270911   0.041   4.960  14.448 -0.2779 -0.4744 -0.1350
16499TIP3    H170912  -0.026   4.939  14.512 -0.7135 -0.3023 -0.5271
16499TIP3    H270913   0.120   4.975  14.500 -1.1136  1.8331  0.5853
16500TIP3   OH270914   1.641   0.086   3.856  0.1165 -0.1545  0.4495
16500TIP3    H170915   1.709   0.065   3.791  2.2387  0.3326  2.3577
16500TIP3    H270916   1.690   0.097   3.938 -2.1757  1.3097  1.7209
16501TIP3   OH270917   6.559   3.666  14.499 -0.1514  0.6700  0.1229
16501TIP3    H170918   6.544   3.755  14.467 -0.3646  0.8482  0.7007
16501TIP3    H270919   6.471   3.634  14.520 -0.3843 -0.5940 -2.3849
16502TIP3   OH270920   0.377   0.304   2.031  0.2259  0.5125  0.2178
16502TIP3    H170921   0.445   0.277   2.093  0.6129 -0.4672 -0.6091
16502TIP3    H270922   0.423   0.310   1.947 -0.8058 -0.6772 -0.4529
16503TIP3   OH270923   1.589   6.081   1.566 -0.5741  0.9746  0.3060
16503TIP3    H170924   1.654   6.130   1.617  0.8001  0.4707 -0.8843
16503TIP3    H270925   1.641   6.024   1.510 -2.0917 -0.1175 -0.0456
16504TIP3   OH270926   2.191   5.876  17.044  0.5591 -0.4026  0.2505
16504TIP3    H170927   2.102   5.855  17.016  0.7458  0.6931 -1.2935
16504TIP3    H270928   2.224   5.795  17.083 -0.2830 -1.5728 -1.3517
16505TIP3   OH270929   0.013   2.896  14.695 -0.7472  0.5067  0.1245
16505TIP3    H170930   0.101   2.931  14.709  0.0536 -1.2961 -0.1325
16505TIP3    H270931  -0.003   2.840  14.770 -0.5185 -1.3388 -1.1365
16506TIP3   OH270932   1.838   0.742   0.777  0.3006  0.4729  0.6523
16506TIP3    H170933   1.934   0.740   0.781  0.5720  4.1788 -0.3138
16506TIP3    H270934   1.813   0.813   0.837 -1.7707  0.1465  0.2549
16507TIP3   OH270935   0.811   2.761  13.722 -0.3207 -0.5703  0.2537
16507TIP3    H170936   0.886   2.755  13.781  0.0287  1.6449  0.1259
16507TIP3    H270937   0.738   2.789  13.777  0.1449  2.1166 -0.3238
16508TIP3   OH270938   5.110   2.356  11.795 -0.3519  0.3005  0.4110
16508TIP3    H170939   5.081   2.444  11.771 -0.0587  0.5581  0.9816
16508TIP3    H270940   5.188   2.371  11.848  0.5535 -0.3485 -0.6810
16509TIP3   OH270941   6.673   0.852  15.481 -0.0642  0.1819 -0.5602
16509TIP3    H170942   6.647   0.761  15.487  1.2851 -0.1606  0.4528
16509TIP3    H270943   6.681   0.868  15.387 -1.6999 -0.2901 -0.8256
16510TIP3   OH270944   2.885   5.158   2.123 -0.2800 -0.1014  0.1844
16510TIP3    H170945   2.889   5.099   2.049 -1.1122  1.5365 -1.2354
16510TIP3    H270946   2.840   5.236   2.090 -0.3577  0.8367  2.3041
16511TIP3   OH270947   4.604   5.864   5.893 -0.0120  0.0468  0.2879
16511TIP3    H170948   4.698   5.849   5.900  0.1033  0.4059 -0.4727
16511TIP3    H270949   4.567   5.777   5.878  0.2118 -0.0715  0.4139
16512TIP3   OH270950   3.456   4.841   4.642  0.2357  0.1859  0.2207
16512TIP3    H170951   3.369   4.816   4.672  0.8768 -1.2109  1.0170
16512TIP3    H270952   3.480   4.773   4.579  0.2934  1.2062 -0.8955
16513TIP3   OH270953   4.385   3.871   5.431 -0.4244 -0.3703 -0.0679
16513TIP3    H170954   4.413   3.785   5.401 -0.9049 -0.1672 -1.1700
16513TIP3    H270955   4.291   3.863   5.445 -0.3669 -0.1908  0.4676
16514TIP3   OH270956   5.985   1.402  15.661  0.3446 -0.4188  0.0885
16514TIP3    H170957   6.074   1.367  15.664  0.3939 -0.2948  0.1167
16514TIP3    H270958   5.988   1.478  15.719 -0.0984 -1.1284  1.0754
16515TIP3   OH270959   4.830   3.399  14.058 -0.4186  0.0728 -0.0293
16515TIP3    H170960   4.889   3.385  13.984  0.4306  0.6134  0.5214
16515TIP3    H270961   4.742   3.390  14.021 -0.0151  0.4277 -1.1156
16516TIP3   OH270962   5.305   6.513   2.825  0.3573 -0.3276 -0.5519
16516TIP3    H170963   5.312   6.475   2.913  1.0221  1.7572  0.3544
16516TIP3    H270964   5.394   6.541   2.805  0.1792 -0.6504 -1.8635
16517TIP3   OH270965   3.215   0.902   5.169  1.1173  0.4498 -0.4070
16517TIP3    H170966   3.274   0.968   5.205  1.7017 -1.3557  2.2161
16517TIP3    H270967   3.274   0.832   5.139  0.4093 -0.0410 -0.6688
16518TIP3   OH270968   1.405   1.724  11.729  0.1204 -0.7417  0.1076
16518TIP3    H170969   1.309   1.724  11.719  0.1450 -0.3874 -0.1638
16518TIP3    H270970   1.429   1.631  11.725 -0.2942 -0.9042  1.0604
16519TIP3   OH270971   4.301   1.568  16.020  0.0782 -0.2476 -0.0448
16519TIP3    H170972   4.390   1.534  16.021  0.3148  0.3456 -0.2240
16519TIP3    H270973   4.287   1.599  15.931  0.1057  0.6857  0.2552
16520TIP3   OH270974   6.198   5.961  15.765 -0.4544 -0.2057  0.4276
16520TIP3    H170975   6.213   5.918  15.681 -1.5892  2.2404 -1.1376
16520TIP3    H270976   6.124   6.020  15.749  1.7282  3.2734  1.9790
16521TIP3   OH270977   5.394   1.538  13.160  0.0386 -0.0895  0.1749
16521TIP3    H170978   5.352   1.617  13.126  0.5528  0.2371  0.2908
16521TIP3    H270979   5.466   1.571  13.213  0.3713 -0.6439  0.0680
16522TIP3   OH270980   5.882   4.261  14.546 -0.4885  0.0604  0.5920
16522TIP3    H170981   5.905   4.305  14.464  0.5970 -0.8310  0.3947
16522TIP3    H270982   5.824   4.322  14.591  0.5111  1.4290  0.0724
16523TIP3   OH270983   2.545   3.787   5.627  0.2858  0.7024  0.3834
16523TIP3    H170984   2.638   3.767   5.615  0.2618  0.2614  0.9011
16523TIP3    H270985   2.499   3.718   5.579  0.2203  0.2768  1.0385
16524TIP3   OH270986   6.398   6.414   5.875 -0.5771  0.5837  0.1420
16524TIP3    H170987   6.422   6.376   5.959 -2.0546  1.7564  1.1566
16524TIP3    H270988   6.310   6.381   5.857  0.5619 -1.5670 -2.2004
16525TIP3   OH270989   1.845   2.136  17.198 -0.2177 -0.2312  0.3108
16525TIP3    H170990   1.774   2.097  17.249 -0.4785  0.0392  0.1592
16525TIP3    H270991   1.862   2.073  17.128  0.8264 -1.0814  1.2965
16526TIP3   OH270992   5.769   5.079   0.846 -0.0148 -0.0540  0.6172
16526TIP3    H170993   5.824   5.009   0.883  0.0188  0.7659  2.2285
16526TIP3    H270994   5.786   5.154   0.902  0.0277  1.3073 -1.1329
16527TIP3   OH270995   1.375   0.010   3.251  0.1238 -0.3573 -0.1906
16527TIP3    H170996   1.355   0.021   3.344 -1.5226 -0.0748 -0.5459
16527TIP3    H270997   1.372   0.098   3.215 -1.9683 -0.7015 -0.9870
16528TIP3   OH270998   5.008   1.292   5.095  0.5157  0.4980  0.0795
16528TIP3    H170999   5.088   1.299   5.148  0.9055 -1.8273 -0.0688
16528TIP3    H271000   4.937   1.302   5.158  0.9649  0.0396  0.6745
16529TIP3   OH271001   5.347   3.367  13.445  0.1005  0.2484 -0.2196
16529TIP3    H171002   5.415   3.402  13.388 -0.7753  0.8196 -0.9454
16529TIP3    H271003   5.387   3.364  13.532  1.2987 -0.1866 -0.7702
16530TIP3   OH271004   0.147   1.483   4.948 -0.3748 -0.5631 -0.0523
16530TIP3    H171005   0.108   1.562   4.986 -0.0358 -0.8138  0.8431
16530TIP3    H271006   0.081   1.451   4.887 -1.2403 -0.5204  0.8315
16531TIP3   OH271007   4.285   4.649  15.788 -0.0795 -0.2499 -0.4310
16531TIP3    H171008   4.331   4.574  15.826  0.4984  0.3532  0.0954
16531TIP3    H271009   4.241   4.691  15.863 -0.8618 -0.3743 -0.8086
16532TIP3   OH271010   5.822   3.003  13.663  0.2330  0.4403 -0.8492
16532TIP3    H171011   5.908   3.010  13.705  0.0044  1.1194 -0.4845
16532TIP3    H271012   5.818   2.913  13.631 -0.0754 -0.4973  1.6541
16533TIP3   OH271013   5.432   0.287   6.006  0.0458  0.0742  0.3204
16533TIP3    H171014   5.409   0.337   6.084 -2.5403  2.1120 -1.5583
16533TIP3    H271015   5.520   0.318   5.983  0.0605  0.8639  1.3619
16534TIP3   OH271016   3.506   4.506   4.762 -0.2552 -0.2962 -0.0526
16534TIP3    H171017   3.571   4.571   4.788 -0.0632 -0.6941  0.4783
16534TIP3    H271018   3.558   4.432   4.731 -0.4713  0.0864 -1.4240
16535TIP3   OH271019   3.607   2.810   3.468 -0.2586  0.0705 -0.1689
16535TIP3    H171020   3.513   2.816   3.453 -0.7279  1.5902  2.6760
16535TIP3    H271021   3.647   2.857   3.394 -1.5826 -1.4662 -1.9571
16536TIP3   OH271022   3.423   3.580   5.794  0.5019 -0.7538  0.1339
16536TIP3    H171023   3.464   3.645   5.851 -0.8600  0.3655 -0.0892
16536TIP3    H271024   3.344   3.554   5.840 -0.4596 -0.0574 -1.0689
16537TIP3   OH271025   6.179   1.770  14.580  0.1430  0.2258 -0.5030
16537TIP3    H171026   6.092   1.778  14.619 -1.8648  0.0925 -4.4511
16537TIP3    H271027   6.189   1.850  14.528  1.1387 -0.9683 -2.2501
16538TIP3   OH271028   2.715   1.923  11.578  0.2064 -0.1708  0.3166
16538TIP3    H171029   2.760   1.998  11.618 -0.3245  0.5164 -0.3517
16538TIP3    H271030   2.786   1.871  11.539  0.3963  1.3060 -1.4076
16539TIP3   OH271031   4.631   0.635   5.293  0.9316 -0.2829  0.2250
16539TIP3    H171032   4.703   0.695   5.274 -0.2567  1.0478 -0.2940
16539TIP3    H271033   4.597   0.665   5.378 -0.7965  1.0197 -0.8496
16540TIP3   OH271034   0.010   2.442   2.427  0.3789 -0.0913 -0.0392
16540TIP3    H171035  -0.027   2.522   2.391 -1.8750 -1.3864 -0.8276
16540TIP3    H271036   0.008   2.455   2.522  1.9001  1.5098 -0.1927
16541TIP3   OH271037   3.111   6.613  11.382 -0.5625  0.8377 -0.8004
16541TIP3    H171038   3.147   6.525  11.379  1.4646  1.5642 -0.0315
16541TIP3    H271039   3.179   6.665  11.425 -3.1855  2.0889  2.2075
16542TIP3   OH271040   5.580   2.626  17.006 -0.1401  0.4567  0.2866
16542TIP3    H171041   5.559   2.553  16.949  0.8496  1.7541 -1.8586
16542TIP3    H271042   5.500   2.679  17.009 -0.5331 -0.1497  1.0334
16543TIP3   OH271043   6.383   3.469  16.550 -0.3359 -0.3770  0.1254
16543TIP3    H171044   6.384   3.400  16.484  0.2100  0.0122 -0.2815
16543TIP3    H271045   6.293   3.500  16.551 -0.1419  0.3108 -1.1911
16544TIP3   OH271046   0.328   1.946  10.736  0.1958  0.8164  0.0453
16544TIP3    H171047   0.235   1.945  10.760  0.4039 -1.0864  0.9496
16544TIP3    H271048   0.364   2.021  10.783 -0.8901  1.6705 -0.4367
16545TIP3   OH271049   4.869   2.062  13.517  0.3498  0.2556  0.1949
16545TIP3    H171050   4.942   2.053  13.457  0.6231  1.3210  0.3463
16545TIP3    H271051   4.903   2.114  13.590 -0.7803  1.5712 -0.1676
16546TIP3   OH271052   3.582   1.533  13.428  0.5428 -0.2863 -0.0123
16546TIP3    H171053   3.578   1.512  13.521  0.8617  0.9468  0.2996
16546TIP3    H271054   3.673   1.515  13.403  0.1079 -2.0404 -0.4699
16547TIP3   OH271055   4.634   3.741  12.158  0.1844 -0.1425  0.1864
16547TIP3    H171056   4.631   3.660  12.209  0.3978  0.0239  0.4682
16547TIP3    H271057   4.726   3.765  12.157  0.2979 -0.5629 -0.9583
16548TIP3   OH271058   5.599   1.733  14.363 -0.1528 -0.0387  0.0390
16548TIP3    H171059   5.620   1.690  14.280 -0.6829  0.0722 -0.1525
16548TIP3    H271060   5.630   1.671  14.430 -1.9505 -1.3194 -0.2116
16549TIP3   OH271061   4.081   3.118  16.224  0.1166  0.2647 -0.3333
16549TIP3    H171062   4.111   3.200  16.263  0.5679  0.1680 -0.4592
16549TIP3    H271063   4.131   3.111  16.143 -0.7988  0.4515 -0.9240
16550TIP3   OH271064   0.472   6.477   4.901  0.6417 -0.3252 -0.0871
16550TIP3    H171065   0.439   6.425   4.828 -1.3133  0.2693  0.3216
16550TIP3    H271066   0.529   6.418   4.950  0.9234 -1.1188 -1.3361
16551TIP3   OH271067   4.697   3.774  13.281 -0.1201  0.3429 -0.0351
16551TIP3    H171068   4.638   3.844  13.253 -2.0867 -0.8154  1.0399
16551TIP3    H271069   4.675   3.701  13.224  1.4829  0.3533 -0.7236
16552TIP3   OH271070   2.708   1.903  15.800 -0.1753  0.1362  0.6185
16552TIP3    H171071   2.634   1.952  15.835  0.4211  1.3179  0.3072
16552TIP3    H271072   2.674   1.817  15.780 -2.2733  1.4793 -2.3083
16553TIP3   OH271073   6.330   0.254   0.052 -0.1129  0.1924  0.2295
16553TIP3    H171074   6.274   0.184   0.019 -1.3323  0.5104  1.5097
16553TIP3    H271075   6.370   0.291  -0.026 -2.0677  0.2604 -0.8098
16554TIP3   OH271076   2.325   5.178  13.231  0.1879 -0.1880  0.4448
16554TIP3    H171077   2.291   5.208  13.315 -0.1355  0.6232  0.0300
16554TIP3    H271078   2.379   5.250  13.199 -1.2481  0.3241 -0.9398
16555TIP3   OH271079   5.865   0.647   2.155 -0.2106  0.1876 -0.3103
16555TIP3    H171080   5.866   0.583   2.226  0.1581  0.5371  0.0023
16555TIP3    H271081   5.797   0.615   2.096  0.8344 -1.2061 -0.8216
16556TIP3   OH271082   5.520   6.579   1.169  0.3507  0.1889  0.3250
16556TIP3    H171083   5.456   6.607   1.234  0.1763 -1.1874  0.7776
16556TIP3    H271084   5.472   6.583   1.086  0.0554  0.3669  0.5001
16557TIP3   OH271085   0.368   2.312   1.688  0.3261 -0.1458  0.3735
16557TIP3    H171086   0.439   2.354   1.737  0.8087  0.5450 -0.8589
16557TIP3    H271087   0.341   2.238   1.743 -0.1286  1.4022  2.3098
16558TIP3   OH271088   5.840   6.257  11.855 -0.7822  0.1617  0.0820
16558TIP3    H171089   5.792   6.270  11.774 -1.6681 -0.7939  0.4403
16558TIP3    H271090   5.871   6.167  11.851 -1.7914 -0.2652  1.2921
16559TIP3   OH271091   0.912   2.342   0.785 -0.0527  0.7001  0.4293
16559TIP3    H171092   0.971   2.280   0.828  1.0691  1.3963 -0.0517
16559TIP3    H271093   0.826   2.301   0.791  0.1961  0.3554  2.5279
16560TIP3   OH271094   2.222   0.880   1.025  0.0486  0.8947 -0.0848
16560TIP3    H171095   2.188   0.810   1.081 -0.6766  1.1544 -0.1925
16560TIP3    H271096   2.317   0.869   1.027 -0.1035 -1.4918 -1.9097
16561TIP3   OH271097   3.142   4.235   3.511  0.8947 -0.2428  0.5198
16561TIP3    H171098   3.093   4.217   3.591  2.4874 -2.5128  1.0518
16561TIP3    H271099   3.231   4.253   3.541  1.0934  0.8401 -0.6432
16562TIP3   OH271100   6.037   4.816   0.015 -0.1955  0.0197 -0.5157
16562TIP3    H171101   6.089   4.794  -0.063  0.9656 -3.2401  0.9689
16562TIP3    H271102   6.046   4.911   0.024  2.3527  0.0943 -2.5231
16563TIP3   OH271103   1.967   2.723  13.279 -0.2983  0.4454 -0.2550
16563TIP3    H171104   1.932   2.809  13.256  0.2804  0.6028 -0.5761
16563TIP3    H271105   1.900   2.661  13.250 -0.5114  0.7684 -0.4548
16564TIP3   OH271106   3.305   5.663  15.165 -0.1009 -0.4907  0.5674
16564TIP3    H171107   3.227   5.698  15.122 -0.6527 -1.0599  1.0872
16564TIP3    H271108   3.360   5.739  15.182 -0.7145 -0.0396  0.5455
16565TIP3   OH271109   0.439   2.441   0.270  0.5488 -0.1470 -0.5373
16565TIP3    H171110   0.416   2.522   0.226 -2.1686 -0.3218  0.3514
16565TIP3    H271111   0.392   2.373   0.222  1.5143 -1.0088 -0.3103
16566TIP3   OH271112   4.735   3.885  15.733  0.1266  0.3764 -0.0530
16566TIP3    H171113   4.656   3.927  15.701 -0.1373 -0.6975 -0.8823
16566TIP3    H271114   4.784   3.862  15.654  1.8301  1.9934  0.4573
16567TIP3   OH271115   0.872   4.558  14.370  0.3381  0.2875  0.1757
16567TIP3    H171116   0.939   4.524  14.429 -0.2443 -0.4807  0.4170
16567TIP3    H271117   0.902   4.646  14.347  2.0934 -0.5083 -0.7788
16568TIP3   OH271118   5.037   2.855   0.969 -0.1517 -0.5975 -0.3098
16568TIP3    H171119   4.957   2.847   0.917  0.2860 -0.2068 -1.0659
16568TIP3    H271120   5.103   2.885   0.906  0.1736  0.7970  0.6435
16569TIP3   OH271121   6.428   4.732   5.288  0.2258 -0.1197 -0.4883
16569TIP3    H171122   6.368   4.798   5.323  0.3216 -1.6089  2.9058
16569TIP3    H271123   6.409   4.653   5.339  3.0357 -1.4878 -1.3401
16570TIP3   OH271124   1.994   6.132   2.165 -0.2017  0.4799 -0.5465
16570TIP3    H171125   2.003   6.043   2.132  0.5361  0.6521 -0.8327
16570TIP3    H271126   2.020   6.127   2.257  0.0300  0.4351 -0.6141
16571TIP3   OH271127   1.633   3.043  16.692  0.2923 -0.0101 -0.2523
16571TIP3    H171128   1.722   3.076  16.698  0.1467  0.2215  1.1851
16571TIP3    H271129   1.632   2.964  16.747 -0.4188  0.0861 -0.1064
16572TIP3   OH271130   4.862   4.221  11.857  0.4072 -0.2862 -0.4451
16572TIP3    H171131   4.776   4.193  11.887 -0.0059  0.3976 -0.9713
16572TIP3    H271132   4.845   4.274  11.779  1.2313  0.5958 -0.0471
16573TIP3   OH271133   5.330   5.520   4.067  0.0771 -0.4806  0.0114
16573TIP3    H171134   5.259   5.457   4.057  0.2433 -0.8189  0.8856
16573TIP3    H271135   5.294   5.586   4.127 -0.2107  0.4466 -1.1390
16574TIP3   OH271136   0.605   2.992  12.297 -0.2116  0.0422  0.4169
16574TIP3    H171137   0.549   3.050  12.245 -0.4929 -0.1040  0.5535
16574TIP3    H271138   0.608   2.910  12.247 -0.8675 -0.2567  0.8634
16575TIP3   OH271139   4.270   2.050   5.155 -0.6771 -0.3143  0.4312
16575TIP3    H171140   4.317   1.982   5.106  0.5889  1.7689 -1.4128
16575TIP3    H271141   4.179   2.042   5.124 -0.6472 -1.4716  0.6139
16576TIP3   OH271142   5.440   1.605  16.132  0.5185 -0.2007 -0.3350
16576TIP3    H171143   5.459   1.698  16.144 -2.6695  0.4221  1.1151
16576TIP3    H271144   5.432   1.594  16.038  1.7207  0.7754 -0.5742
16577TIP3   OH271145   2.978   1.963   0.796  0.3817  0.2149 -0.0229
16577TIP3    H171146   3.037   2.030   0.829  0.9984 -0.1977 -0.2831
16577TIP3    H271147   2.968   1.983   0.703  0.7775 -0.2011 -0.1608
16578TIP3   OH271148   4.968   1.872  13.831  0.1030  0.0044 -0.4316
16578TIP3    H171149   4.982   1.874  13.926  0.4229  1.4934 -0.4950
16578TIP3    H271150   4.895   1.932  13.816 -2.0286 -2.5148 -0.8549
16579TIP3   OH271151   3.780   4.710   3.257  0.0028 -0.1280 -0.1809
16579TIP3    H171152   3.841   4.637   3.252  1.7004  1.1602  0.8374
16579TIP3    H271153   3.810   4.772   3.191  0.4150  0.9333  0.9543
16580TIP3   OH271154   5.788   5.821   0.695 -0.3096 -0.3755  0.3934
16580TIP3    H171155   5.861   5.770   0.661 -0.3059  0.8798 -1.6123
16580TIP3    H271156   5.820   5.911   0.697 -1.7990  0.2208 -0.6703
16581TIP3   OH271157   5.000   1.550  14.641  0.4282 -0.4694  0.5346
16581TIP3    H171158   5.062   1.478  14.646 -0.6432 -1.3527  1.7164
16581TIP3    H271159   5.028   1.611  14.709  1.5282  0.4427 -0.6774
16582TIP3   OH271160   6.358   2.091   0.942  0.3144 -0.6263 -0.3461
16582TIP3    H171161   6.373   2.124   0.854 -1.0048  0.1486 -0.3180
16582TIP3    H271162   6.264   2.069   0.943  0.0904  0.2806  1.1255
16583TIP3   OH271163   6.478   2.225  12.132 -0.1970 -0.7899 -0.1330
16583TIP3    H171164   6.441   2.148  12.176 -3.1844  1.4340  1.6613
16583TIP3    H271165   6.448   2.217  12.041  0.7619 -2.3791 -0.3534
16584TIP3   OH271166   3.947   4.048   5.402 -0.2741  0.0165 -0.0043
16584TIP3    H171167   3.991   4.011   5.325 -0.8320 -0.0698 -0.2926
16584TIP3    H271168   3.861   4.007   5.402 -0.2034 -0.1481  0.8028
16585TIP3   OH271169   5.993   2.555   0.728 -0.2528  0.1117 -0.3225
16585TIP3    H171170   6.062   2.608   0.768  0.4130 -0.8781 -0.1139
16585TIP3    H271171   6.040   2.492   0.674 -0.9253 -1.3445  0.7421
16586TIP3   OH271172   1.128   5.171  12.532  0.9618  0.2146  0.1715
16586TIP3    H171173   1.084   5.183  12.448 -1.6717  0.5234  1.5146
16586TIP3    H271174   1.061   5.186  12.598  2.9135 -0.0793  2.3849
16587TIP3   OH271175   2.986   4.824   4.588  0.4886 -0.0940  0.2410
16587TIP3    H171176   2.940   4.816   4.504  0.2711 -1.1771  0.4495
16587TIP3    H271177   2.942   4.897   4.632 -0.8871 -0.9454  0.3290
16588TIP3   OH271178   0.307   2.771   5.555 -0.1032  0.1669  0.4363
16588TIP3    H171179   0.272   2.799   5.639 -3.3106 -0.8426 -0.4108
16588TIP3    H271180   0.309   2.675   5.560 -2.1851 -0.0492 -1.1476
16589TIP3   OH271181   1.503   3.948  14.906 -0.2452  0.2277  0.2927
16589TIP3    H171182   1.579   4.006  14.895 -1.1062  1.5726  1.2094
16589TIP3    H271183   1.541   3.863  14.931  0.9810  0.7136  0.1415
16590TIP3   OH271184   2.077   4.878  12.024 -0.0850 -0.3182 -0.2895
16590TIP3    H171185   2.122   4.794  12.017  2.3238  0.7450  1.0534
16590TIP3    H271186   2.070   4.894  12.118 -0.8815  0.7801 -0.5170
16591TIP3   OH271187   5.186   0.432   5.584  0.0039  0.2690  0.4441
16591TIP3    H171188   5.249   0.436   5.655  0.1852 -1.6470  0.4394
16591TIP3    H271189   5.196   0.515   5.538  2.8704 -0.1360  0.1604
16592TIP3   OH271190   5.536   6.553  11.802 -0.1204 -0.6615  0.0066
16592TIP3    H171191   5.544   6.466  11.763  2.8796  0.2454 -1.7666
16592TIP3    H271192   5.553   6.539  11.896  3.2257 -1.7982 -0.6211
16593TIP3   OH271193   0.271   4.967   2.882 -0.5549  0.1932  0.1733
16593TIP3    H171194   0.316   4.885   2.904 -0.0999  0.1464 -0.9087
16593TIP3    H271195   0.180   4.941   2.869 -0.3707 -0.1922 -0.3921
16594TIP3   OH271196   1.589   2.054   4.699 -0.6032  0.0668 -0.1141
16594TIP3    H171197   1.566   1.972   4.743  2.1659  0.3226  2.1390
16594TIP3    H271198   1.663   2.031   4.643  0.5406  1.0481  0.9263
16595TIP3   OH271199   3.152   0.988  11.002 -0.1313 -0.2573  0.5705
16595TIP3    H171200   3.243   1.001  10.974 -0.8978 -0.6168 -2.3765
16595TIP3    H271201   3.148   0.895  11.026 -0.1690 -0.8344 -1.4630
16596TIP3   OH271202   3.442   5.530   3.637  0.2339 -0.1881 -0.7282
16596TIP3    H171203   3.366   5.582   3.663 -0.4494 -0.7488 -1.5557
16596TIP3    H271204   3.517   5.578   3.672 -0.5499 -0.1771  1.0094
16597TIP3   OH271205   5.195   3.693  16.591  0.2800 -0.4006 -0.3399
16597TIP3    H171206   5.210   3.678  16.684 -0.7985 -1.2870 -0.2829
16597TIP3    H271207   5.184   3.788  16.583  1.5271 -0.1896  0.2346
16598TIP3   OH271208   2.885   1.550  11.269  0.1129  0.0692 -0.6187
16598TIP3    H171209   2.942   1.486  11.311  0.4148  0.8505  0.1894
16598TIP3    H271210   2.916   1.555  11.179  1.8339  1.0109 -0.0323
16599TIP3   OH271211   0.601   0.510  17.176  0.6823  0.1921 -0.1499
16599TIP3    H171212   0.611   0.439  17.240  0.7873  0.2680 -0.0819
16599TIP3    H271213   0.638   0.475  17.095 -1.9424 -0.9643 -0.9671
16600TIP3   OH271214   1.952   1.381  16.474  0.3038 -0.1710 -0.1496
16600TIP3    H171215   1.932   1.327  16.397  1.1886  0.7777 -1.0837
16600TIP3    H271216   2.041   1.356  16.499  0.0667 -0.3783  0.4966
16601TIP3   OH271217   2.234   1.541   2.181  0.1896  0.0372  0.1942
16601TIP3    H171218   2.203   1.502   2.262  0.5239  1.0426  0.8175
16601TIP3    H271219   2.162   1.529   2.119 -0.7027  0.6710  1.0884
16602TIP3   OH271220   6.460   3.198   2.551 -0.6535  0.1620 -0.2319
16602TIP3    H171221   6.475   3.165   2.640 -0.3686  1.1561  0.1085
16602TIP3    H271222   6.520   3.272   2.543 -1.7032  0.9867 -0.7261
16603TIP3   OH271223   2.674   4.235   4.761  0.4931  0.2966 -0.3719
16603TIP3    H171224   2.746   4.290   4.733  0.2143 -0.2603 -2.3037
16603TIP3    H271225   2.681   4.156   4.706 -1.9763  0.5393 -1.1427
16604TIP3   OH271226   2.865   3.420  11.718 -0.0059  0.0412 -0.0611
16604TIP3    H171227   2.790   3.477  11.736  0.0804  0.2760 -0.4286
16604TIP3    H271228   2.854   3.394  11.626 -0.1487 -0.6908  0.1514
16605TIP3   OH271229   0.925   3.030   5.914  0.2762 -0.1035 -0.5932
16605TIP3    H171230   0.916   2.959   5.850  0.5195  1.4602 -2.4745
16605TIP3    H271231   1.001   3.079   5.883  2.6400 -1.1860  2.9364
16606TIP3   OH271232   4.821   3.465   2.872 -1.0513  0.0843  0.3540
16606TIP3    H171233   4.740   3.417   2.854  0.0694 -1.6600 -0.2764
16606TIP3    H271234   4.812   3.546   2.823 -2.6398  0.1623  0.7269
16607TIP3   OH271235   5.371   3.314  12.817 -0.2626  0.0403  0.1786
16607TIP3    H171236   5.359   3.344  12.906  0.2401 -2.1518  1.0612
16607TIP3    H271237   5.297   3.255  12.801  0.1274 -0.2789 -0.5168
16608TIP3   OH271238   5.905   3.523   2.568  0.4324 -0.1693 -0.2509
16608TIP3    H171239   5.853   3.602   2.554  0.1501 -0.0486  1.3326
16608TIP3    H271240   5.991   3.554   2.594  0.1840 -0.3523  0.8484
16609TIP3   OH271241   3.722   0.851   0.881  0.3626  0.0323 -0.3206
16609TIP3    H171242   3.795   0.794   0.856  0.0066 -0.6072  0.0886
16609TIP3    H271243   3.718   0.917   0.811  1.0191 -0.2130 -0.5951
16610TIP3   OH271244   2.698   3.372  14.484  0.2260 -0.1353 -0.7665
16610TIP3    H171245   2.726   3.422  14.407  1.1165 -0.5055 -0.6942
16610TIP3    H271246   2.710   3.281  14.459  0.4104 -0.2616 -0.2306
16611TIP3   OH271247   0.821   0.492   2.638 -0.2222 -0.0285 -0.2905
16611TIP3    H171248   0.746   0.503   2.581 -0.5667 -0.1661  0.1293
16611TIP3    H271249   0.858   0.407   2.614  0.0529  0.2243 -0.7820
16612TIP3   OH271250   3.430   1.619  14.546  0.2404  0.1549  0.2487
16612TIP3    H171251   3.487   1.545  14.526  1.2325  1.3123 -1.3845
16612TIP3    H271252   3.358   1.613  14.483  0.2847  0.5395  0.1579
16613TIP3   OH271253   1.749   0.128  12.957  0.1777  0.2888  0.3019
16613TIP3    H171254   1.834   0.151  12.995  1.0561 -0.4731 -1.0953
16613TIP3    H271255   1.764   0.131  12.863 -1.5466  0.7700  0.0071
16614TIP3   OH271256   2.630   5.150  11.241 -0.2796  0.3102 -0.9523
16614TIP3    H171257   2.610   5.229  11.191  2.0254  0.9238 -0.9853
16614TIP3    H271258   2.725   5.141  11.236 -0.2207 -1.0265  1.2007
16615TIP3   OH271259   4.999   5.852  16.524 -0.3924 -0.1872  0.2643
16615TIP3    H171260   4.976   5.912  16.594 -2.2575 -0.1233 -0.3588
16615TIP3    H271261   5.025   5.772  16.569 -0.7354  0.1245  1.0382
16616TIP3   OH271262   4.886   0.803   1.488 -0.1927  0.2677  0.6443
16616TIP3    H171263   4.971   0.768   1.516  0.2046  1.5872  1.1315
16616TIP3    H271264   4.905   0.852   1.408 -0.9635 -1.6193 -0.7781
16617TIP3   OH271265   3.363   4.785  13.843 -0.5966 -0.1386  0.4689
16617TIP3    H171266   3.285   4.780  13.786 -1.1134 -0.0393  1.1556
16617TIP3    H271267   3.381   4.879  13.850 -0.4411 -0.1595  0.3476
16618TIP3   OH271268   4.088   6.164  12.890  0.0081 -0.6057  1.0024
16618TIP3    H171269   4.080   6.109  12.813 -4.2447  0.4274  0.4522
16618TIP3    H271270   4.116   6.105  12.960  0.8592 -2.2346 -0.6502
16619TIP3   OH271271   5.839   4.412  12.532  0.3328  0.8505 -0.3334
16619TIP3    H171272   5.907   4.463  12.576  0.6623  0.2055 -0.0737
16619TIP3    H271273   5.888   4.350  12.478 -0.0021 -0.8234  1.2114
16620TIP3   OH271274   1.024   0.713  12.740  0.6367  0.1016  0.1491
16620TIP3    H171275   1.072   0.630  12.744 -0.1727 -0.8671 -4.3956
16620TIP3    H271276   1.093   0.779  12.729  1.1658 -0.6506 -1.2933
16621TIP3   OH271277   1.731   4.498  12.040  0.0654  0.3403  0.0472
16621TIP3    H171278   1.685   4.579  12.017  2.6901  1.6285 -1.0214
16621TIP3    H271279   1.742   4.502  12.134 -0.9346  0.5591  0.1730
16622TIP3   OH271280   2.326   4.203  13.041  0.0120  0.1691 -0.3105
16622TIP3    H171281   2.277   4.121  13.037  0.1549  0.0713 -0.0794
16622TIP3    H271282   2.414   4.181  13.011  0.9317 -0.4485  2.5367
16623TIP3   OH271283   5.131   4.602   4.921  0.0159  0.6122  0.0123
16623TIP3    H171284   5.099   4.516   4.893  0.1308  0.1444  1.2804
16623TIP3    H271285   5.218   4.585   4.957  0.2115  1.3274 -0.1009
16624TIP3   OH271286   6.673   5.641   2.444  0.1816  0.6012 -0.2463
16624TIP3    H171287   6.584   5.606   2.445  0.8623 -1.2145  0.2685
16624TIP3    H271288   6.681   5.689   2.526  0.6156 -1.8961  1.2933
16625TIP3   OH271289   3.610   0.640  15.355  0.4404 -0.4794  0.1219
16625TIP3    H171290   3.543   0.576  15.378  0.8530 -0.2598  2.0640
16625TIP3    H271291   3.693   0.594  15.364  0.6906  0.0506  0.5922
16626TIP3   OH271292   4.259   4.343   0.309 -0.4575  0.7041  0.0888
16626TIP3    H171293   4.206   4.264   0.306 -1.8728  1.5088  2.2213
16626TIP3    H271294   4.196   4.415   0.315  0.8231  1.8983 -0.2244
16627TIP3   OH271295   1.906   5.236  15.756 -0.3664  0.4088 -0.0752
16627TIP3    H171296   1.923   5.325  15.725 -0.9833  0.2240 -0.9725
16627TIP3    H271297   1.971   5.182  15.710 -0.7707  0.2429 -0.4654
16628TIP3   OH271298   4.326   2.638  14.558  0.8019  0.2702  0.0614
16628TIP3    H171299   4.370   2.554  14.561 -0.3013 -0.3121  0.5529
16628TIP3    H271300   4.372   2.692  14.622  0.7639 -0.3459  0.6201
16629TIP3   OH271301   3.349   4.252   5.125 -0.2395 -0.3795 -0.2448
16629TIP3    H171302   3.384   4.229   5.211 -0.4541  3.0901  0.9179
16629TIP3    H271303   3.256   4.265   5.140 -0.1360  1.0738 -0.7680
16630TIP3   OH271304   0.284   3.237  14.488 -0.5182 -0.0852 -0.1305
16630TIP3    H171305   0.305   3.326  14.515  0.5939 -0.6278  0.8845
16630TIP3    H271306   0.192   3.241  14.461 -0.0227  1.7232 -1.7328
16631TIP3   OH271307   3.126   5.615  13.996  0.0562  0.2987  0.5688
16631TIP3    H171308   3.150   5.704  14.022 -0.2148  0.3050  0.8010
16631TIP3    H271309   3.073   5.582  14.068  0.5447 -0.2226  0.6952
16632TIP3   OH271310   6.343   0.242  15.016 -0.4855 -0.0014 -0.3902
16632TIP3    H171311   6.319   0.172  15.077  1.5051  1.1627  1.9241
16632TIP3    H271312   6.261   0.291  15.002 -0.7643  0.7101  2.8712
16633TIP3   OH271313   5.569   6.283   4.578 -0.2586 -0.2704  0.1166
16633TIP3    H171314   5.615   6.199   4.579  0.2803 -0.0047  1.5998
16633TIP3    H271315   5.535   6.291   4.489 -1.2986 -2.5787  0.2176
16634TIP3   OH271316   5.085   5.924   3.444  0.2934 -0.0963  0.2563
16634TIP3    H171317   5.121   5.868   3.513  1.5011  0.3188 -0.0155
16634TIP3    H271318   5.138   6.004   3.448  0.1080  0.0956 -0.8844
16635TIP3   OH271319   2.049   5.665   5.021 -0.2146  0.1535  0.1215
16635TIP3    H171320   2.089   5.620   4.947 -0.1002 -2.1490  1.4487
16635TIP3    H271321   2.122   5.703   5.069 -0.3062  1.8137 -0.9941
16636TIP3   OH271322   2.497   4.182  11.014 -0.4433 -0.6106  0.3553
16636TIP3    H171323   2.497   4.124  10.937 -1.9787  2.2278 -2.0115
16636TIP3    H271324   2.404   4.197  11.032 -0.1630  2.1143 -0.0739
16637TIP3   OH271325   3.109   2.317  13.316  0.0868 -0.4120 -0.1662
16637TIP3    H171326   3.110   2.230  13.277 -0.3715 -0.8700  0.8094
16637TIP3    H271327   3.035   2.361  13.275 -1.2446 -1.3552  1.1160
16638TIP3   OH271328   6.732   3.142   5.463  0.0666 -0.1152  0.1008
16638TIP3    H171329   6.690   3.183   5.539 -0.2659 -0.6740  0.2238
16638TIP3    H271330   6.812   3.192   5.450  0.5467 -0.5210  1.3340
16639TIP3   OH271331   4.921   5.990  15.114 -0.6481 -0.1600  0.2380
16639TIP3    H171332   4.868   6.061  15.078 -0.1692  1.1554  2.0065
16639TIP3    H271333   4.872   5.959  15.189 -0.0958 -0.6242  0.4157
16640TIP3   OH271334   1.294   1.503   1.960  0.2509  0.2078  0.4365
16640TIP3    H171335   1.266   1.519   1.870 -0.7270 -0.0390  0.6861
16640TIP3    H271336   1.257   1.575   2.010 -1.8233 -1.2375  1.1129
16641TIP3   OH271337   5.365   6.252  11.394 -0.4600 -0.5583  0.0946
16641TIP3    H171338   5.430   6.182  11.388  0.6503  0.2163  2.0763
16641TIP3    H271339   5.338   6.268  11.304  1.8098 -1.1919 -0.7606
16642TIP3   OH271340   0.967   1.834   4.761  0.0680 -0.0540 -0.1158
16642TIP3    H171341   1.007   1.807   4.844  1.0419  0.7063 -0.3230
16642TIP3    H271342   1.000   1.923   4.746 -0.5079  0.0142 -1.0637
16643TIP3   OH271343   0.968   5.577   4.411  0.9877 -0.9488  0.4033
16643TIP3    H171344   0.892   5.526   4.440  1.1269 -0.9620  0.7457
16643TIP3    H271345   0.935   5.666   4.402  0.8998 -0.9789  0.4251
16644TIP3   OH271346   4.651   3.969   4.632  0.3359  0.1272 -0.2892
16644TIP3    H171347   4.742   3.944   4.647  0.8288  1.9447  0.0655
16644TIP3    H271348   4.656   4.054   4.589 -1.2024  0.0622 -0.6680
16645TIP3   OH271349   5.299   2.249   5.354  0.4048 -0.0964 -0.6178
16645TIP3    H171350   5.229   2.206   5.403 -0.0503  2.5424  1.2898
16645TIP3    H271351   5.275   2.342   5.355  2.2007  0.4691 -2.9348
16646TIP3   OH271352   5.804   6.585  17.060 -0.1576  1.0490 -0.1489
16646TIP3    H171353   5.859   6.649  17.106  0.9985  0.1944 -0.2901
16646TIP3    H271354   5.745   6.551  17.127 -0.4330  1.8859  0.0411
16647TIP3   OH271355   3.087   2.763   0.941 -0.1431 -0.7650  0.2333
16647TIP3    H171356   3.136   2.834   0.898 -0.9652  0.4173  1.1832
16647TIP3    H271357   3.102   2.776   1.034  0.0677 -2.1571  0.4192
16648TIP3   OH271358   3.448   5.663  16.990  0.5183  0.2963  0.0676
16648TIP3    H171359   3.358   5.664  16.956  0.4972  1.2943  0.1357
16648TIP3    H271360   3.454   5.580  17.038  0.0141 -0.3478 -0.9293
16649TIP3   OH271361   4.776   6.226  15.663  0.3989  0.1847  0.2979
16649TIP3    H171362   4.769   6.293  15.595 -2.7082 -0.1703  0.1252
16649TIP3    H271363   4.840   6.163  15.628  0.1990  0.9131 -1.4922
16650TIP3   OH271364   6.111   5.776  11.775  0.1024  0.0979 -0.1192
16650TIP3    H171365   6.117   5.686  11.743  0.2225  0.2859 -0.6407
16650TIP3    H271366   6.134   5.830  11.699 -2.4722  0.6728 -0.6059
16651TIP3   OH271367   1.776   1.829   0.279  0.0976  0.0144  0.0633
16651TIP3    H171368   1.870   1.813   0.266 -0.5044 -2.2143 -2.5844
16651TIP3    H271369   1.749   1.874   0.199 -1.2456 -0.1627  0.4014
16652TIP3   OH271370   6.740   5.092  11.562 -0.3703 -0.0942 -0.4009
16652TIP3    H171371   6.674   5.121  11.625 -0.2134 -0.8497  0.1158
16652TIP3    H271372   6.740   5.161  11.495 -1.4069  0.1116 -0.2142
16653TIP3   OH271373   3.996   2.634   0.264 -0.0165 -0.3262 -0.6802
16653TIP3    H171374   4.033   2.722   0.253  0.6698 -0.2701  1.5763
16653TIP3    H271375   3.903   2.645   0.244  0.3268  0.5329 -1.9964
16654TIP3   OH271376   0.529   0.015   3.001 -0.1315 -0.1509  0.3559
16654TIP3    H171377   0.569   0.084   3.054 -0.6631 -0.1427  0.7542
16654TIP3    H271378   0.492  -0.046   3.065  2.5073 -2.1956  0.1240
16655TIP3   OH271379   5.876   4.808   4.432  0.5164  0.4414  0.8226
16655TIP3    H171380   5.818   4.759   4.490 -0.9182  0.0936 -0.8313
16655TIP3    H271381   5.830   4.889   4.413  0.0275 -0.2745 -1.3240
16656TIP3   OH271382   4.692   5.898  16.464 -0.0362  0.9373 -0.4059
16656TIP3    H171383   4.733   5.950  16.395  1.9041  0.2181  0.1456
16656TIP3    H271384   4.762   5.881  16.527 -0.8973 -1.2549  0.0798
16657TIP3   OH271385   6.372   0.131  15.672 -0.2781 -0.2359  0.2760
16657TIP3    H171386   6.393   0.056  15.727  1.7451  1.6063  2.2139
16657TIP3    H271387   6.330   0.193  15.731  2.0734  1.8693 -0.1010
16658TIP3   OH271388   1.645   0.028  10.956  0.1047 -0.2087  0.5976
16658TIP3    H171389   1.578   0.097  10.956  0.1056 -0.1972  1.4164
16658TIP3    H271390   1.649  -0.000  11.047 -0.8119 -2.1914  0.0785
16659TIP3   OH271391   5.744   2.787   5.796 -0.7001  0.1099  0.3568
16659TIP3    H171392   5.655   2.809   5.769 -1.1228 -0.8807  0.9040
16659TIP3    H271393   5.740   2.694   5.819  0.6894 -0.2070 -0.5164
16660TIP3   OH271394   0.591   5.190   4.907 -0.0640 -0.2201 -0.2222
16660TIP3    H171395   0.572   5.204   4.814  2.0135 -0.3849 -0.7218
16660TIP3    H271396   0.553   5.266   4.951  1.7857  1.6552 -1.6481
16661TIP3   OH271397   5.481   4.241   5.521  0.3069 -0.4921  0.0199
16661TIP3    H171398   5.537   4.163   5.522 -1.2062 -1.7591 -2.5046
16661TIP3    H271399   5.411   4.221   5.584 -0.0484 -1.2064 -0.5786
16662TIP3   OH271400   0.180   2.035   6.479  0.4360 -0.2955 -0.2051
16662TIP3    H171401   0.258   2.081   6.511 -0.4380  1.0849  0.0136
16662TIP3    H271402   0.109   2.064   6.536 -0.7532  0.5794 -2.0308
16663TIP3   OH271403   2.877   6.378   4.907 -0.0341 -0.1876 -0.0866
16663TIP3    H171404   2.940   6.450   4.907 -0.4429  0.1761 -0.5044
16663TIP3    H271405   2.894   6.331   4.989  0.5288  0.1237 -0.0226
16664TIP3   OH271406   0.437   3.417  12.947  0.0770  0.0554  0.6518
16664TIP3    H171407   0.523   3.396  12.911 -0.4475  1.1239 -1.4128
16664TIP3    H271408   0.399   3.332  12.970  1.1408 -0.5457  0.2494
16665TIP3   OH271409   3.791   4.648  11.277 -0.2068 -0.0588 -0.1619
16665TIP3    H171410   3.841   4.718  11.319 -0.7835 -0.9748  2.2032
16665TIP3    H271411   3.744   4.692  11.206  1.3722  1.4315 -0.3449
16666TIP3   OH271412   3.765   2.549  12.132  0.2854  0.5617  0.0926
16666TIP3    H171413   3.719   2.539  12.215 -2.6162 -2.1524 -1.6350
16666TIP3    H271414   3.698   2.579  12.071  1.6406 -0.2062 -1.8721
16667TIP3   OH271415   0.701   5.043   2.675 -0.8226  0.2762  0.3436
16667TIP3    H171416   0.646   4.991   2.617 -0.7119  0.9925 -0.4275
16667TIP3    H271417   0.643   5.114   2.704 -0.2322  1.2667 -0.7936
16668TIP3   OH271418   0.299   2.879   4.967  0.0655  0.2258 -0.5149
16668TIP3    H171419   0.242   2.828   5.024  1.0461  0.1516  0.4463
16668TIP3    H271420   0.306   2.828   4.887  0.0674 -0.5587 -0.0240
16669TIP3   OH271421   0.031   2.776  14.309 -0.5120 -0.2538  0.6960
16669TIP3    H171422  -0.025   2.807  14.380  1.3330  4.6852  0.3768
16669TIP3    H271423   0.120   2.792  14.340  0.4106  0.1755 -1.9632
16670TIP3   OH271424   5.436   6.168   4.823 -0.5550 -0.5995  0.2325
16670TIP3    H171425   5.404   6.243   4.773 -2.1831 -1.0447  0.5299
16670TIP3    H271426   5.526   6.155   4.794 -0.0040  1.8724  0.6552
16671TIP3   OH271427   2.218   3.240   4.584 -0.3155  0.0488 -0.1666
16671TIP3    H171428   2.257   3.182   4.519 -0.8688  0.6384 -1.0433
16671TIP3    H271429   2.160   3.184   4.635 -1.2918 -0.0802 -1.3795
16672TIP3   OH271430   6.651   0.870  16.483  0.0616  0.0055  0.2759
16672TIP3    H171431   6.691   0.879  16.397  0.4928  0.6402  0.5362
16672TIP3    H271432   6.566   0.830  16.466 -0.2517  0.9840 -0.5526
16673TIP3   OH271433   5.326   0.567  13.477 -0.4853  0.3714  0.2788
16673TIP3    H171434   5.330   0.625  13.401 -0.5232  2.4590  1.8145
16673TIP3    H271435   5.232   0.553  13.491 -0.4779 -0.0261 -0.0447
16674TIP3   OH271436   0.539   5.624  11.614 -0.0277 -0.5602 -0.2068
16674TIP3    H171437   0.558   5.657  11.526 -0.7837 -0.3230 -0.2951
16674TIP3    H271438   0.524   5.530  11.601 -0.6094 -0.4437 -0.4153
16675TIP3   OH271439   5.196   1.515  16.217 -0.1762  0.4849  1.0202
16675TIP3    H171440   5.225   1.431  16.253 -1.7207 -2.6776 -3.9863
16675TIP3    H271441   5.273   1.547  16.168  0.1522  1.6509  2.2520
16676TIP3   OH271442   3.812   0.923   1.601 -0.1901  0.5667 -0.5055
16676TIP3    H171443   3.740   0.865   1.575  0.2683  0.0399 -0.6028
16676TIP3    H271444   3.806   0.927   1.696  1.2094 -1.5458 -0.2785
16677TIP3   OH271445   5.904   5.878   5.428 -0.7130  0.1210  0.1428
16677TIP3    H171446   5.916   5.945   5.360 -0.7490  1.5698  1.5121
16677TIP3    H271447   5.986   5.829   5.429 -0.2801  0.8214 -0.1710
16678TIP3   OH271448   3.864   2.269  11.938  0.4782 -0.4452  0.3773
16678TIP3    H171449   3.840   2.326  11.864  0.1614 -2.8496 -1.4970
16678TIP3    H271450   3.959   2.262  11.932  0.3450 -1.7726 -0.7868
16679TIP3   OH271451   1.151   1.558   6.042 -0.3344 -0.2583 -0.0976
16679TIP3    H171452   1.098   1.620   5.990  0.4963  2.2064  1.7899
16679TIP3    H271453   1.098   1.541   6.120  1.0169  1.2749  1.2342
16680TIP3   OH271454   2.451   6.186   5.081 -0.9468  0.3000  0.5038
16680TIP3    H171455   2.484   6.159   4.996  0.1843 -0.6375  1.2106
16680TIP3    H271456   2.367   6.228   5.062 -1.3827 -1.1145 -0.9392
16681TIP3   OH271457   2.818   0.976  10.835 -0.2220  0.6907 -0.3224
16681TIP3    H171458   2.910   0.961  10.814  0.2903  0.4593  1.8068
16681TIP3    H271459   2.796   1.058  10.792  0.6342  0.1694 -1.8127
16682TIP3   OH271460   5.337   0.355  13.729  0.8369  0.3230  0.3081
16682TIP3    H171461   5.302   0.389  13.647  1.1536  0.0496  0.0559
16682TIP3    H271462   5.409   0.414  13.751  0.5527  0.5786  0.5525
16683TIP3   OH271463   6.240   1.187  14.523 -0.5095  0.6186  0.2491
16683TIP3    H171464   6.228   1.254  14.590 -1.9791 -0.5776  1.2628
16683TIP3    H271465   6.300   1.123  14.562 -3.6503 -1.6694  1.8835
16684TIP3   OH271466   3.699   4.162   5.189 -0.1073 -0.6734 -0.2812
16684TIP3    H171467   3.786   4.158   5.149  0.8904  3.3120  1.0340
16684TIP3    H271468   3.649   4.219   5.132 -0.6577 -0.0538  0.7820
16685TIP3   OH271469   5.554   1.230  16.054 -0.2806 -0.0679  0.0717
16685TIP3    H171470   5.599   1.306  16.019 -0.7007  1.0241  1.7821
16685TIP3    H271471   5.541   1.250  16.147 -0.1162 -2.3674  0.6608
16686TIP3   OH271472   3.389   5.397  16.554 -0.0675  0.6431 -0.1562
16686TIP3    H171473   3.331   5.455  16.505 -0.5148  0.6049  0.3255
16686TIP3    H271474   3.445   5.456  16.605 -0.5189  0.6528  0.3296
16687TIP3   OH271475   3.046   0.939   0.573 -0.2230  0.6397  0.2692
16687TIP3    H171476   2.981   0.951   0.642  0.3745  0.9353  0.7917
16687TIP3    H271477   2.995   0.931   0.493 -0.9160  0.5294  0.7152
16688TIP3   OH271478   6.553   0.194   4.473 -0.1130  0.2731  0.0104
16688TIP3    H171479   6.533   0.215   4.564  0.3187 -0.1856  0.2149
16688TIP3    H271480   6.468   0.195   4.428 -0.6305 -1.6423  0.8533
16689TIP3   OH271481   3.058   0.069   3.169  0.3709  0.0136  0.3281
16689TIP3    H171482   3.082   0.062   3.262  0.0379  2.5958  0.6883
16689TIP3    H271483   3.135   0.035   3.122  1.4730  0.7013  1.5565
16690TIP3   OH271484   2.255   1.225   4.712 -0.0630 -0.6452 -0.1113
16690TIP3    H171485   2.171   1.181   4.719  1.3928 -3.8073 -0.5408
16690TIP3    H271486   2.259   1.282   4.788 -1.6681 -2.1917  1.2190
16691TIP3   OH271487   0.728   6.248  15.322 -0.2388  0.7311 -0.3683
16691TIP3    H171488   0.790   6.180  15.351 -0.9831  0.1449 -0.1278
16691TIP3    H271489   0.686   6.211  15.245  0.2038  1.4171 -0.9488
16692TIP3   OH271490   2.043   4.742   4.568 -0.4367  0.4682 -0.1831
16692TIP3    H171491   2.004   4.695   4.494 -0.9308  0.2352  0.2197
16692TIP3    H271492   2.126   4.696   4.584 -0.2148  0.6751 -0.7487
16693TIP3   OH271493   4.905   4.386   5.173 -0.1489 -0.1437 -0.0508
16693TIP3    H171494   4.921   4.292   5.164 -0.8718 -0.1130 -2.2242
16693TIP3    H271495   4.992   4.424   5.184  0.2338 -0.9626 -0.1753
16694TIP3   OH271496   2.067   1.365  12.491  0.1449 -0.1672  0.4320
16694TIP3    H171497   2.067   1.315  12.410 -1.3154  0.3678  0.0832
16694TIP3    H271498   2.065   1.457  12.463  0.0263  0.0300  1.0699
16695TIP3   OH271499   0.907   2.387  12.393  0.0094  0.2792  0.7339
16695TIP3    H171500   0.827   2.440  12.391 -0.2028 -0.0477 -0.0206
16695TIP3    H271501   0.876   2.297  12.388  0.3765  0.0779  1.8610
16696TIP3   OH271502   6.306   3.785  11.798  0.2254 -0.3650  0.3491
16696TIP3    H171503   6.387   3.735  11.787  0.5875 -0.2862  2.3899
16696TIP3    H271504   6.256   3.766  11.718  1.4881 -1.8278 -0.1493
16697TIP3   OH271505   6.164   1.792   1.301 -0.5720  0.0891  0.0994
16697TIP3    H171506   6.220   1.865   1.274  1.5990 -1.8829 -1.2240
16697TIP3    H271507   6.127   1.759   1.219  0.1487 -1.4911  0.3574
16698TIP3   OH271508   5.905   5.852  12.717 -0.1584 -0.3468  0.7975
16698TIP3    H171509   5.878   5.849  12.809 -0.2294 -0.9518  0.7581
16698TIP3    H271510   5.910   5.946  12.697 -2.6636 -0.1758  0.6696
16699TIP3   OH271511   2.730   5.028  16.773 -0.3182  0.8150  0.1917
16699TIP3    H171512   2.749   5.063  16.685  0.5641  0.6679  0.3126
16699TIP3    H271513   2.785   4.950  16.780  0.5919  1.5322  1.3536
16700TIP3   OH271514   4.577   2.004  12.399  0.3886  0.1104  0.3058
16700TIP3    H171515   4.498   1.961  12.366  0.7675 -1.2665  1.0835
16700TIP3    H271516   4.545   2.077  12.452 -0.3255  0.1295 -0.1389
16701TIP3   OH271517   3.886   1.608  10.537 -0.3572 -0.0126  0.0894
16701TIP3    H171518   3.875   1.649  10.623 -1.7882 -2.0552  0.9610
16701TIP3    H271519   3.927   1.524  10.556 -2.3496 -1.3011 -0.9357
16702TIP3   OH271520   3.567   5.731  11.290 -0.0584  0.3063 -0.0954
16702TIP3    H171521   3.640   5.690  11.336  0.1837  0.8992  0.0551
16702TIP3    H271522   3.535   5.663  11.231 -0.6877 -0.6336  1.2765
16703TIP3   OH271523   1.310   6.446   4.712  0.3813 -0.3577  0.4109
16703TIP3    H171524   1.396   6.487   4.711  0.2112  0.0667  1.6850
16703TIP3    H271525   1.307   6.396   4.630  1.7621 -0.2557  0.2660
16704TIP3   OH271526   4.999   6.271  14.229  0.1381 -0.4003  0.1682
16704TIP3    H171527   5.058   6.342  14.255  1.2775 -1.3055  0.1380
16704TIP3    H271528   4.922   6.282  14.284  0.2963  0.8612  0.1551
16705TIP3   OH271529   1.292   4.156   3.670  0.3385 -0.1446  0.4329
16705TIP3    H171530   1.353   4.154   3.597  1.5839 -2.5317  1.4384
16705TIP3    H271531   1.237   4.079   3.658  0.3093 -0.3584  1.7928
16706TIP3   OH271532   1.935   1.960   1.769  0.2592  0.1980 -0.0876
16706TIP3    H171533   1.940   1.865   1.778  1.0822  0.4147  2.5307
16706TIP3    H271534   2.025   1.990   1.778 -0.2612  1.3479  2.0378
16707TIP3   OH271535   0.363   4.606   5.821  0.4830 -0.1314 -0.0445
16707TIP3    H171536   0.430   4.643   5.763  0.3001 -0.2667 -0.3440
16707TIP3    H271537   0.405   4.605   5.908  0.5158  0.7050 -0.0388
16708TIP3   OH271538   4.940   5.970  12.317  0.3818 -0.1799 -0.4740
16708TIP3    H171539   5.016   5.984  12.259 -0.7256  3.0479 -1.4034
16708TIP3    H271540   4.883   5.912  12.267  1.1082 -0.5743 -0.8790
16709TIP3   OH271541   5.766   3.453   1.166 -0.4238 -0.4732  0.3595
16709TIP3    H171542   5.825   3.471   1.239  0.0322  0.0001 -0.1166
16709TIP3    H271543   5.763   3.357   1.161  0.2928 -0.4993  0.3968
16710TIP3   OH271544   2.526   0.080  15.312 -0.5642 -0.1591  0.3107
16710TIP3    H171545   2.441   0.100  15.272 -1.2936  0.5319  2.1008
16710TIP3    H271546   2.550   0.160  15.359  0.6126 -0.6711  0.6129
16711TIP3   OH271547   5.568   2.118  16.482 -0.2153 -0.1980 -0.1885
16711TIP3    H171548   5.620   2.069  16.419  0.4233 -1.2775  1.1207
16711TIP3    H271549   5.477   2.107  16.453  0.1470  0.5661 -1.7193
16712TIP3   OH271550   6.131   2.028   1.839  0.2887  0.3696  0.0100
16712TIP3    H171551   6.043   2.037   1.877  0.5848 -0.3052  0.8744
16712TIP3    H271552   6.122   2.064   1.751 -0.1245  3.2515  1.0920
16713TIP3   OH271553   2.514   0.605  14.577 -0.1142  0.0039  0.1224
16713TIP3    H171554   2.443   0.608  14.641  0.2955 -0.2781  0.6004
16713TIP3    H271555   2.586   0.652  14.618  0.3726 -0.7541  0.1560
16714TIP3   OH271556   1.388   3.511  11.331 -0.0390  0.1561  0.2802
16714TIP3    H171557   1.300   3.543  11.354  0.2873  0.5229  1.0669
16714TIP3    H271558   1.391   3.516  11.235 -1.4902 -1.5389  0.0965
16715TIP3   OH271559   5.629   3.238  12.858 -0.1653 -0.3821 -0.2340
16715TIP3    H171560   5.534   3.249  12.845 -0.0540  1.2308  0.1601
16715TIP3    H271561   5.637   3.205  12.948 -0.2644  2.0808  0.7420
16716TIP3   OH271562   4.904   5.358  15.631  0.0158 -0.1642  0.1499
16716TIP3    H171563   4.820   5.404  15.637 -0.7094 -1.0007 -2.3722
16716TIP3    H271564   4.968   5.427  15.617 -0.1842  0.4864  2.1051
16717TIP3   OH271565   1.654   1.157  15.645 -0.5177 -0.0474 -0.6795
16717TIP3    H171566   1.565   1.179  15.618 -1.0175 -0.1120  0.7800
16717TIP3    H271567   1.684   1.092  15.582 -1.1196  0.7235 -1.7780
16718TIP3   OH271568   4.527   2.334   3.382  0.3085  0.3228  0.0568
16718TIP3    H171569   4.534   2.300   3.293  1.9166 -2.5484  1.1414
16718TIP3    H271570   4.433   2.328   3.403  0.1940 -0.9139 -0.7495
16719TIP3   OH271571   5.344   1.802   5.609 -0.2628  0.0443  0.1285
16719TIP3    H171572   5.303   1.774   5.528 -1.1592 -0.0173  0.5902
16719TIP3    H271573   5.277   1.855   5.653  0.4001  0.5284  0.5785
16720TIP3   OH271574   5.166   4.123  16.776 -0.1886 -0.2130  0.1726
16720TIP3    H171575   5.147   4.091  16.865 -2.3492  0.5010  0.0372
16720TIP3    H271576   5.260   4.143  16.777 -0.3450  0.8297  2.6682
16721TIP3   OH271577   2.604   2.630  12.010 -0.2060  0.2384  0.7494
16721TIP3    H171578   2.653   2.669  11.937  0.1495 -0.9282  0.3459
16721TIP3    H271579   2.653   2.551  12.032 -0.7969  0.1217  1.6869
16722TIP3   OH271580   2.913   4.808  16.837 -0.0496  0.5216 -0.0504
16722TIP3    H171581   2.893   4.716  16.821 -1.5823  0.8364 -0.1063
16722TIP3    H271582   2.947   4.810  16.926 -1.0262  0.0369  0.3385
16723TIP3   OH271583   2.487   5.674  13.926  0.2354  0.0013  0.5377
16723TIP3    H171584   2.580   5.680  13.902  0.3329 -0.3158  0.8331
16723TIP3    H271585   2.486   5.681  14.021  0.0284 -0.7668  0.5977
16724TIP3   OH271586   6.456   5.799  13.291  0.0407  0.3069  0.6997
16724TIP3    H171587   6.403   5.879  13.284 -1.6157 -0.8393 -0.4375
16724TIP3    H271588   6.539   5.829  13.329 -0.8388  2.4218  1.0976
16725TIP3   OH271589   6.026   3.252  13.135 -0.8162 -0.3465  0.0180
16725TIP3    H171590   5.943   3.223  13.096 -0.7861  0.1941 -0.4697
16725TIP3    H271591   6.001   3.296  13.216 -0.8075 -2.3449  1.1611
16726TIP3   OH271592   1.444   1.743  15.355 -0.1647 -0.3118  0.4754
16726TIP3    H171593   1.386   1.777  15.286  0.4603 -2.6575 -1.3242
16726TIP3    H271594   1.520   1.801  15.352 -0.8193  0.5652  0.3032
16727TIP3   OH271595   6.505   6.354   1.721 -0.1265  0.1424 -0.3167
16727TIP3    H171596   6.442   6.356   1.793  0.2393  0.4494 -0.0065
16727TIP3    H271597   6.532   6.445   1.711  0.1317  0.0365 -0.5736
16728TIP3   OH271598   3.581   4.591  11.469  0.6307  0.5115  0.3643
16728TIP3    H171599   3.515   4.618  11.406  0.8625 -2.3017 -1.2808
16728TIP3    H271600   3.665   4.606  11.425  0.7910 -1.6225 -0.1730
16729TIP3   OH271601   6.430   4.799  17.245 -0.5065  0.0818 -0.3712
16729TIP3    H171602   6.516   4.836  17.264 -1.0588  0.2801  2.0252
16729TIP3    H271603   6.438   4.765  17.156  1.4404  1.7791 -0.9188
16730TIP3   OH271604   0.842   3.661   4.902 -0.1665  0.1409  0.8352
16730TIP3    H171605   0.748   3.678   4.890  0.2108  2.1564  0.5027
16730TIP3    H271606   0.844   3.581   4.955 -2.0738  0.2107  1.1105
16731TIP3   OH271607   0.639   5.896  12.209 -0.1683  0.1119  0.6597
16731TIP3    H171608   0.656   5.923  12.300  0.2902  1.6800  0.1332
16731TIP3    H271609   0.564   5.837  12.215  0.0287 -0.0296  2.0798
16732TIP3   OH271610   4.163   6.497   0.809  0.1309 -0.6055 -0.5346
16732TIP3    H171611   4.112   6.420   0.834 -1.8677  0.1668 -1.9626
16732TIP3    H271612   4.248   6.484   0.849 -1.6706 -1.1282  3.5970
16733TIP3   OH271613   0.545   6.679  16.143 -0.0149  0.0021 -0.4208
16733TIP3    H171614   0.514   6.757  16.188 -1.8310 -0.5329 -0.6864
16733TIP3    H271615   0.610   6.641  16.202 -1.4860 -0.0565  1.2372
16734TIP3   OH271616   0.862   1.196   0.323  0.5340  0.4419  0.4371
16734TIP3    H171617   0.877   1.230   0.411  2.9024  0.6009  0.0338
16734TIP3    H271618   0.824   1.109   0.337 -1.0022  1.2369  1.5398
16735TIP3   OH271619   5.721   6.409  16.543 -0.2061  0.2358  0.1883
16735TIP3    H171620   5.773   6.440  16.469  1.2871  0.7304  1.3857
16735TIP3    H271621   5.781   6.356  16.594 -1.2019 -0.0976  1.0562
16736TIP3   OH271622   0.505   3.579  17.295  0.0874  0.1937 -0.8049
16736TIP3    H171623   0.466   3.659  17.328 -0.4019  0.3433 -1.7143
16736TIP3    H271624   0.472   3.571  17.205  0.2624 -0.9284 -0.7855
16737TIP3   OH271625   2.800   2.506  15.994  0.5782 -0.2284  0.0359
16737TIP3    H171626   2.801   2.593  15.955  0.4764 -0.1700  0.1638
16737TIP3    H271627   2.749   2.452  15.933 -0.4315  0.0921  0.5770
16738TIP3   OH271628   6.369   0.025  12.770  0.4233  0.4899 -0.6161
16738TIP3    H171629   6.331   0.067  12.692 -2.2315  1.5070  1.0882
16738TIP3    H271630   6.392   0.099  12.827 -0.4812 -0.2508  0.7534
16739TIP3   OH271631   0.968   6.066   5.593  0.1133  0.0486 -0.6342
16739TIP3    H171632   0.933   5.981   5.619  0.3482  0.6582  1.9083
16739TIP3    H271633   0.891   6.123   5.589  0.2281  0.2755  0.1882
16740TIP3   OH271634   2.735   4.105   5.611  0.2189  1.0028 -0.8609
16740TIP3    H171635   2.717   4.108   5.705  1.6336  1.3194 -0.5729
16740TIP3    H271636   2.758   4.014   5.594 -0.0263  0.9480 -0.9065
16741TIP3   OH271637   0.544   1.669   2.014  0.3939 -0.0621 -0.6159
16741TIP3    H171638   0.637   1.682   2.000  0.5451 -1.2621 -0.8752
16741TIP3    H271639   0.539   1.607   2.087 -0.2749  1.9401  1.1517
16742TIP3   OH271640   2.062   2.701  11.953 -0.2653  0.0056 -0.2291
16742TIP3    H171641   2.049   2.729  12.044 -0.3035 -0.3064 -0.1349
16742TIP3    H271642   2.148   2.735  11.929 -0.4287  0.4407 -0.2126
16743TIP3   OH271643   3.828   1.039   3.548  0.5749 -0.0478 -0.0411
16743TIP3    H171644   3.882   0.963   3.530 -0.3790 -0.7350 -0.0811
16743TIP3    H271645   3.796   1.026   3.637  0.8910  0.6171  0.1779
16744TIP3   OH271646   0.691   3.500  10.773 -0.2322 -0.0215  0.1071
16744TIP3    H171647   0.712   3.447  10.696 -0.2157 -1.1629  0.8763
16744TIP3    H271648   0.638   3.571  10.739  1.7009  0.8337 -1.3149
16745TIP3   OH271649   4.537   0.706  16.795  0.0900 -0.1718 -0.9693
16745TIP3    H171650   4.504   0.796  16.794 -0.1677 -0.1333  1.7798
16745TIP3    H271651   4.493   0.664  16.722 -3.2280  0.8747  0.2074
16746TIP3   OH271652   3.045   3.230   5.476 -0.2609 -0.5565  0.6411
16746TIP3    H171653   3.063   3.168   5.405  1.5070  1.6862 -1.0450
16746TIP3    H271654   3.123   3.227   5.531 -0.1602  0.1041  0.5528
16747TIP3   OH271655   2.328   0.055   2.356 -0.2751 -0.3907 -0.8050
16747TIP3    H171656   2.239   0.022   2.367 -0.2682 -0.3321 -0.5684
16747TIP3    H271657   2.335   0.126   2.420  0.4682 -1.4432  0.3137
16748TIP3   OH271658   0.383   4.181   2.993  0.5660  0.6442 -0.4954
16748TIP3    H171659   0.417   4.271   2.998 -0.5070  1.0294  3.8175
16748TIP3    H271660   0.460   4.126   2.999  1.0858  1.2894 -1.0264
16749TIP3   OH271661   2.472   6.332  15.988 -0.1276 -0.0358 -0.2858
16749TIP3    H171662   2.542   6.324  15.923 -1.3597  0.3278 -1.7138
16749TIP3    H271663   2.458   6.426  15.998 -3.0818 -0.0113 -3.1277
16750TIP3   OH271664   3.587   1.893   2.559  0.2810 -0.5338  0.1397
16750TIP3    H171665   3.598   1.988   2.555 -1.4759 -0.2805  0.5837
16750TIP3    H271666   3.568   1.867   2.469  0.3073 -0.4083  0.0979
16751TIP3   OH271667   1.597   0.284  15.026  0.3511  0.1295 -0.5188
16751TIP3    H171668   1.588   0.317  15.116 -1.1348  2.2204 -1.3509
16751TIP3    H271669   1.638   0.357  14.979  1.8144 -1.2168 -1.4408
16752TIP3   OH271670   0.706   6.457  16.345  0.1551  0.0297 -0.3418
16752TIP3    H171671   0.721   6.536  16.398  0.8377  0.0207 -0.5188
16752TIP3    H271672   0.632   6.414  16.387  0.3679  0.2884  0.3033
16753TIP3   OH271673   1.393   6.149  15.276  0.0984 -0.1256 -0.2975
16753TIP3    H171674   1.324   6.199  15.320 -0.1970  0.8995 -1.8188
16753TIP3    H271675   1.444   6.216  15.229  0.8909 -1.0703 -0.8111
16754TIP3   OH271676   6.644   2.203  14.659 -0.5861 -0.5407  0.1533
16754TIP3    H171677   6.552   2.183  14.673 -0.6874 -0.7305 -0.7293
16754TIP3    H271678   6.688   2.170  14.737 -1.4122  0.7442  1.1991
16755TIP3   OH271679   6.447   6.584  11.598  0.0523  0.4768 -0.2892
16755TIP3    H171680   6.465   6.586  11.504 -0.7715 -0.9290 -0.5060
16755TIP3    H271681   6.453   6.492  11.622 -0.2816  0.7482  0.9288
16756TIP3   OH271682   3.760   4.713  16.548 -0.0469 -0.0887 -0.0343
16756TIP3    H171683   3.715   4.644  16.499  0.8292  0.2416 -1.3658
16756TIP3    H271684   3.698   4.785  16.551  0.3075  0.3345 -1.7839
16757TIP3   OH271685   2.156   6.123  15.486 -0.2925 -0.2210 -0.1760
16757TIP3    H171686   2.076   6.130  15.539 -0.9132 -0.9628 -0.9727
16757TIP3    H271687   2.161   6.206  15.439 -0.8688 -0.3509 -0.4788
16758TIP3   OH271688   3.099   2.808   5.039  0.0523 -0.7573 -0.0491
16758TIP3    H171689   3.160   2.802   5.112 -1.1191  1.8681  1.2827
16758TIP3    H271690   3.020   2.764   5.069 -0.5170  0.5396  0.4366
16759TIP3   OH271691   1.098   5.649  14.816  0.5817 -0.5954 -0.5663
16759TIP3    H171692   1.138   5.707  14.750 -1.1627  0.2384 -0.9578
16759TIP3    H271693   1.021   5.613  14.772  1.0168 -2.3813  0.0652
16760TIP3   OH271694   0.432   5.990  14.253  0.3990  0.0377  0.4675
16760TIP3    H171695   0.495   6.060  14.271  0.2917  0.2537  0.0239
16760TIP3    H271696   0.483   5.923  14.208  0.2699  0.3122 -0.0995
16761TIP3   OH271697   6.055   2.876   6.406  0.0439 -0.0973  0.0634
16761TIP3    H171698   6.093   2.939   6.467  0.5677 -0.3068 -0.0428
16761TIP3    H271699   6.081   2.790   6.440  2.3511 -0.1937 -1.6996
16762TIP3   OH271700   0.735   5.348   2.592  0.2169 -0.2148 -0.3859
16762TIP3    H171701   0.749   5.375   2.501 -0.5088 -0.5176 -0.5937
16762TIP3    H271702   0.771   5.260   2.597  0.7602  0.0146 -0.2330
16763TIP3   OH271703   5.108   2.691   0.391 -0.5260 -0.4285 -0.3792
16763TIP3    H171704   5.131   2.643   0.471  0.4382 -0.0315 -0.4001
16763TIP3    H271705   5.014   2.678   0.381 -0.6268 -0.6409  0.7271
16764TIP3   OH271706   6.675   2.556   6.622  0.3160  0.2432 -0.4063
16764TIP3    H171707   6.663   2.642   6.581  0.7183 -0.2523 -1.5943
16764TIP3    H271708   6.590   2.514   6.615 -0.5515  1.3586  2.2248
16765TIP3   OH271709   1.631   6.680  15.586 -0.1707 -0.1692  0.3434
16765TIP3    H171710   1.575   6.754  15.562 -0.2905 -0.3402  0.0869
16765TIP3    H271711   1.573   6.621  15.634 -1.0343 -1.7094 -2.3410
16766TIP3   OH271712   1.255   1.714   4.811  0.1702 -0.3389  0.2046
16766TIP3    H171713   1.235   1.726   4.903 -1.7272 -0.5685 -0.1488
16766TIP3    H271714   1.172   1.724   4.766  0.6965 -2.1239 -1.3073
16767TIP3   OH271715   1.208   3.935  14.531  0.7836 -0.3778  0.4768
16767TIP3    H171716   1.143   3.919  14.463  0.4560  3.4802 -0.3509
16767TIP3    H271717   1.182   3.877  14.604 -3.1132  0.3671 -0.1060
16768TIP3   OH271718   3.001   3.148   1.310  0.8350 -0.3853 -0.4910
16768TIP3    H171719   2.942   3.182   1.243  1.1226 -0.2850 -0.6926
16768TIP3    H271720   2.969   3.187   1.392  0.8466 -0.0399 -0.6507
16769TIP3   OH271721   6.221   2.421   0.878  0.2163  0.1848  0.3272
16769TIP3    H171722   6.250   2.360   0.811  0.2619 -1.0212  1.4206
16769TIP3    H271723   6.211   2.504   0.831 -2.6827 -1.2126 -1.8800
16770TIP3   OH271724   0.111   0.817   2.008 -0.2689  0.5880 -0.0104
16770TIP3    H171725   0.143   0.729   2.027  1.7239  1.2397 -0.0926
16770TIP3    H271726   0.089   0.816   1.915 -0.0903  0.2203 -0.0479
16771TIP3   OH271727   6.277   2.420  11.675  0.8810  0.6479 -0.3804
16771TIP3    H171728   6.279   2.350  11.740 -0.7703  0.5787 -0.3801
16771TIP3    H271729   6.368   2.451  11.672  0.8805  1.1811  2.4991
16772TIP3   OH271730   1.238   2.854  16.215 -0.3924 -0.4446 -0.3198
16772TIP3    H171731   1.200   2.767  16.227 -1.5914  0.2668  1.3821
16772TIP3    H271732   1.327   2.847  16.251  0.4011 -1.5243 -2.3142
16773TIP3   OH271733   5.796   0.398   3.328  0.3522  0.5528 -0.4737
16773TIP3    H171734   5.715   0.354   3.303 -0.2131  0.5439  1.2496
16773TIP3    H271735   5.795   0.398   3.424  2.0075  1.2648 -0.4219
16774TIP3   OH271736   1.546   1.081   2.162  0.2494 -0.3658 -0.1919
16774TIP3    H171737   1.621   1.021   2.167  0.2285 -0.5532 -1.7399
16774TIP3    H271738   1.540   1.105   2.070 -0.9290  0.5311  0.0874
16775TIP3   OH271739   1.312   3.941  16.044 -0.0979  0.5334 -0.0705
16775TIP3    H171740   1.386   3.907  16.093 -0.3400 -0.3942 -0.3241
16775TIP3    H271741   1.239   3.940  16.106  0.0317  1.2055  0.1056
16776TIP3   OH271742   0.229   0.680   3.134 -0.3103  0.3622  0.1582
16776TIP3    H171743   0.232   0.596   3.089  0.9784  1.0941 -1.1939
16776TIP3    H271744   0.285   0.738   3.082 -0.6170  1.8809  1.4308
16777TIP3   OH271745   3.696   3.267   0.209  0.4121  0.5649  0.3994
16777TIP3    H171746   3.786   3.237   0.194  0.1500 -0.5455  0.8854
16777TIP3    H271747   3.643   3.187   0.204 -0.3986  1.0219  1.2592
16778TIP3   OH271748   2.050   5.933  13.732  0.3803  0.1469 -0.4285
16778TIP3    H171749   2.068   5.920  13.825 -0.7194 -1.2784 -0.3772
16778TIP3    H271750   2.135   5.952  13.693  0.7879  1.3015  0.9269
16779TIP3   OH271751   0.544   4.984  11.216 -0.1564  0.3011  0.1011
16779TIP3    H171752   0.571   5.075  11.229  0.4913  0.0084  0.8783
16779TIP3    H271753   0.600   4.934  11.274 -1.7776 -0.4230  1.1084
16780TIP3   OH271754   4.057   4.052  13.621  0.2016  0.4564  0.1870
16780TIP3    H171755   4.026   4.131  13.576 -1.0731 -0.0769  0.0948
16780TIP3    H271756   3.978   4.009  13.652  0.8244 -1.0689 -0.2157
16781TIP3   OH271757   0.114   5.051   3.106  0.4115  0.7200  0.0239
16781TIP3    H171758   0.091   4.983   3.168  1.1304  0.4304 -0.0225
16781TIP3    H271759   0.202   5.029   3.076 -0.2541  0.3421 -1.7853
16782TIP3   OH271760   4.268   4.954   3.377  0.0641  0.4350  0.2025
16782TIP3    H171761   4.246   5.039   3.338  0.3791  0.6697  0.5242
16782TIP3    H271762   4.190   4.931   3.428 -0.3768  0.0871 -0.6302
16783TIP3   OH271763   5.700   0.935  16.555  0.0846  0.2834  0.0966
16783TIP3    H171764   5.686   0.921  16.648  0.9908  0.5039  0.2738
16783TIP3    H271765   5.676   1.026  16.540 -2.3665 -0.3682 -0.3708
16784TIP3   OH271766   4.034   6.593  12.131 -0.1722 -0.2179 -0.4660
16784TIP3    H171767   4.088   6.569  12.206 -0.0801  2.5588  0.4696
16784TIP3    H271768   4.075   6.549  12.057  3.1391  1.2918  0.2942
16785TIP3   OH271769   3.321   2.339  13.521 -0.0909  0.6642 -0.5146
16785TIP3    H171770   3.303   2.427  13.556 -0.6177 -0.0316  1.0373
16785TIP3    H271771   3.274   2.337  13.437 -1.3309  1.3484  0.1387
16786TIP3   OH271772   0.728   5.122  11.345 -0.1070  0.3498  0.1536
16786TIP3    H171773   0.780   5.192  11.306 -0.2111  0.1273 -0.3965
16786TIP3    H271774   0.786   5.081  11.409 -0.0884  1.0192  0.5749
16787TIP3   OH271775   4.174   6.512  15.593 -0.2261 -0.6810  0.1529
16787TIP3    H171776   4.136   6.470  15.516 -0.0016  1.2537 -1.0574
16787TIP3    H271777   4.131   6.597  15.598 -0.3226 -0.7850  2.2716
16788TIP3   OH271778   0.692   1.146   3.845  0.5632  0.4792 -0.4842
16788TIP3    H171779   0.751   1.220   3.859  0.6090  0.3907 -0.2205
16788TIP3    H271780   0.679   1.108   3.932 -2.1557  2.2312  0.0096
16789TIP3   OH271781   6.029   5.833   5.723 -0.1823 -0.0726 -0.8261
16789TIP3    H171782   6.078   5.750   5.715 -0.0010 -0.5018  2.9808
16789TIP3    H271783   5.944   5.807   5.757  0.1862  1.3263  1.2865
16790TIP3   OH271784   5.815   5.544   4.932  0.4050 -0.0527  0.8811
16790TIP3    H171785   5.858   5.599   4.866 -0.6511 -0.1818  0.0615
16790TIP3    H271786   5.803   5.459   4.889 -0.5008 -0.0698  1.1422
16791TIP3   OH271787   5.461   4.013  11.553 -0.2778 -0.2399  0.0742
16791TIP3    H171788   5.375   3.974  11.538 -0.2147 -0.1054 -0.6961
16791TIP3    H271789   5.464   4.030  11.647 -2.3571  2.7001 -0.2715
16792TIP3   OH271790   4.165   3.534  16.032  0.2535 -0.2016 -0.0177
16792TIP3    H171791   4.221   3.608  16.006 -0.1947  0.3905  0.6474
16792TIP3    H271792   4.225   3.460  16.037  1.2490  0.6297  1.7145
16793TIP3   OH271793   3.094   5.218  11.304  0.0589 -0.1931  0.0341
16793TIP3    H171794   3.014   5.268  11.288  0.2457 -0.1383 -0.7830
16793TIP3    H271795   3.108   5.225  11.398 -0.8982 -0.2115  0.1901
16794TIP3   OH271796   0.544   2.405   1.886 -0.7158 -0.0982  0.0094
16794TIP3    H171797   0.470   2.398   1.947 -0.4036 -1.0743  0.2861
16794TIP3    H271798   0.608   2.342   1.918 -0.0076  0.3000 -0.5901
16795TIP3   OH271799   2.833   4.698  12.291 -0.0876 -0.0003  0.2520
16795TIP3    H171800   2.916   4.747  12.293 -0.3912  0.5508 -0.2258
16795TIP3    H271801   2.840   4.643  12.213 -0.1067 -0.0830  0.3080
16796TIP3   OH271802   1.121   4.705  15.353 -0.5754  0.0119 -0.8212
16796TIP3    H171803   1.119   4.800  15.359 -1.7778  0.0056 -1.0484
16796TIP3    H271804   1.212   4.682  15.375  0.2728  1.3283 -2.6692
16797TIP3   OH271805   2.992   4.438  12.918 -0.1351 -0.0539  0.1169
16797TIP3    H171806   3.008   4.529  12.895 -1.7162  0.4887  1.0226
16797TIP3    H271807   2.972   4.395  12.834 -0.1240  0.5816 -0.2159
16798TIP3   OH271808   5.461   3.036  13.395 -0.1789 -0.3190 -0.5277
16798TIP3    H171809   5.511   3.052  13.475 -1.6233 -1.0071  0.5676
16798TIP3    H271810   5.409   2.958  13.415 -0.0925 -0.9079 -2.3948
16799TIP3   OH271811   4.986   3.937   2.245 -0.0122  0.2232  0.3662
16799TIP3    H171812   4.957   3.957   2.334 -0.2323  0.1935  0.3007
16799TIP3    H271813   5.069   3.891   2.256  0.5198  1.1891  0.5236
16800TIP3   OH271814   3.194   6.462   0.537 -0.2767  0.1836 -0.2762
16800TIP3    H171815   3.251   6.401   0.490  0.8845 -1.0313  2.5007
16800TIP3    H271816   3.242   6.545   0.538  1.0474 -0.5695  1.2033
16801TIP3   OH271817   1.859   0.569   4.590 -0.3830 -0.2677  0.4869
16801TIP3    H171818   1.822   0.494   4.543  1.2810  0.3094 -1.9126
16801TIP3    H271819   1.783   0.622   4.615 -1.5325 -2.2517  1.4744
16802TIP3   OH271820   5.901   5.200  13.829 -0.2171  0.2039 -0.3703
16802TIP3    H171821   5.849   5.249  13.765  0.2045 -0.7040 -1.4229
16802TIP3    H271822   5.961   5.148  13.777 -0.7563 -1.5766  0.7059
16803TIP3   OH271823   4.010   5.205  15.926 -0.3270  0.2346 -0.0175
16803TIP3    H171824   4.052   5.205  16.012 -0.2027 -0.0876 -0.0769
16803TIP3    H271825   3.916   5.198  15.945 -0.1982 -2.0392  0.0574
16804TIP3   OH271826   4.028   1.289   0.432  0.5627  0.2944  0.4371
16804TIP3    H171827   4.083   1.210   0.440 -1.0093 -0.9166 -0.2033
16804TIP3    H271828   3.959   1.277   0.497 -2.3097 -1.1890 -2.5932
16805TIP3   OH271829   2.983   5.647  13.668  0.3332 -0.1204  0.0173
16805TIP3    H171830   2.986   5.720  13.731  1.1499 -0.2257  0.0990
16805TIP3    H271831   2.933   5.682  13.595 -0.4421  0.0786  0.6218
16806TIP3   OH271832   6.656   6.483   4.425 -0.3770 -0.2346  0.3495
16806TIP3    H171833   6.579   6.468   4.370  1.3723 -3.1905 -1.5838
16806TIP3    H271834   6.671   6.577   4.420 -2.7095  0.1576 -0.8211
16807TIP3   OH271835   4.077   2.554  11.628 -0.2307  0.4660 -0.4087
16807TIP3    H171836   3.991   2.513  11.637  0.2893 -0.6052 -0.1348
16807TIP3    H271837   4.123   2.532  11.709  1.2895 -1.4450 -1.6761
16808TIP3   OH271838   1.660   2.493  15.119 -0.2230 -0.1697 -0.2047
16808TIP3    H171839   1.682   2.488  15.212 -2.5133  0.7286  0.4437
16808TIP3    H271840   1.718   2.560  15.084  0.4253 -0.2713  0.6437
16809TIP3   OH271841   3.263   3.015  12.857 -0.0729 -0.5142  0.6329
16809TIP3    H171842   3.220   3.064  12.927 -0.7715  0.2917 -0.3281
16809TIP3    H271843   3.215   2.933  12.853 -1.0085  0.0428  0.1271
16810TIP3   OH271844   2.454   4.930  16.520  0.2460 -0.2181  0.1187
16810TIP3    H171845   2.435   5.021  16.496  0.0222  0.0896  1.4069
16810TIP3    H271846   2.548   4.919  16.503  0.8472  1.0332  2.2673
16811TIP3   OH271847   3.511   1.142   4.476  1.0932  0.1939 -0.9469
16811TIP3    H171848   3.581   1.120   4.415  2.0497 -0.8561  0.4639
16811TIP3    H271849   3.431   1.114   4.431  1.8460 -1.4457 -1.3729
16812TIP3   OH271850   4.543   6.075  14.994  0.8258 -0.1022 -0.2092
16812TIP3    H171851   4.454   6.075  15.029  0.8912 -1.0235 -0.0101
16812TIP3    H271852   4.532   6.057  14.901  0.8166 -0.4843 -0.1355
16813TIP3   OH271853   5.589   3.782   0.036  0.2147  0.2110 -0.4437
16813TIP3    H171854   5.652   3.812   0.102  1.2814  0.5347 -1.5723
16813TIP3    H271855   5.625   3.699   0.005 -0.4573 -0.1079 -0.3874
16814TIP3   OH271856   3.550   4.168   2.642  0.3529  0.6458 -0.0167
16814TIP3    H171857   3.559   4.075   2.663  0.9510  0.4037 -1.2716
16814TIP3    H271858   3.455   4.182   2.638  0.2469  0.3552  1.2561
16815TIP3   OH271859   0.715   0.329  12.796  0.9999 -0.1061  0.9529
16815TIP3    H171860   0.745   0.416  12.823  0.8376 -0.4445  2.3255
16815TIP3    H271861   0.758   0.270  12.857 -0.2572 -0.8351  1.1618
16816TIP3   OH271862   1.124   5.069   1.735  0.3103 -0.0549  0.1924
16816TIP3    H171863   1.109   5.017   1.656 -1.4280  0.6633  0.0068
16816TIP3    H271864   1.134   5.158   1.702 -2.4471  0.5929  0.8208
16817TIP3   OH271865   6.430   2.349   4.515 -0.2452  1.0351 -0.0614
16817TIP3    H171866   6.522   2.374   4.526  0.9264 -0.4975 -4.4109
16817TIP3    H271867   6.421   2.269   4.567  1.9684 -0.5881 -1.9451
16818TIP3   OH271868   3.904   4.509   4.827 -0.2516  0.1131  0.2733
16818TIP3    H171869   3.906   4.605   4.822 -0.8256  0.1380  0.4141
16818TIP3    H271870   3.979   4.486   4.880 -0.2196  0.5014  0.3974
16819TIP3   OH271871   1.121   3.196  13.439 -0.6312 -0.8529 -0.0770
16819TIP3    H171872   1.039   3.243  13.425  0.2975  0.9486  0.1420
16819TIP3    H271873   1.126   3.186  13.534  0.0657  0.4078  0.0484
16820TIP3   OH271874   0.275   1.615  16.330 -0.4141  0.8213 -0.4805
16820TIP3    H171875   0.350   1.658  16.290  0.6441 -0.3827  0.1218
16820TIP3    H271876   0.275   1.527  16.293 -2.3728  1.1990 -1.5024
16821TIP3   OH271877   5.931   5.872   2.410  0.3174  0.2146  0.0691
16821TIP3    H171878   6.009   5.926   2.402 -0.8466  1.9880  0.3188
16821TIP3    H271879   5.908   5.850   2.319  1.7057 -1.3101  0.0294
16822TIP3   OH271880   1.263   4.186   4.840  0.0294  0.4079 -0.1056
16822TIP3    H171881   1.243   4.180   4.747 -1.7522 -0.2214  0.2962
16822TIP3    H271882   1.235   4.274   4.865  1.9966  1.1977 -0.4496
16823TIP3   OH271883   0.377   2.720   4.768  0.2457  0.2894 -0.2450
16823TIP3    H171884   0.447   2.677   4.818 -0.6444 -0.3498  0.4769
16823TIP3    H271885   0.392   2.692   4.678  1.3628  0.7652 -0.2291
16824TIP3   OH271886   1.061   6.232   2.685 -0.1243  0.0850  0.2057
16824TIP3    H171887   0.988   6.280   2.645 -0.0203  0.4849  0.4992
16824TIP3    H271888   1.130   6.233   2.618 -1.0640 -2.0336 -0.9075
16825TIP3   OH271889   0.239   2.578  13.096  0.3101  0.0982  0.1583
16825TIP3    H171890   0.289   2.499  13.119 -2.4037 -1.4118  1.3195
16825TIP3    H271891   0.215   2.566  13.004 -0.0466 -0.4297  0.3158
16826TIP3   OH271892   4.225   6.174  11.450  0.1594  0.6524 -0.2956
16826TIP3    H171893   4.240   6.085  11.484  3.8681  0.0800 -2.8233
16826TIP3    H271894   4.131   6.188  11.459 -0.3790 -2.9745  1.4568
16827TIP3   OH271895   2.379   2.549  16.451  0.5085  0.5295  0.4419
16827TIP3    H171896   2.474   2.538  16.459  0.5214  1.0981  1.0918
16827TIP3    H271897   2.363   2.545  16.357  1.4359  2.4405  0.1636
16828TIP3   OH271898   3.319   6.741   4.514  0.0373  0.1779 -0.0151
16828TIP3    H171899   3.350   6.776   4.431 -0.7880  0.3064 -0.2765
16828TIP3    H271900   3.309   6.647   4.498 -2.0914  0.4879 -0.7098
16829TIP3   OH271901   1.576   6.233  13.359 -0.2535  0.4465 -0.0488
16829TIP3    H171902   1.563   6.226  13.453 -0.0900 -0.1824 -0.0686
16829TIP3    H271903   1.507   6.292  13.329  1.0862  2.6011  0.7892
16830TIP3   OH271904   1.255   3.009  14.608  0.1605  0.3523  0.2554
16830TIP3    H171905   1.246   2.956  14.529 -0.3391  0.3570  0.3094
16830TIP3    H271906   1.167   3.014  14.645  0.5579 -0.6187  1.4296
16831TIP3   OH271907   5.021   5.923  16.253  0.4517  0.2207 -0.0535
16831TIP3    H171908   5.012   5.889  16.342 -0.8024  1.9328  0.5315
16831TIP3    H271909   4.942   5.974  16.239  0.4318 -0.3275 -2.3298
16832TIP3   OH271910   1.723   0.044  14.937 -0.1620 -0.0483 -0.0878
16832TIP3    H171911   1.670   0.108  14.983 -0.6250  0.9812 -1.9455
16832TIP3    H271912   1.804   0.039  14.987 -0.3959  1.4818  0.4877
16833TIP3   OH271913   2.015   1.357  12.753  0.1215  0.6489 -0.3696
16833TIP3    H171914   1.942   1.295  12.757 -0.3762  1.2903  0.8455
16833TIP3    H271915   2.042   1.356  12.661  0.7708 -2.1018 -0.2549
16834TIP3   OH271916   1.882   6.069  16.466 -0.4524  0.4201 -0.3604
16834TIP3    H171917   1.877   5.974  16.472 -0.3801  0.4543  0.2797
16834TIP3    H271918   1.937   6.095  16.540 -0.5774  0.9714 -0.4573
16835TIP3   OH271919   3.470   4.310  13.702 -0.2132 -0.0869  1.0387
16835TIP3    H171920   3.412   4.325  13.776 -0.5290 -0.6678  0.9149
16835TIP3    H271921   3.465   4.390  13.650 -0.0011  0.3159  1.6308
16836TIP3   OH271922   1.952   6.255  12.823  0.1472 -0.5877  0.0755
16836TIP3    H171923   1.937   6.252  12.918  1.9527  1.4650  0.5040
16836TIP3    H271924   1.882   6.312  12.790  0.3570 -0.1300  0.4065
16837TIP3   OH271925   4.070   4.491  17.276 -0.0724 -0.4157 -0.3427
16837TIP3    H171926   4.061   4.399  17.248 -1.9898 -0.1604 -0.7127
16837TIP3    H271927   4.070   4.541  17.194  0.6427 -0.0455 -0.1275
16838TIP3   OH271928   2.853   3.856   1.637  1.0848  0.3126  0.8558
16838TIP3    H171929   2.836   3.908   1.715 -0.6784  1.6946 -0.3579
16838TIP3    H271930   2.940   3.882   1.608  0.3006  2.5703  0.3623
16839TIP3   OH271931   5.561   4.587   4.332 -0.1512  0.4435  0.0356
16839TIP3    H171932   5.652   4.594   4.304  0.1545 -1.8808  0.2475
16839TIP3    H271933   5.514   4.554   4.255 -0.9347  2.0317 -0.2072
16840TIP3   OH271934   0.364   0.977   1.282 -0.2948 -0.4144  0.4771
16840TIP3    H171935   0.451   1.003   1.311  0.6439 -1.3506 -1.2913
16840TIP3    H271936   0.375   0.887   1.251 -1.1044  0.4438 -2.6664
16841TIP3   OH271937   4.821   3.074  15.171 -0.3515  1.0426  0.2158
16841TIP3    H171938   4.783   3.059  15.084  1.8193  0.3574 -0.6859
16841TIP3    H271939   4.784   3.004  15.225  0.6349 -0.4910 -0.9932
16842TIP3   OH271940   3.773   6.772   1.786  0.3078 -0.1899 -0.5328
16842TIP3    H171941   3.694   6.720   1.798  0.7443 -0.6820  0.3081
16842TIP3    H271942   3.751   6.833   1.715 -1.3822  0.7873  0.7646
16843TIP3   OH271943   6.720   3.936  14.007 -0.2349 -0.6997 -0.0924
16843TIP3    H171944   6.652   3.937  13.939  0.5686 -0.9594 -0.9193
16843TIP3    H271945   6.683   3.880  14.075 -1.5321  0.4696  0.2154
16844TIP3   OH271946   2.473   3.005   4.818 -0.6937 -0.1935  0.2582
16844TIP3    H171947   2.420   2.954   4.880 -2.1227  1.5190  0.5342
16844TIP3    H271948   2.438   2.982   4.732 -1.8876  0.8791  0.4354
16845TIP3   OH271949   2.572   3.540   1.901  0.5717 -0.0594 -0.1180
16845TIP3    H171950   2.547   3.547   1.993 -0.8177  0.4351 -0.5074
16845TIP3    H271951   2.608   3.626   1.880  0.5619 -0.0598 -0.1358
16846TIP3   OH271952   6.710   6.227  11.546 -0.4047  0.0118  0.5931
16846TIP3    H171953   6.680   6.148  11.503 -1.3222  0.1736  0.9117
16846TIP3    H271954   6.798   6.206  11.578 -0.5290 -0.7771  0.4208
16847TIP3   OH271955   5.923   2.401  16.522  0.1066  0.2447 -0.3802
16847TIP3    H171956   5.990   2.369  16.582  0.4496  0.1481 -0.8145
16847TIP3    H271957   5.948   2.366  16.437 -0.7096 -0.1143 -0.4819
16848TIP3   OH271958   6.101   0.600   1.856 -0.2753  0.5744  0.3246
16848TIP3    H171959   6.037   0.669   1.875  0.3133  0.9607  0.9426
16848TIP3    H271960   6.186   0.643   1.867  0.0963 -0.1619  0.3456
16849TIP3   OH271961   2.834   2.137  11.700  0.2468  0.1628  0.1394
16849TIP3    H171962   2.798   2.216  11.740 -1.5496 -1.6049  2.2808
16849TIP3    H271963   2.901   2.108  11.762  0.5736 -0.2613 -0.4019
16850TIP3   OH271964   5.781   2.187  14.274  0.1227 -1.0993  0.3814
16850TIP3    H171965   5.843   2.188  14.201 -0.4450  1.0929 -0.1204
16850TIP3    H271966   5.695   2.190  14.233 -0.2118 -0.1685  1.1131
16851TIP3   OH271967   0.540   3.898   2.211 -0.3442  0.2927 -0.6829
16851TIP3    H171968   0.524   3.938   2.296 -1.2662  0.5599 -0.9654
16851TIP3    H271969   0.512   3.807   2.221 -0.3034  0.2835 -0.6542
16852TIP3   OH271970   0.640   4.311  17.238 -0.4232 -0.0358 -0.1858
16852TIP3    H171971   0.615   4.312  17.146  0.3488  1.5822 -0.4123
16852TIP3    H271972   0.561   4.286  17.285 -0.4857 -2.2021 -1.3558
16853TIP3   OH271973   5.108   6.636  14.019 -0.1437 -0.8328  0.4316
16853TIP3    H171974   5.063   6.620  13.937  0.9310 -1.3491 -0.0775
16853TIP3    H271975   5.199   6.611  14.002  0.2621 -0.1814  1.5317
16854TIP3   OH271976   0.892   1.293   3.251 -0.7516 -0.6422 -0.1107
16854TIP3    H171977   0.824   1.339   3.300 -0.1934 -0.2006  0.2536
16854TIP3    H271978   0.886   1.328   3.163 -0.9191 -0.5220 -0.0525
16855TIP3   OH271979   0.247   1.162   2.735 -0.3961 -0.2461 -0.3495
16855TIP3    H171980   0.183   1.233   2.730 -1.7061 -1.0592  2.3728
16855TIP3    H271981   0.304   1.186   2.808 -1.1154 -2.0374  0.9126
16856TIP3   OH271982   3.219   0.278  12.194 -0.4761 -0.2293 -0.0359
16856TIP3    H171983   3.293   0.242  12.146 -0.2849 -1.0007  0.8158
16856TIP3    H271984   3.172   0.331  12.129  0.9860  0.5404 -0.5095
16857TIP3   OH271985   4.583   4.884   4.521  1.0265  0.1115 -0.2719
16857TIP3    H171986   4.560   4.857   4.610 -0.0098 -0.3948 -0.6810
16857TIP3    H271987   4.504   4.925   4.487  1.3112  0.0167 -1.0766
16858TIP3   OH271988   1.224   5.797  15.026  0.2094 -0.2979 -0.2930
16858TIP3    H171989   1.159   5.749  14.976 -0.6370 -0.6434  1.0715
16858TIP3    H271990   1.309   5.765  14.994 -0.2765 -3.4539  1.1489
16859TIP3   OH271991   3.338   4.595  16.714  0.1829  0.4335 -0.1760
16859TIP3    H171992   3.352   4.674  16.766  1.0980  0.0657  0.1699
16859TIP3    H271993   3.408   4.535  16.743 -1.3338 -1.0404  0.6248
16860TIP3   OH271994   0.095   1.794   4.204 -0.1295 -0.2031  0.0065
16860TIP3    H171995   0.158   1.721   4.195  0.9884  0.7356 -0.0017
16860TIP3    H271996   0.072   1.794   4.296  0.1247 -0.3557  0.0730
16861TIP3   OH271997   3.926   2.429   5.039  0.2452  0.2854  0.3175
16861TIP3    H171998   3.954   2.373   5.111 -0.9775 -0.0229  0.5880
16861TIP3    H271999   3.984   2.406   4.967  0.5770 -0.4306  0.7933
16862TIP3   OH272000   5.096   1.830   4.213 -0.0462 -0.8012  0.4583
16862TIP3    H172001   5.085   1.774   4.136 -0.6171  0.5631 -0.4778
16862TIP3    H272002   5.138   1.909   4.180 -1.6534  0.4449  1.2336
16863TIP3   OH272003   0.281   1.881  13.793 -0.0144 -0.1271 -0.4275
16863TIP3    H172004   0.291   1.976  13.784  0.8929 -0.2604 -0.9858
16863TIP3    H272005   0.252   1.852  13.706  1.3507 -0.5392 -0.7742
16864TIP3   OH272006   1.795   6.349   0.033 -0.3170 -0.0861 -0.5057
16864TIP3    H172007   1.736   6.296  -0.019 -1.4147  0.9890 -0.3927
16864TIP3    H272008   1.766   6.439   0.019  1.6562  0.5543 -0.9155
16865TIP3   OH272009   0.426   0.591   0.504 -0.1059 -0.3084  0.3943
16865TIP3    H172010   0.375   0.672   0.506  0.1917 -0.1116  0.1153
16865TIP3    H272011   0.484   0.600   0.428  0.3221 -0.5384  0.6868
16866TIP3   OH272012   1.686   2.918  11.518  0.3207 -0.4625 -0.2051
16866TIP3    H172013   1.753   2.858  11.485 -0.9249 -1.7596 -0.4680
16866TIP3    H272014   1.635   2.866  11.580  0.8549  1.1194  1.6788
16867TIP3   OH272015   5.820   1.160  13.610  0.7627  0.1165 -0.2104
16867TIP3    H172016   5.774   1.199  13.536 -1.4933  0.2537  1.1400
16867TIP3    H272017   5.889   1.222  13.631 -1.9654  2.9797  1.1164
16868TIP3   OH272018   5.638   0.843  12.286 -0.4736  0.1543  0.1099
16868TIP3    H172019   5.689   0.859  12.207 -1.2420  0.2074 -0.3909
16868TIP3    H272020   5.575   0.916  12.289 -1.8292 -0.9522 -0.3812
16869TIP3   OH272021   0.074   2.323   0.678  0.1836 -0.3986 -0.1231
16869TIP3    H172022  -0.017   2.352   0.668  0.6925  1.0207 -0.8515
16869TIP3    H272023   0.067   2.233   0.711 -1.4774 -0.3061 -0.1533
16870TIP3   OH272024   6.429   2.559  11.364 -0.3072  0.0130 -0.1063
16870TIP3    H172025   6.467   2.479  11.327  2.8462  1.0831  0.4810
16870TIP3    H272026   6.433   2.623  11.292  0.5446  0.5588  0.4048
16871TIP3   OH272027   2.353   2.077   4.307  0.4262  0.3172  0.0177
16871TIP3    H172028   2.438   2.035   4.293  0.0005 -0.3373 -0.7107
16871TIP3    H272029   2.354   2.154   4.249  1.3591  1.5815  1.6426
16872TIP3   OH272030   5.532   1.000  12.731 -0.2071  0.3038 -0.6714
16872TIP3    H172031   5.465   1.056  12.771 -2.1434 -1.5855 -1.0746
16872TIP3    H272032   5.605   1.059  12.713 -1.3677  2.2789  0.6795
16873TIP3   OH272033   5.167   4.042  13.736  0.3534  0.3949  0.0105
16873TIP3    H172034   5.110   3.987  13.682  0.8335 -0.4023  0.3019
16873TIP3    H272035   5.156   4.008  13.825 -1.4087  2.5071  0.6845
16874TIP3   OH272036   0.178   5.889   3.322 -0.0265 -0.1244  0.5041
16874TIP3    H172037   0.270   5.917   3.321 -0.2437  0.9186  2.6786
16874TIP3    H272038   0.179   5.805   3.368 -0.1036 -0.4683 -0.1100
16875TIP3   OH272039   6.201   4.648   2.635 -0.1451  0.2427  0.2136
16875TIP3    H172040   6.172   4.568   2.679  0.5787  0.1748  0.5854
16875TIP3    H272041   6.126   4.707   2.641 -1.0335 -0.7159 -0.9005
16876TIP3   OH272042   6.056   4.804  14.380 -0.3804 -0.0436 -0.2672
16876TIP3    H172043   6.051   4.887  14.333 -1.8332 -0.7938 -1.5113
16876TIP3    H272044   6.061   4.737  14.311 -0.2453 -1.0517  0.6834
16877TIP3   OH272045   4.323   0.873  16.734  0.3916  0.4563 -0.2455
16877TIP3    H172046   4.292   0.940  16.794  0.3998  0.3001 -0.0673
16877TIP3    H272047   4.275   0.794  16.759  1.2411  0.1036  0.3221
16878TIP3   OH272048   3.776   2.889   2.776 -0.1400  0.5252  0.0949
16878TIP3    H172049   3.693   2.936   2.763 -0.7633 -0.5824 -0.0641
16878TIP3    H272050   3.836   2.929   2.714 -0.2425  2.0374  0.9243
16879TIP3   OH272051   0.210   5.117   4.629 -0.3445 -0.2485  0.0939
16879TIP3    H172052   0.169   5.060   4.694 -0.1559  0.1633  0.5821
16879TIP3    H272053   0.189   5.206   4.660 -1.3529 -0.0497 -1.1017
16880TIP3   OH272054   6.148   2.251  12.978 -0.7060 -0.1318  0.2990
16880TIP3    H172055   6.115   2.200  12.904 -0.3268  1.4112 -1.0118
16880TIP3    H272056   6.194   2.324  12.937  0.0077  0.4732  2.0862
16881TIP3   OH272057   4.832   3.417   1.088 -0.3786 -0.0266 -0.0983
16881TIP3    H172058   4.853   3.411   0.995  0.1375 -1.4076  0.0786
16881TIP3    H272059   4.843   3.509   1.109  2.0946 -0.0809 -0.8372
16882TIP3   OH272060   5.132   0.895  13.000 -0.5475  0.1195  0.1521
16882TIP3    H172061   5.182   0.903  13.081  1.5486  1.7169 -1.2095
16882TIP3    H272062   5.162   0.813  12.961 -0.4020  0.1278  0.2448
16883TIP3   OH272063   1.335   6.004   6.054 -0.5550 -0.0994  0.3888
16883TIP3    H172064   1.249   5.996   6.095 -0.2751  1.2495  1.2975
16883TIP3    H272065   1.386   6.056   6.115  1.8063 -3.1031  1.2021
16884TIP3   OH272066   2.575   6.010  12.842  0.6831  0.2595 -0.4245
16884TIP3    H172067   2.584   6.098  12.877  1.8311 -1.4352  4.3187
16884TIP3    H272068   2.481   5.997  12.833  0.5236  2.1812 -2.1628
16885TIP3   OH272069   5.447   0.130   0.669  0.1135  0.0406  0.8119
16885TIP3    H172070   5.449   0.133   0.765  0.6506  2.5408  0.7874
16885TIP3    H272071   5.538   0.127   0.643 -0.0277 -0.4647  0.3638
16886TIP3   OH272072   0.191   5.879  13.385  0.0407  0.6531 -0.8305
16886TIP3    H172073   0.185   5.944  13.316 -1.4881 -0.1874 -1.5412
16886TIP3    H272074   0.101   5.870  13.418  0.0460 -1.5776 -1.2612
16887TIP3   OH272075   2.183   2.261   1.457 -0.2685  0.1152  0.2362
16887TIP3    H172076   2.257   2.305   1.416 -0.8626  0.0717 -0.9223
16887TIP3    H272077   2.222   2.199   1.518  0.6132  1.0581  0.6448
16888TIP3   OH272078   0.384   3.675  13.594  0.6207 -0.1067  0.3173
16888TIP3    H172079   0.352   3.739  13.658 -0.7446  0.2930 -0.7189
16888TIP3    H272080   0.385   3.592  13.642  0.8071  0.3949  1.2013
16889TIP3   OH272081   0.038   6.162   0.776  0.9114  0.0945  0.4748
16889TIP3    H172082   0.041   6.081   0.726 -0.8297  0.5024 -0.3559
16889TIP3    H272083  -0.047   6.160   0.821  0.7806  1.5042  0.3460
16890TIP3   OH272084   3.581   0.746   2.683 -0.4835  0.0992 -0.5007
16890TIP3    H172085   3.674   0.745   2.660  0.2467 -0.9659  2.1369
16890TIP3    H272086   3.557   0.653   2.689 -0.8064  0.2741  1.9190
16891TIP3   OH272087   3.671   3.431  13.110 -0.2056 -0.9737 -0.1452
16891TIP3    H172088   3.667   3.384  13.026  1.1131  0.1659 -0.8772
16891TIP3    H272089   3.765   3.435  13.130 -0.4233 -0.0916  0.7243
16892TIP3   OH272090   0.872   0.144   0.177 -0.1207 -0.0291  0.2924
16892TIP3    H172091   0.823   0.128   0.258 -1.8170 -0.7127 -0.7982
16892TIP3    H272092   0.957   0.177   0.206 -0.5724 -0.5163  2.3493
16893TIP3   OH272093   5.182   3.202   5.877  0.1692 -0.6342  0.2812
16893TIP3    H172094   5.107   3.205   5.817  0.5870  1.6009 -0.2237
16893TIP3    H272095   5.259   3.204   5.820  0.5934 -0.0916  0.8616
16894TIP3   OH272096   0.784   0.276  15.859 -0.1869 -0.7510  0.4976
16894TIP3    H172097   0.843   0.284  15.784 -2.3756  2.9177 -1.0896
16894TIP3    H272098   0.821   0.333  15.926 -0.2584 -1.0082  0.7615
16895TIP3   OH272099   3.588   4.620   1.902  0.2220 -0.1115 -0.0333
16895TIP3    H172100   3.646   4.664   1.840 -0.2638 -0.0297 -0.4316
16895TIP3    H272101   3.531   4.690   1.934 -1.0549 -0.5643 -1.2319
16896TIP3   OH272102   1.924   1.786  13.923 -0.8185  0.2373 -0.0046
16896TIP3    H172103   1.967   1.853  13.870 -0.5298  0.9129  1.0565
16896TIP3    H272104   1.846   1.763  13.874 -0.1745  0.2952 -1.0861
16897TIP3   OH272105   2.098   0.480   0.038  0.1450 -0.3066  0.0793
16897TIP3    H172106   2.139   0.472  -0.048  0.3821  0.2244  0.1452
16897TIP3    H272107   2.116   0.569   0.066  0.9038 -0.7640  1.1108
16898TIP3   OH272108   1.144   3.753   1.189  0.4654 -0.6474  0.2055
16898TIP3    H172109   1.158   3.839   1.150 -1.1426  0.6370  2.1906
16898TIP3    H272110   1.230   3.711   1.187  1.9555  2.0546  1.4618
16899TIP3   OH272111   3.968   2.297  14.803  0.1779  0.1601  0.1789
16899TIP3    H172112   3.925   2.284  14.887 -0.1526  1.3625  0.2177
16899TIP3    H272113   4.035   2.363  14.820  0.6245 -0.1496 -0.3379
16900TIP3   OH272114   6.687   4.265  14.062 -0.3961  0.2533 -0.4378
16900TIP3    H172115   6.710   4.279  14.154 -1.5570 -2.5552  0.3919
16900TIP3    H272116   6.707   4.172  14.046 -2.1345  0.1345 -2.3972
16901TIP3   OH272117   1.288   1.263   3.598  0.1746 -0.2327  0.3452
16901TIP3    H172118   1.219   1.325   3.574 -0.3474 -0.7604  0.4533
16901TIP3    H272119   1.369   1.305   3.570 -0.2691 -0.0302 -0.6880
16902TIP3   OH272120   4.588   4.873   1.757 -0.0349  0.8292  0.3820
16902TIP3    H172121   4.607   4.949   1.701  2.8947  1.1626  1.6495
16902TIP3    H272122   4.669   4.822   1.756 -1.4102 -1.5069  0.8278
16903TIP3   OH272123   5.774   3.533   0.338 -0.3448  1.1024  0.9030
16903TIP3    H172124   5.810   3.603   0.284  0.9841 -0.0813  0.1727
16903TIP3    H272125   5.738   3.471   0.275 -0.7302  0.7223  1.4868
16904TIP3   OH272126   5.429   3.958  13.912  0.0426  0.9625  0.3615
16904TIP3    H172127   5.336   3.974  13.932 -0.5130 -1.9539  0.6056
16904TIP3    H272128   5.427   3.909  13.830  1.4587  1.5908 -0.0660
16905TIP3   OH272129   0.721   5.363  16.696 -0.0081 -0.4855 -0.2580
16905TIP3    H172130   0.698   5.278  16.658  0.8741 -0.1051 -1.7477
16905TIP3    H272131   0.738   5.419  16.620  1.2761  0.4953  0.7037
16906TIP3   OH272132   0.577   4.182   0.642  0.5902 -0.2825 -0.0492
16906TIP3    H172133   0.613   4.212   0.558  0.3410 -1.1087 -0.4660
16906TIP3    H272134   0.573   4.087   0.633  0.1174 -0.3401  0.7270
16907TIP3   OH272135   0.032   5.210   2.880 -0.4809  0.3681 -0.3875
16907TIP3    H172136   0.090   5.273   2.836  0.8129 -1.4507 -1.4328
16907TIP3    H272137   0.084   5.176   2.952 -0.0004 -1.6010 -1.5910
16908TIP3   OH272138   4.225   4.699   2.371 -0.2846 -0.0538  0.2785
16908TIP3    H172139   4.158   4.680   2.437  0.2098  1.1750  1.1550
16908TIP3    H272140   4.254   4.612   2.342 -0.1166 -0.6372  2.0795
16909TIP3   OH272141   2.119   3.719   1.695  0.2561  0.4904  0.0543
16909TIP3    H172142   2.213   3.736   1.692  0.0224  1.6884 -1.1116
16909TIP3    H272143   2.081   3.781   1.633 -1.3678  0.3842  0.8936
16910TIP3   OH272144   4.775   5.528  11.574 -0.2483  0.0814 -0.6242
16910TIP3    H172145   4.811   5.590  11.512  0.4411 -1.1465 -1.4980
16910TIP3    H272146   4.799   5.442  11.539 -0.3507 -0.6652  1.0227
16911TIP3   OH272147   2.298   3.765  13.580 -0.3995  0.6895  0.1357
16911TIP3    H172148   2.339   3.687  13.545  1.7825  2.1368 -0.7218
16911TIP3    H272149   2.321   3.835  13.519 -1.3951  2.2056  1.3933
16912TIP3   OH272150   1.097   6.004   5.170 -0.6102 -0.5620  0.5003
16912TIP3    H172151   1.177   6.034   5.128 -0.0408 -0.9490  1.2688
16912TIP3    H272152   1.081   6.068   5.239 -1.7129  0.2480 -0.4651
16913TIP3   OH272153   1.496   5.392   2.685  0.2233 -0.5890 -0.2669
16913TIP3    H172154   1.586   5.394   2.654  0.4385 -0.7055  0.3382
16913TIP3    H272155   1.503   5.379   2.779 -0.3109  2.7180  0.3675
16914TIP3   OH272156   2.418   0.238  15.756 -0.3257 -0.0303 -0.2359
16914TIP3    H172157   2.419   0.220  15.850  0.8894 -0.8053 -0.3731
16914TIP3    H272158   2.369   0.320  15.748  0.6470  0.7437  1.2204
16915TIP3   OH272159   3.444   0.744   5.143  0.4046 -0.4359  0.0488
16915TIP3    H172160   3.519   0.773   5.092  0.3927 -1.6247 -0.6748
16915TIP3    H272161   3.479   0.676   5.201  0.1641  0.0303  0.7672
16916TIP3   OH272162   2.886   0.523  12.158 -0.6150 -0.0299  0.2077
16916TIP3    H172163   2.918   0.581  12.227  1.0975 -0.9615  0.2506
16916TIP3    H272164   2.826   0.577  12.106  1.5928  2.0950 -0.3018
16917TIP3   OH272165   1.958   1.338  12.014 -0.1308 -0.3385  0.3054
16917TIP3    H172166   1.971   1.384  11.931  0.3190 -0.1474  0.4819
16917TIP3    H272167   1.883   1.383  12.054  2.3490  2.6060  2.0726
16918TIP3   OH272168   4.122   2.467  15.321 -0.7213 -0.3490  0.2017
16918TIP3    H172169   4.055   2.464  15.390 -0.1381 -2.3036  0.7476
16918TIP3    H272170   4.073   2.465  15.239 -1.4267  1.9687  0.4864
16919TIP3   OH272171   2.488   1.812   4.801  0.2883  0.2891 -0.4542
16919TIP3    H172172   2.555   1.871   4.766 -1.0969  0.2225 -3.5281
16919TIP3    H272173   2.446   1.862   4.871  2.3852  0.9367  0.4500
16920TIP3   OH272174   5.316   4.960   5.094  0.3684  0.0394  0.4849
16920TIP3    H172175   5.401   4.987   5.059  1.0119 -0.3591  1.6725
16920TIP3    H272176   5.337   4.896   5.162 -1.0300 -2.5136 -1.3107
16921TIP3   OH272177   4.303   2.463   2.132 -0.4225  0.1095 -0.1522
16921TIP3    H172178   4.236   2.395   2.122  0.1255 -0.6297  1.0263
16921TIP3    H272179   4.284   2.505   2.215  1.3894 -1.0880  0.9428
16922TIP3   OH272180   6.411   1.033  16.109 -0.0297 -0.2831 -0.3643
16922TIP3    H172181   6.434   1.098  16.176 -0.7751 -0.7995  0.4195
16922TIP3    H272182   6.427   1.078  16.026  0.2215  0.6277  0.1552
16923TIP3   OH272183   2.544   4.803   1.961  0.5209 -0.1773  0.3116
16923TIP3    H172184   2.567   4.733   1.900 -0.3459 -1.3376  1.2621
16923TIP3    H272185   2.463   4.773   2.003  0.4738  1.1034  1.2147
16924TIP3   OH272186   6.345   5.299  12.645  0.3575  0.3096 -0.1238
16924TIP3    H172187   6.286   5.280  12.572  0.8197 -0.7956 -0.2244
16924TIP3    H272188   6.326   5.230  12.709  0.4232  0.8849  0.5258
16925TIP3   OH272189   2.693   2.392   1.520  0.3891  0.3430 -0.3538
16925TIP3    H172190   2.740   2.471   1.495 -0.6149  0.5408 -1.7549
16925TIP3    H272191   2.675   2.403   1.613 -0.7449  2.3589 -0.7518
16926TIP3   OH272192   1.212   4.010  12.787  0.1236 -0.2653  0.2517
16926TIP3    H172193   1.124   4.023  12.822 -0.6294 -1.9617 -0.8707
16926TIP3    H272194   1.227   4.085  12.730 -0.7656 -0.1522  0.1536
16927TIP3   OH272195   4.595   3.651  15.802 -0.5257 -0.2257 -0.3561
16927TIP3    H172196   4.643   3.714  15.856  0.5683 -1.7172  0.5128
16927TIP3    H272197   4.627   3.666  15.713  0.3077 -0.0789 -0.0404
16928TIP3   OH272198   3.892   1.919   0.031 -0.2597  0.2468 -0.3758
16928TIP3    H172199   3.867   1.876   0.113  0.5490 -1.2988 -0.9078
16928TIP3    H272200   3.903   1.847  -0.032  0.9914  1.2361 -1.3464
16929TIP3   OH272201   4.934   3.098   3.094 -0.2773 -0.4448  0.4414
16929TIP3    H172202   4.899   3.024   3.043  0.2076  0.1511 -0.7941
16929TIP3    H272203   4.999   3.059   3.151 -0.3863 -1.0551  0.1615
16930TIP3   OH272204   3.097   3.360  13.716 -0.1012  0.3431 -0.0375
16930TIP3    H172205   3.184   3.341  13.681 -0.9193 -1.5616 -1.1629
16930TIP3    H272206   3.089   3.302  13.792 -0.1892  0.9838  0.4624
16931TIP3   OH272207   6.015   6.598   0.051 -0.1379  0.0850 -0.3678
16931TIP3    H172208   6.054   6.679   0.018 -0.6433  0.5754  0.2031
16931TIP3    H272209   5.921   6.610   0.039 -0.1152 -1.9765 -3.7733
16932TIP3   OH272210   0.751   0.341  16.568  0.3978  0.5574 -0.3302
16932TIP3    H172211   0.694   0.397  16.622  0.9335 -0.6138  1.5551
16932TIP3    H272212   0.834   0.389  16.564 -0.1220  1.4072 -1.5365
16933TIP3   OH272213   1.372   0.726  17.071 -0.5376  0.1730 -0.1552
16933TIP3    H172214   1.467   0.732  17.065 -0.5042  1.4386  1.1350
16933TIP3    H272215   1.341   0.741  16.981  0.4899 -1.1118 -0.7424
16934TIP3   OH272216   3.105   2.269   5.036  0.2830  0.1041  0.1446
16934TIP3    H172217   3.137   2.338   4.979 -0.3083 -0.0337 -0.3801
16934TIP3    H272218   3.061   2.314   5.107 -1.2903  0.3068 -0.8910
16935TIP3   OH272219   2.395   6.066  16.040  0.4206  0.1902 -0.0455
16935TIP3    H172220   2.375   6.096  16.128  1.4936  0.8416 -0.0131
16935TIP3    H272221   2.403   6.146  15.988  1.7941 -0.0865 -0.2910
16936TIP3   OH272222   4.233   3.008  15.197  0.3894 -0.5268 -0.1183
16936TIP3    H172223   4.304   3.033  15.138  0.6989 -0.7039  0.1749
16936TIP3    H272224   4.259   3.041  15.283 -0.4171  0.3871 -0.2160
16937TIP3   OH272225   1.857   6.437   1.809  0.3128 -0.4124 -0.0883
16937TIP3    H172226   1.847   6.371   1.740  0.5410 -1.4903  0.8663
16937TIP3    H272227   1.846   6.387   1.891  2.6662  0.2776  0.7475
16938TIP3   OH272228   1.269   0.251   1.202  0.0345  0.2909 -0.2933
16938TIP3    H172229   1.342   0.275   1.259  0.7745  0.6322 -1.3490
16938TIP3    H272230   1.261   0.156   1.212  0.3222  0.3150  0.1888
16939TIP3   OH272231   2.215   0.869  13.206  0.5364  0.2873  0.1545
16939TIP3    H172232   2.193   0.780  13.232  2.6226 -0.2162  0.3756
16939TIP3    H272233   2.289   0.859  13.146 -2.4369  1.5192 -4.3007
16940TIP3   OH272234   3.882   1.392   5.179 -0.0408 -0.1750  0.1323
16940TIP3    H172235   3.834   1.444   5.115 -1.6367 -2.8526 -1.0549
16940TIP3    H272236   3.953   1.351   5.128 -0.6672 -1.4895  0.2859
16941TIP3   OH272237   5.285   5.612  12.148  0.6530  0.7987 -0.2735
16941TIP3    H172238   5.323   5.524  12.161  0.4196  0.8035  0.5216
16941TIP3    H272239   5.205   5.597  12.099  0.6893  0.5763 -0.2655
16942TIP3   OH272240   1.938   0.974   5.183 -0.5128 -0.1172 -0.1167
16942TIP3    H172241   2.012   0.977   5.122 -0.9374  1.2813 -0.6141
16942TIP3    H272242   1.955   0.898   5.238  0.8566 -0.3192 -0.7719
16943TIP3   OH272243   2.863   1.635  14.753 -0.2972  0.8301 -0.3770
16943TIP3    H172244   2.838   1.621  14.661  0.3365  2.2667 -0.7986
16943TIP3    H272245   2.787   1.680  14.791  0.0271  1.5768 -0.5999
16944TIP3   OH272246   1.387   2.856   2.046  0.0554 -0.3687  0.2001
16944TIP3    H172247   1.302   2.899   2.046  0.1315 -0.2130 -0.2862
16944TIP3    H272248   1.446   2.919   2.088  0.0891 -0.1546 -0.1670
16945TIP3   OH272249   4.659   3.263   3.805 -0.2764  0.3398 -0.6932
16945TIP3    H172250   4.627   3.223   3.887  0.5843 -1.2723 -1.1048
16945TIP3    H272251   4.598   3.335   3.789 -0.3307  0.8426  1.4813
16946TIP3   OH272252   5.487   0.827   2.766  0.0874 -0.8356 -0.8050
16946TIP3    H172253   5.462   0.918   2.754  2.3305  0.2706  1.8277
16946TIP3    H272254   5.530   0.802   2.684 -0.0158  0.6668 -1.3372
16947TIP3   OH272255   1.447   4.355  15.395 -0.3575  0.1945  0.3950
16947TIP3    H172256   1.356   4.332  15.418 -0.6692  0.4781 -0.5196
16947TIP3    H272257   1.499   4.316  15.465 -1.0584 -1.2938  0.1396
16948TIP3   OH272258   6.229   5.800  11.478 -0.2488  0.7164  0.1539
16948TIP3    H172259   6.218   5.758  11.393  1.9250  2.0742 -0.8605
16948TIP3    H272260   6.295   5.746  11.523  0.1336  1.1797  0.1509
16949TIP3   OH272261   3.141   5.619   0.962  0.3067 -0.1542  0.0820
16949TIP3    H172262   3.219   5.575   0.926 -1.1337 -4.2417  1.3311
16949TIP3    H272263   3.171   5.660   1.043  1.5125 -0.0102 -0.4155
16950TIP3   OH272264   0.504   1.418   2.865  0.0275  0.5300  0.8117
16950TIP3    H172265   0.466   1.503   2.840 -1.1114  0.0992  1.0088
16950TIP3    H272266   0.466   1.400   2.951 -0.9739 -0.8804  0.1190
16951TIP3   OH272267   4.694   6.206   0.306  0.5316  0.0826  0.1894
16951TIP3    H172268   4.733   6.121   0.288 -1.6860 -0.6651 -1.5252
16951TIP3    H272269   4.629   6.190   0.374 -1.4440 -0.1457 -1.6464
16952TIP3   OH272270   6.340   2.879  12.612  0.1921  0.2850  0.0023
16952TIP3    H172271   6.329   2.949  12.548 -1.0482 -1.4328 -1.7903
16952TIP3    H272272   6.275   2.899  12.680 -0.1260  0.8902 -0.4650
16953TIP3   OH272273   3.742   3.634   3.768 -0.2182 -0.4261  0.1211
16953TIP3    H172274   3.694   3.665   3.691 -1.5627  1.2964  1.5533
16953TIP3    H272275   3.831   3.667   3.755 -0.5090  0.1412 -0.5583
16954TIP3   OH272276   4.621   2.769   2.391  0.1952  0.0851  0.1108
16954TIP3    H172277   4.664   2.718   2.459 -1.6056 -1.9972 -0.1879
16954TIP3    H272278   4.588   2.846   2.436  1.2752  0.0433  1.0232
16955TIP3   OH272279   3.386   0.226  10.883 -0.2624  0.2038 -0.6026
16955TIP3    H172280   3.434   0.156  10.838 -1.3090 -0.1156 -1.2695
16955TIP3    H272281   3.356   0.186  10.964 -0.0736  0.1607 -0.5546
16956TIP3   OH272282   0.604   1.465   6.147  0.3277  0.0792 -0.4455
16956TIP3    H172283   0.575   1.419   6.068 -0.1547  0.1553 -0.3167
16956TIP3    H272284   0.644   1.397   6.201  0.4441 -0.0177 -0.6534
16957TIP3   OH272285   4.800   2.474   4.845  0.3423 -0.3518 -0.2323
16957TIP3    H172286   4.893   2.497   4.852  0.5433 -1.3229  0.4713
16957TIP3    H272287   4.800   2.382   4.820 -0.4216 -0.6469  0.8087
16958TIP3   OH272288   5.687   3.163  13.106 -0.3398  0.2739 -0.6975
16958TIP3    H172289   5.691   3.068  13.101 -0.0569  0.2536 -0.2377
16958TIP3    H272290   5.659   3.181  13.196 -0.2709  0.6255 -0.7428
16959TIP3   OH272291   2.934   1.933  14.805  0.1517  0.5054  0.5957
16959TIP3    H172292   2.848   1.972  14.788  0.7142  1.2316 -0.7790
16959TIP3    H272293   2.928   1.845  14.768  0.2624  0.8668 -0.3064
16960TIP3   OH272294   5.187   1.018  13.277 -0.5512  0.4696  1.1524
16960TIP3    H172295   5.189   1.112  13.257 -0.2241  0.1662 -0.3216
16960TIP3    H272296   5.096   0.993  13.267 -0.6535  0.6368  1.6267
16961TIP3   OH272297   3.018   6.370  14.651 -0.0104 -0.5301  0.1135
16961TIP3    H172298   2.957   6.444  14.648  0.9147  0.2581  0.2692
16961TIP3    H272299   3.001   6.323  14.569  0.2713  0.5915 -0.6229
16962TIP3   OH272300   6.072   3.147  16.461  0.0940 -0.3209 -0.4920
16962TIP3    H172301   5.984   3.109  16.455 -0.3597  0.8101 -1.3355
16962TIP3    H272302   6.130   3.077  16.431 -0.6371 -0.6472 -1.1905
16963TIP3   OH272303   5.141   0.046   3.435  0.3687 -0.2958  0.0520
16963TIP3    H172304   5.231   0.064   3.408 -0.0269  0.9787 -0.4747
16963TIP3    H272305   5.146   0.033   3.530  0.9779  0.6595  0.1521
16964TIP3   OH272306   4.045   6.316  16.342 -0.4099 -0.0177 -0.1811
16964TIP3    H172307   3.991   6.391  16.318  0.3302  0.7859  0.6145
16964TIP3    H272308   4.071   6.277  16.259 -1.2544  0.2675 -0.5902
16965TIP3   OH272309   1.033   5.958   6.043  0.2514  0.5528 -0.0144
16965TIP3    H172310   1.005   6.002   5.962 -0.6564 -0.8722 -0.5086
16965TIP3    H272311   1.046   6.030   6.105 -1.9712  1.5275 -0.5500
16966TIP3   OH272312   0.926   6.380   4.708 -0.4450 -0.3971  0.0705
16966TIP3    H172313   0.872   6.445   4.663  0.1436  0.5999  0.7566
16966TIP3    H272314   0.901   6.389   4.800  0.9705  0.1818  0.4186
16967TIP3   OH272315   2.812   4.460   6.240 -0.0220  0.1155  0.1938
16967TIP3    H172316   2.793   4.483   6.331 -0.2921 -0.0555  0.1815
16967TIP3    H272317   2.801   4.543   6.192  0.4665  0.2797  0.3683
16968TIP3   OH272318   6.619   2.089  16.127  0.1293 -0.0723 -0.0023
16968TIP3    H172319   6.692   2.096  16.188 -0.4847 -1.0169  0.8812
16968TIP3    H272320   6.642   2.016  16.070  1.0040  1.2206 -1.3734
16969TIP3   OH272321   1.547   5.260   0.104 -0.5995  0.1845 -0.0642
16969TIP3    H172322   1.554   5.347   0.066  0.2321  0.5301  0.8521
16969TIP3    H272323   1.601   5.204   0.048  1.2081  0.8279  0.9564
16970TIP3   OH272324   1.438   3.551  11.062  0.2552 -0.5806  0.0532
16970TIP3    H172325   1.468   3.642  11.072  2.0149 -0.7923 -2.3559
16970TIP3    H272326   1.380   3.553  10.986  0.6245 -1.5035 -0.2654
16971TIP3   OH272327   4.947   0.827  13.590  0.0231 -0.4938 -0.0802
16971TIP3    H172328   4.917   0.813  13.680  0.5961 -1.3910 -0.0245
16971TIP3    H272329   4.993   0.911  13.593  0.3051 -0.6647  0.5315
16972TIP3   OH272330   1.715   5.931   1.366  0.3838  0.0300  0.4433
16972TIP3    H172331   1.681   5.963   1.283  0.4535 -1.9009 -0.3754
16972TIP3    H272332   1.810   5.936   1.357  0.4538 -1.9434 -0.3912
16973TIP3   OH272333   4.525   0.063   4.426 -0.2595 -0.4898  0.2574
16973TIP3    H172334   4.587   0.106   4.485  0.6086 -1.7923  0.3406
16973TIP3    H272335   4.508   0.128   4.358  2.1523 -0.4551 -0.4056
16974TIP3   OH272336   1.037   1.244   6.103  0.1428 -0.1937  0.3822
16974TIP3    H172337   0.972   1.175   6.117 -0.0538 -0.0816  0.0302
16974TIP3    H272338   1.106   1.202   6.052  0.8444 -0.5940  1.6229
16975TIP3   OH272339   1.599   1.260  12.190 -0.1374 -0.1721  0.2079
16975TIP3    H172340   1.653   1.202  12.136 -0.4118  0.9710 -1.3703
16975TIP3    H272341   1.640   1.346  12.182 -1.1816  0.3671  0.4097
16976TIP3   OH272342   5.131   1.613   2.092 -0.1366  0.6437  0.2514
16976TIP3    H172343   5.078   1.620   2.171 -0.4667  1.7096 -0.0371
16976TIP3    H272344   5.109   1.527   2.056 -0.3006  0.3270  1.0934
16977TIP3   OH272345   1.774   6.590   4.086  0.1369 -0.1084  0.5000
16977TIP3    H172346   1.825   6.663   4.122 -0.1837  0.5045 -0.2549
16977TIP3    H272347   1.830   6.513   4.099  1.0079  0.4579  0.2164
16978TIP3   OH272348   5.932   6.431  12.436 -0.0553  0.3583  0.6154
16978TIP3    H172349   5.860   6.373  12.461 -0.8857  0.3242 -1.6184
16978TIP3    H272350   5.990   6.431  12.512 -2.2327  0.1292  2.3767
16979TIP3   OH272351   6.600   4.148  12.237 -0.1906 -0.1095  0.1953
16979TIP3    H172352   6.665   4.098  12.187  1.3530  1.9549  0.0073
16979TIP3    H272353   6.630   4.143  12.328 -2.2113 -2.6658  0.8440
16980TIP3   OH272354   1.884   2.492  11.951  0.5063  0.1031 -0.0144
16980TIP3    H172355   1.962   2.546  11.942  0.3665  0.5193  1.1669
16980TIP3    H272356   1.899   2.440  12.030  0.6742 -1.6756 -1.1572
16981TIP3   OH272357   1.589   3.405   1.120  0.0830 -0.5554  0.2915
16981TIP3    H172358   1.598   3.371   1.031 -1.0015 -1.6167  0.5651
16981TIP3    H272359   1.669   3.378   1.164  0.4296 -0.4048 -0.2391
16982TIP3   OH272360   0.021   2.936   3.898  0.0747 -0.3192  0.4509
16982TIP3    H172361  -0.020   2.850   3.898 -1.7634  0.4700 -1.2492
16982TIP3    H272362  -0.014   2.980   3.820  2.2445  1.3841  0.3102
16983TIP3   OH272363   3.116   5.110  11.053 -0.3925  0.1997  0.1546
16983TIP3    H172364   3.158   5.184  11.008 -0.3162  0.4866  0.6764
16983TIP3    H272365   3.097   5.144  11.141  1.0825 -0.8715  0.9428
16984TIP3   OH272366   1.779   4.319  16.716 -0.2170 -0.0009 -0.0249
16984TIP3    H172367   1.686   4.299  16.726 -0.1351  0.1446  1.1663
16984TIP3    H272368   1.783   4.378  16.642 -0.9099 -1.1424 -1.0139
16985TIP3   OH272369   3.958   4.492   3.234 -0.0673  0.1851  0.0324
16985TIP3    H172370   3.947   4.502   3.328 -0.5357  0.8420 -0.0845
16985TIP3    H272371   4.050   4.466   3.223 -0.0300  0.0307  0.6676
16986TIP3   OH272372   0.840   5.731   0.158 -0.9355 -0.5844  0.1370
16986TIP3    H172373   0.858   5.683   0.239  0.7577  0.8029  0.6414
16986TIP3    H272374   0.885   5.680   0.090  0.7008  0.0936  0.6437
16987TIP3   OH272375   5.123   2.305  12.482  0.2951 -0.3329 -0.5057
16987TIP3    H172376   5.035   2.275  12.507 -1.0118  3.2954 -0.2069
16987TIP3    H272377   5.131   2.280  12.390 -1.4422  0.0419 -0.7988
16988TIP3   OH272378   5.455   3.961  12.338  0.8598  0.5442  0.1468
16988TIP3    H172379   5.466   3.883  12.284  0.4084  0.8798 -0.4499
16988TIP3    H272380   5.381   3.941  12.395 -0.0374  0.9676 -0.8352
16989TIP3   OH272381   0.338   4.584  14.218  0.1965  0.0453 -0.0511
16989TIP3    H172382   0.417   4.609  14.267  0.0772 -0.0225  0.1804
16989TIP3    H272383   0.334   4.488  14.227  0.4964 -0.0313 -0.6918
16990TIP3   OH272384   3.088   4.319   5.243 -0.1681 -0.6047 -0.5250
16990TIP3    H172385   3.103   4.382   5.314  0.0870 -3.5474  2.2668
16990TIP3    H272386   3.005   4.277   5.265 -0.2317 -1.4182 -2.1592
16991TIP3   OH272387   5.916   3.538  14.254  0.3361  0.2094  0.5288
16991TIP3    H172388   5.894   3.564  14.344  1.4024  0.3267  0.7618
16991TIP3    H272389   5.969   3.610  14.221  1.3903 -0.6186  0.3854
16992TIP3   OH272390   2.883   5.520  15.643  0.5938  0.5576 -0.2787
16992TIP3    H172391   2.892   5.450  15.579  1.5741  1.0927 -0.7613
16992TIP3    H272392   2.959   5.577  15.627  0.3648  1.1899  0.7577
16993TIP3   OH272393   3.586   3.674  15.619 -0.1322  0.0691 -0.3738
16993TIP3    H172394   3.562   3.765  15.641  0.0384  0.0868 -0.2589
16993TIP3    H272395   3.681   3.676  15.609 -0.0410 -0.2467  0.3635
16994TIP3   OH272396   6.121   4.809  11.057  0.1677 -0.0413  0.3571
16994TIP3    H172397   6.198   4.770  11.015  1.1255  2.6968 -0.6749
16994TIP3    H272398   6.154   4.849  11.137 -1.0690 -2.3983  2.1899
16995TIP3   OH272399   3.471   2.276   2.898 -0.1738 -0.0454 -0.0685
16995TIP3    H172400   3.515   2.192   2.883  0.6115 -0.2126  2.7211
16995TIP3    H272401   3.529   2.341   2.857  0.4619 -0.6487 -0.1397
16996TIP3   OH272402   5.319   6.499  15.284 -0.2070 -0.4461 -0.6826
16996TIP3    H172403   5.333   6.582  15.329 -2.1548 -1.0506  1.1590
16996TIP3    H272404   5.406   6.474  15.252  1.6083 -0.4304  3.5702
16997TIP3   OH272405   6.633   6.395  16.878  0.2374 -0.0403  0.1083
16997TIP3    H172406   6.555   6.395  16.823 -0.0282 -1.0887  0.4561
16997TIP3    H272407   6.603   6.361  16.963  0.6724  1.3965  0.8702
16998TIP3   OH272408   0.629   1.894  13.007  0.1461  0.4458 -0.1002
16998TIP3    H172409   0.668   1.840  13.076 -0.8422  0.7564  0.7449
16998TIP3    H272410   0.548   1.849  12.984 -1.0606  1.8643  1.1230
16999TIP3   OH272411   6.080   2.389   5.133 -0.6472 -0.3252 -0.1600
16999TIP3    H172412   6.029   2.360   5.209  0.7566 -2.2414  0.1311
16999TIP3    H272413   6.108   2.478   5.156  1.0256 -1.3729  2.3703
17000TIP3   OH272414   6.597   5.023   4.337 -0.2947  0.5660  0.8396
17000TIP3    H172415   6.511   5.052   4.365  0.4120  1.5184  2.1225
17000TIP3    H272416   6.629   4.969   4.409  0.0831  0.0236  0.2716
17001TIP3   OH272417   0.178   0.209  15.830 -0.7505  0.3269 -0.1421
17001TIP3    H172418   0.103   0.192  15.773 -1.2454  1.4129  0.1580
17001TIP3    H272419   0.147   0.184  15.918 -0.4395 -0.1036 -0.1539
17002TIP3   OH272420   4.947   2.372   3.940  0.8027 -0.3953  0.5135
17002TIP3    H172421   4.922   2.313   4.012 -1.1020  0.6808  0.8126
17002TIP3    H272422   5.037   2.398   3.960  1.0670 -1.8411  1.2980
17003TIP3   OH272423   6.617   2.826  15.199  0.0254 -0.3175 -0.3399
17003TIP3    H172424   6.682   2.770  15.241 -0.3020 -1.2859 -1.1037
17003TIP3    H272425   6.623   2.909  15.247 -0.1324 -1.2834  1.4067
17004TIP3   OH272426   0.314   2.733  16.387 -0.3243  0.6023  0.4990
17004TIP3    H172427   0.407   2.723  16.368 -0.7234 -0.7255 -1.0814
17004TIP3    H272428   0.304   2.823  16.418  1.9507 -0.1915  4.0490
17005TIP3   OH272429   2.044   1.154   0.737 -0.7383  0.0937  0.4198
17005TIP3    H172430   2.118   1.095   0.756  0.6429  1.9232  1.0452
17005TIP3    H272431   1.966   1.101   0.755  0.3839 -1.9338 -0.3148
17006TIP3   OH272432   3.068   2.457   1.983 -0.2960  0.2395 -0.1189
17006TIP3    H172433   3.131   2.519   2.021  1.6744 -0.3240 -2.1995
17006TIP3    H272434   3.108   2.432   1.899 -2.0430 -2.2427 -0.3022
17007TIP3   OH272435   4.629   0.464  14.786  0.7085 -0.1765 -0.4692
17007TIP3    H172436   4.571   0.447  14.712 -0.6074  0.7300  0.3125
17007TIP3    H272437   4.680   0.541  14.760  0.8481 -0.3794 -0.7826
17008TIP3   OH272438   3.678   3.498  16.818  0.0262  0.2404  0.6428
17008TIP3    H172439   3.668   3.592  16.812  0.2031  0.1889 -0.7011
17008TIP3    H272440   3.657   3.465  16.731 -0.3505 -0.9958  1.1696
17009TIP3   OH272441   6.689   3.280  14.588 -0.3145 -0.1013 -0.1387
17009TIP3    H172442   6.603   3.315  14.612 -0.5769  0.5275 -1.8203
17009TIP3    H272443   6.671   3.189  14.562 -0.9698  0.6806 -2.7558
17010TIP3   OH272444   2.067   5.690   5.571 -0.1043 -0.5119 -0.0273
17010TIP3    H172445   2.044   5.707   5.662  0.6450 -0.8980  0.2432
17010TIP3    H272446   2.134   5.756   5.550  0.6906 -1.2523  0.1254
17011TIP3   OH272447   1.168   1.531   3.808 -0.1353  0.4692  0.2627
17011TIP3    H172448   1.134   1.567   3.725  1.3755 -0.7730 -0.9638
17011TIP3    H272449   1.262   1.551   3.806 -0.0468  0.2416  1.5956
17012TIP3   OH272450   1.525   5.439  15.090 -0.0278 -0.6375 -0.2258
17012TIP3    H172451   1.457   5.384  15.052 -1.8388  0.6485  1.0382
17012TIP3    H272452   1.528   5.414  15.182  0.0853  0.4400  0.0752
17013TIP3   OH272453   4.207   4.016  12.646 -0.2729  0.3240 -0.6025
17013TIP3    H172454   4.232   3.969  12.567  0.2191 -1.8726  0.7816
17013TIP3    H272455   4.112   4.006  12.652 -0.1710 -0.5323 -0.3208
17014TIP3   OH272456   6.382   3.948  10.766  0.2754 -0.5494 -0.0705
17014TIP3    H172457   6.323   3.997  10.824  0.3505 -0.1190 -0.3540
17014TIP3    H272458   6.451   3.916  10.824 -0.1907 -0.9939  0.2521
17015TIP3   OH272459   4.086   4.574  13.061 -0.4072 -0.0184 -0.1354
17015TIP3    H172460   4.058   4.656  13.103 -0.0004 -0.8985  1.9637
17015TIP3    H272461   4.012   4.514  13.073  1.4226 -1.7995  3.8604
17016TIP3   OH272462   0.796   4.232   0.869  0.2311 -0.2270 -0.3449
17016TIP3    H172463   0.785   4.286   0.948  0.5909 -0.8232  0.1211
17016TIP3    H272464   0.707   4.209   0.843  0.1540 -1.4677  0.9102
17017TIP3   OH272465   2.489   0.909  11.764  0.0937  0.1008  0.0809
17017TIP3    H172466   2.421   0.858  11.809  0.1729  0.8951  1.1258
17017TIP3    H272467   2.456   0.920  11.675 -2.1974  2.2960  1.1055
17018TIP3   OH272468   1.101   4.887   1.555 -0.2058  0.5379 -0.6066
17018TIP3    H172469   1.110   4.795   1.530  1.6866  0.2060  1.0050
17018TIP3    H272470   1.023   4.889   1.610  0.7212 -0.5470  0.8510
17019TIP3   OH272471   3.737   4.081   0.797  0.5102 -0.6803 -0.1455
17019TIP3    H172472   3.756   4.152   0.735  1.2626 -0.1340  0.6937
17019TIP3    H272473   3.649   4.100   0.829  0.8362  0.0709  0.3252
17020TIP3   OH272474   5.535   3.315  11.343  0.4788  0.3975 -0.4341
17020TIP3    H172475   5.459   3.275  11.386  0.5296  1.7375  0.9914
17020TIP3    H272476   5.543   3.267  11.260  0.3864 -2.3275  1.0085
17021TIP3   OH272477   5.723   6.122   4.808 -0.0844  0.0169  0.2733
17021TIP3    H172478   5.735   6.055   4.876 -0.0565 -2.4279 -1.9699
17021TIP3    H272479   5.809   6.131   4.768 -0.1159  1.3677  0.4896
17022TIP3   OH272480   4.059   1.180   2.296  0.2081  0.3447 -0.2761
17022TIP3    H172481   4.017   1.266   2.296 -0.4139  0.1007  1.5670
17022TIP3    H272482   4.153   1.200   2.293  0.4346  1.5298  4.6742
17023TIP3   OH272483   2.583   3.987   2.743  0.6627 -0.0121  0.5334
17023TIP3    H172484   2.566   4.066   2.691  1.6799 -0.7562 -1.0090
17023TIP3    H272485   2.657   4.011   2.799  1.9428 -0.2900 -0.9896
17024TIP3   OH272486   1.818   1.598  12.389  0.4839  0.1893  0.1907
17024TIP3    H172487   1.793   1.549  12.467  1.5945 -2.8647 -1.2019
17024TIP3    H272488   1.911   1.617  12.401  0.9275 -1.2198 -0.7561
17025TIP3   OH272489   0.180   6.344  11.642  0.0340  0.1476 -0.3311
17025TIP3    H172490   0.136   6.362  11.725 -0.0821  1.1201 -0.5835
17025TIP3    H272491   0.135   6.401  11.579  0.2330 -0.4493 -1.0241
17026TIP3   OH272492   5.623   5.508  14.711  0.1014  0.4484  0.1726
17026TIP3    H172493   5.635   5.602  14.700  0.3915  0.3359 -0.5097
17026TIP3    H272494   5.661   5.489  14.797  0.6142  0.8562  0.0426
17027TIP3   OH272495   4.190   0.784   6.394  0.4679  0.1035 -0.1336
17027TIP3    H172496   4.193   0.691   6.372 -0.3413  0.0178  0.0729
17027TIP3    H272497   4.274   0.802   6.436  0.5415 -0.5861  0.0183
17028TIP3   OH272498   2.243   0.443  12.790 -0.2413  0.4505 -0.2358
17028TIP3    H172499   2.301   0.447  12.714  0.5928 -0.5498  0.3231
17028TIP3    H272500   2.200   0.358  12.783 -0.1189  0.3322  0.4488
17029TIP3   OH272501   3.700   5.684   1.462  0.2590  0.2363  0.2419
17029TIP3    H172502   3.673   5.767   1.423  0.3567 -0.2197 -0.8361
17029TIP3    H272503   3.666   5.617   1.403  0.7320 -0.4692  0.7468
17030TIP3   OH272504   3.059   0.846   1.344  0.1443 -0.8982 -0.9509
17030TIP3    H172505   3.038   0.870   1.434 -0.6260  2.1825 -1.8558
17030TIP3    H272506   2.992   0.781   1.320  1.0292 -2.6414  0.9420
17031TIP3   OH272507   4.367   4.504   0.065 -0.5147 -1.0980  0.0323
17031TIP3    H172508   4.296   4.471   0.009 -1.2739 -0.3618  0.5403
17031TIP3    H272509   4.345   4.472   0.152 -0.8424  0.0860  0.3954
17032TIP3   OH272510   6.237   6.118  12.748 -0.1055  0.2625 -0.0906
17032TIP3    H172511   6.219   6.049  12.684 -0.6278 -1.0098  1.3560
17032TIP3    H272512   6.324   6.097  12.782  0.6054  1.5151 -1.0641
17033TIP3   OH272513   1.614   3.677  13.955  0.0336  0.3221 -0.0465
17033TIP3    H172514   1.634   3.769  13.972  1.5572 -0.1084  0.7018
17033TIP3    H272515   1.657   3.630  14.026  0.5250 -1.0601 -1.2185
17034TIP3   OH272516   1.901   0.677  15.255 -0.0842  0.6187  0.7356
17034TIP3    H172517   1.891   0.600  15.312  1.6507 -1.6008 -1.7184
17034TIP3    H272518   1.816   0.684  15.210  0.1032 -0.7022  0.1114
17035TIP3   OH272519   5.037   3.776  11.182  0.7027 -0.1741  0.6539
17035TIP3    H172520   5.002   3.755  11.268 -1.4858 -2.6587 -0.6810
17035TIP3    H272521   5.088   3.699  11.157  0.9593  0.3175 -0.4099
17036TIP3   OH272522   6.582   2.530  16.718  0.0807 -0.4992 -0.1012
17036TIP3    H172523   6.604   2.507  16.627 -0.7135 -2.5784  0.1712
17036TIP3    H272524   6.643   2.478  16.771 -0.6476 -0.6928  0.5589
17037TIP3   OH272525   3.882   6.395  16.148 -0.1092  0.0774  0.1863
17037TIP3    H172526   3.828   6.443  16.085  0.9444  0.2682 -0.5843
17037TIP3    H272527   3.967   6.388  16.107  0.1563 -1.2250  0.8961
17038TIP3   OH272528   1.742   3.454  12.323  0.0465 -0.2398 -0.1230
17038TIP3    H172529   1.827   3.492  12.302  0.0088  0.2997  0.6331
17038TIP3    H272530   1.761   3.388  12.390 -0.1577  0.0789  0.2534
17039TIP3   OH272531   2.410   4.917  13.117  0.2214  0.7662 -1.1952
17039TIP3    H172532   2.376   5.004  13.139 -0.8273 -0.2600  1.7523
17039TIP3    H272533   2.332   4.864  13.099  0.3101 -0.6512  1.8466
17040TIP3   OH272534   1.253   0.418  11.165 -0.2973 -0.3184  0.6381
17040TIP3    H172535   1.199   0.338  11.166  0.0776 -0.6074 -0.4637
17040TIP3    H272536   1.343   0.386  11.165 -0.1261  0.0132 -1.3136
17041TIP3   OH272537   3.601   1.118  14.671  0.3794 -0.6868  0.1468
17041TIP3    H172538   3.619   1.117  14.577 -0.0226 -0.8402  0.0704
17041TIP3    H272539   3.568   1.030  14.691 -1.5095 -0.0517  0.0264
17042TIP3   OH272540   4.008   4.293   1.208  0.0784  0.5560  0.3452
17042TIP3    H172541   3.981   4.268   1.120 -0.4606  1.5738  0.2078
17042TIP3    H272542   4.090   4.340   1.196  1.0297 -0.9647  0.5928
17043TIP3   OH272543   0.102   3.546  13.232 -0.5637 -0.5043  0.0383
17043TIP3    H172544   0.140   3.473  13.280 -1.6415 -2.0754 -1.3902
17043TIP3    H272545   0.039   3.584  13.293 -0.8610 -1.5385  0.3944
17044TIP3   OH272546   5.932   4.076  16.933  0.0660 -0.1591  0.2115
17044TIP3    H172547   5.964   3.993  16.898 -0.8684 -0.2249 -0.5446
17044TIP3    H272548   5.986   4.142  16.890  1.1918 -0.3826  1.2423
17045TIP3   OH272549   4.296   4.118  11.913 -0.5738 -0.4139 -0.0827
17045TIP3    H172550   4.366   4.083  11.968  0.7227  1.4286 -0.4437
17045TIP3    H272551   4.327   4.206  11.889 -1.0742 -1.0925 -3.6972
17046TIP3   OH272552   1.494   4.490   4.844 -0.0066  0.0508  0.1674
17046TIP3    H172553   1.426   4.549   4.873 -0.8861 -1.6137  1.6834
17046TIP3    H272554   1.562   4.547   4.807 -0.7456  1.9768  1.6454
17047TIP3   OH272555   0.954   4.039   4.796  0.1793  0.3813  0.1321
17047TIP3    H172556   1.008   3.972   4.837 -0.5425  1.3196  2.8283
17047TIP3    H272557   0.987   4.044   4.706  2.5946 -1.1006  0.8224
17048TIP3   OH272558   3.836   5.666   0.427  0.0542 -0.2026  0.1311
17048TIP3    H172559   3.798   5.612   0.357 -2.8290  1.2034  0.4889
17048TIP3    H272560   3.902   5.718   0.382 -2.3700  1.3670 -1.9169
17049TIP3   OH272561   1.657   1.774  12.736 -0.2294  0.3960 -0.1837
17049TIP3    H172562   1.698   1.852  12.698  0.8378 -0.8199 -1.6450
17049TIP3    H272563   1.576   1.764  12.687 -0.1329  0.3172 -0.3275
17050TIP3   OH272564   5.595   5.828   5.287 -0.3267  0.0246  0.2436
17050TIP3    H172565   5.680   5.792   5.313 -0.0198 -0.2175 -1.0452
17050TIP3    H272566   5.584   5.904   5.345  0.0028 -0.8627  1.5294
17051TIP3   OH272567   2.267   4.995  15.250  0.1516 -0.7731 -0.3911
17051TIP3    H172568   2.311   4.934  15.309 -0.7771 -0.9318  0.1432
17051TIP3    H272569   2.203   4.942  15.203 -1.6121 -0.0044  1.0386
17052TIP3   OH272570   2.802   4.760   3.406 -0.1126 -0.6813 -0.5805
17052TIP3    H172571   2.836   4.728   3.322 -0.9793 -3.5052  0.0569
17052TIP3    H272572   2.787   4.682   3.458  0.4306  0.9822  2.3108
17053TIP3   OH272573   2.638   3.570  15.931 -0.5087  0.4577  0.1200
17053TIP3    H172574   2.710   3.633  15.930 -0.3495  0.2762  0.2238
17053TIP3    H272575   2.671   3.495  15.980 -0.2552 -0.2279 -1.0655
17054TIP3   OH272576   3.571   4.465  11.919  0.0726  0.2438  0.3436
17054TIP3    H172577   3.500   4.526  11.939  1.3427  1.1852  2.2326
17054TIP3    H272578   3.543   4.422  11.837 -3.1434 -0.1746  1.4975
17055TIP3   OH272579   0.591   6.574   5.938  0.1854 -0.5315 -0.0096
17055TIP3    H172580   0.649   6.499   5.925 -1.4493 -1.5425 -1.8637
17055TIP3    H272581   0.550   6.558   6.022 -1.4832 -2.7432 -1.1476
17056TIP3   OH272582   1.919   4.170   3.141 -0.4903 -0.9572  0.2262
17056TIP3    H172583   1.938   4.242   3.081 -0.4993 -1.7579 -0.7652
17056TIP3    H272584   1.856   4.115   3.093 -2.1457 -0.5308  1.7864
17057TIP3   OH272585   4.870   2.321   4.448  0.7173  0.1069  0.8119
17057TIP3    H172586   4.872   2.343   4.354 -1.9636  0.8992  0.8572
17057TIP3    H272587   4.800   2.256   4.456  1.4975 -0.6031  2.1718
17058TIP3   OH272588   0.522   5.725  12.669  0.5675 -0.1631 -0.1719
17058TIP3    H172589   0.571   5.801  12.701  0.2023 -0.3782  0.9395
17058TIP3    H272590   0.448   5.718  12.729 -0.2761 -0.4513 -1.2176
17059TIP3   OH272591   3.735   5.055   2.908  0.8819  0.0566  0.5056
17059TIP3    H172592   3.825   5.076   2.883  1.3196  0.0027  1.9811
17059TIP3    H272593   3.743   4.985   2.973 -0.3398 -1.3998 -0.8165
17060TIP3   OH272594   2.701   2.243   1.785 -0.5018 -1.3165 -0.0622
17060TIP3    H172595   2.605   2.239   1.776 -0.5838 -1.4752  0.7986
17060TIP3    H272596   2.715   2.265   1.877  0.3030 -1.5926 -0.1167
17061TIP3   OH272597   2.092   1.879   6.289  0.7335  0.1350 -0.3862
17061TIP3    H172598   2.166   1.906   6.234  1.0377 -0.3516 -0.2254
17061TIP3    H272599   2.131   1.821   6.355  0.2504  0.0953 -0.1300
17062TIP3   OH272600   1.016   3.665  17.284 -0.3565  0.5469  0.1878
17062TIP3    H172601   0.987   3.708  17.203  0.5189 -1.0075 -1.0021
17062TIP3    H272602   0.952   3.596  17.299  0.5219 -0.3875 -0.2696
17063TIP3   OH272603   3.234   4.049   4.464 -0.4969  0.0235  0.2223
17063TIP3    H172604   3.217   3.969   4.515 -1.5251  1.0740  1.6191
17063TIP3    H272605   3.238   4.118   4.530 -0.1425  1.2026 -1.0035
17064TIP3   OH272606   0.503   1.727  10.758 -0.0291 -0.7598 -0.2638
17064TIP3    H172607   0.436   1.794  10.769  1.6334  1.3014 -1.7989
17064TIP3    H272608   0.475   1.676  10.683 -0.0047 -0.0346 -0.7759
17065TIP3   OH272609   0.519   2.217  12.318 -0.0259  0.1000 -0.0652
17065TIP3    H172610   0.550   2.263  12.396  2.1499  1.2295 -1.4946
17065TIP3    H272611   0.594   2.164  12.291 -0.4523  0.3384 -1.8094
17066TIP3   OH272612   4.847   6.302  12.704 -0.0423  0.1265 -0.0956
17066TIP3    H172613   4.817   6.390  12.680 -1.8058 -0.4507 -0.1414
17066TIP3    H272614   4.832   6.297  12.798 -0.9008 -0.4796 -0.2653
17067TIP3   OH272615   3.283   1.826  12.229  0.1219 -0.4342  0.2029
17067TIP3    H172616   3.212   1.784  12.181 -1.1676  1.3209  0.4855
17067TIP3    H272617   3.352   1.839  12.164 -1.1335  0.8190 -0.9335
17068TIP3   OH272618   6.546   0.741  14.429  0.2154 -0.3134  0.2301
17068TIP3    H172619   6.486   0.793  14.376  2.2278 -0.2629 -2.1577
17068TIP3    H272620   6.494   0.666  14.459 -1.5198  0.7320 -0.0483
17069TIP3   OH272621   3.804   1.312   5.598 -0.2084  0.4472 -0.6889
17069TIP3    H172622   3.838   1.254   5.666 -1.1131  1.1088  0.3571
17069TIP3    H272623   3.880   1.360   5.567  0.0818  0.8670  0.5994
17070TIP3   OH272624   3.795   1.216  16.132 -0.0700  0.0632 -0.1874
17070TIP3    H172625   3.759   1.130  16.151  0.7921 -0.1425  0.5084
17070TIP3    H272626   3.718   1.268  16.107 -1.0437 -0.0944  2.2283
17071TIP3   OH272627   1.545   3.053   2.180  0.1217  0.1500  0.1013
17071TIP3    H172628   1.583   3.004   2.253  1.8596  0.2353 -0.6984
17071TIP3    H272629   1.607   3.125   2.165 -2.0366  2.2883  0.8533
17072TIP3   OH272630   1.564   1.829  13.317 -0.1870 -0.5408 -0.1666
17072TIP3    H172631   1.584   1.866  13.231  0.2213  1.2690  0.6501
17072TIP3    H272632   1.646   1.792  13.347 -0.2131 -0.7618 -0.3698
17073TIP3   OH272633   0.323   5.612   2.539 -0.0812 -0.1731  0.4153
17073TIP3    H172634   0.247   5.554   2.547  0.7053 -1.4291 -0.7821
17073TIP3    H272635   0.286   5.700   2.541 -1.4319 -0.7239  1.1369
17074TIP3   OH272636   1.023   4.358  14.005 -0.1995 -0.4008 -0.4398
17074TIP3    H172637   1.047   4.332  13.916 -0.0674 -0.9007 -0.2609
17074TIP3    H272638   0.989   4.447  13.995 -1.3772 -0.9078 -1.1730
17075TIP3   OH272639   2.514   0.274  11.587 -0.5031  0.0786 -0.1110
17075TIP3    H172640   2.478   0.355  11.626  0.8087  1.3602 -1.4377
17075TIP3    H272641   2.440   0.214  11.586 -0.7635  0.0983  3.8174
17076TIP3   OH272642   0.927   3.073  14.930 -0.6301 -0.0898 -0.6436
17076TIP3    H172643   0.838   3.073  14.894 -0.5512  1.8727 -0.9710
17076TIP3    H272644   0.982   3.044  14.857 -0.9819 -1.2519 -0.4599
17077TIP3   OH272645   5.813   4.083  13.632  0.4788 -0.3728 -0.1936
17077TIP3    H172646   5.903   4.094  13.603  0.7920 -1.1913  0.4257
17077TIP3    H272647   5.794   3.990  13.617  0.0421 -0.4010  0.4998
17078TIP3   OH272648   5.803   4.885  11.343 -0.3602 -0.0280 -0.6811
17078TIP3    H172649   5.731   4.928  11.388 -0.5840 -0.7212 -0.3758
17078TIP3    H272650   5.848   4.836  11.411 -0.4410 -0.7241 -1.1246
17079TIP3   OH272651   3.500   6.376   5.501 -0.2051 -0.1224  0.2582
17079TIP3    H172652   3.442   6.423   5.561  0.5940  1.2279  0.0091
17079TIP3    H272653   3.582   6.425   5.502 -0.0081 -0.3183 -1.5771
17080TIP3   OH272654   1.220   3.185   4.663  0.4219 -0.1804  0.3639
17080TIP3    H172655   1.211   3.188   4.567  0.5544  0.9407  0.3691
17080TIP3    H272656   1.314   3.197   4.679  0.4860 -0.9649  0.6297
17081TIP3   OH272657   6.763   2.460  11.021 -0.3257 -0.1631  0.3919
17081TIP3    H172658   6.735   2.369  11.023  1.3700 -0.6920  1.0716
17081TIP3    H272659   6.796   2.473  10.932  0.4733 -0.5523  0.6253
17082TIP3   OH272660   1.106   2.680   5.755  1.7620 -0.4830 -0.2268
17082TIP3    H172661   1.018   2.711   5.733  0.7976 -2.7957  0.1411
17082TIP3    H272662   1.113   2.696   5.849  2.6451  1.7113 -0.6090
17083TIP3   OH272663   2.096   2.513   1.818  0.1705 -0.0292  0.3986
17083TIP3    H172664   2.181   2.480   1.848 -0.0214 -0.4268  0.5199
17083TIP3    H272665   2.049   2.535   1.898  0.5552  1.2224  0.2954
17084TIP3   OH272666   2.703   5.818   4.396 -0.0590  0.4287  0.4155
17084TIP3    H172667   2.768   5.814   4.465 -1.2086  0.6464  1.5580
17084TIP3    H272668   2.712   5.735   4.349  1.3751  0.6841  0.1999
17085TIP3   OH272669   3.936   2.828  11.549  0.2395 -0.2637  0.2893
17085TIP3    H172670   3.949   2.740  11.584  0.5627 -0.4339 -0.2426
17085TIP3    H272671   4.021   2.871  11.562  0.2759 -0.2394 -0.0247
17086TIP3   OH272672   3.880   6.482  13.890  0.7982  0.3608 -0.4169
17086TIP3    H172673   3.840   6.419  13.949  0.7435  0.3342 -0.4819
17086TIP3    H272674   3.832   6.564  13.904  1.8993  0.8330  0.8340
17087TIP3   OH272675   2.564   0.030   5.112  0.2173 -0.1129  0.0717
17087TIP3    H172676   2.562  -0.041   5.047  0.0963  0.8402 -0.9804
17087TIP3    H272677   2.619  -0.005   5.182  1.3708 -0.7027 -1.0807
17088TIP3   OH272678   4.251   3.181   0.110  0.1290  0.2433 -0.4375
17088TIP3    H172679   4.294   3.123   0.046 -0.9738 -0.0849 -0.9054
17088TIP3    H272680   4.229   3.259   0.060  1.5600  1.0831  0.1813
17089TIP3   OH272681   4.560   2.395   5.077  0.0885 -0.8233 -0.0526
17089TIP3    H172682   4.653   2.411   5.087 -0.1781  1.3590 -0.6481
17089TIP3    H272683   4.552   2.349   4.994  0.5933 -0.6402 -0.2014
17090TIP3   OH272684   5.815   1.712   3.967  0.4951 -0.6424 -0.4028
17090TIP3    H172685   5.819   1.669   3.882  0.9073 -1.4616  0.0132
17090TIP3    H272686   5.884   1.670   4.018 -0.0998 -0.5482  0.5043
17091TIP3   OH272687   6.576   1.506  13.750  0.2205  0.8736 -0.3672
17091TIP3    H172688   6.618   1.509  13.836  0.1643  0.2661 -0.3118
17091TIP3    H272689   6.617   1.431  13.706  0.1595  1.1016 -0.8258
17092TIP3   OH272690   5.963   4.288   5.758  0.6937 -0.3720 -0.0439
17092TIP3    H172691   6.010   4.271   5.677  0.9613  0.1648 -0.0042
17092TIP3    H272692   5.891   4.346   5.733  1.9532  1.4697  0.4089
17093TIP3   OH272693   1.453   0.281   3.802  0.0635 -0.3587 -0.3023
17093TIP3    H172694   1.512   0.210   3.827  0.6712  0.5983  1.1340
17093TIP3    H272695   1.505   0.360   3.816 -0.7431  0.4030 -1.4544
17094TIP3   OH272696   5.710   5.216  14.832  0.0959  0.1089  0.0728
17094TIP3    H172697   5.741   5.204  14.742  1.8176 -0.0521  0.6428
17094TIP3    H272698   5.723   5.130  14.872 -1.9884 -0.2307  0.1483
17095TIP3   OH272699   4.839   4.866   2.235  0.2919  0.8924  0.7394
17095TIP3    H172700   4.872   4.863   2.324 -0.6086 -1.5343  1.0709
17095TIP3    H272701   4.917   4.859   2.180  0.7861  1.5548  1.3503
17096TIP3   OH272702   4.164   5.297   0.851  0.2628  0.2678  0.3800
17096TIP3    H172703   4.152   5.391   0.838 -0.4792 -0.1490 -2.5499
17096TIP3    H272704   4.075   5.260   0.848  0.7219 -0.7935 -1.4832
17097TIP3   OH272705   1.785   2.960  12.422 -0.0379  0.0910  0.0347
17097TIP3    H172706   1.803   2.964  12.328 -0.1021  1.6742  0.0654
17097TIP3    H272707   1.747   3.045  12.443 -3.7731 -1.5626  0.7557
17098TIP3   OH272708   0.045   5.666   1.616 -1.0221  0.3691  0.2941
17098TIP3    H172709   0.045   5.651   1.521  0.2147 -1.9792  0.5975
17098TIP3    H272710   0.028   5.760   1.625  0.4940  1.0015 -2.3182
17099TIP3   OH272711   0.754   0.630   4.484 -0.0645 -0.8285  0.0380
17099TIP3    H172712   0.719   0.560   4.429 -0.9024 -0.5264  0.1873
17099TIP3    H272713   0.766   0.704   4.425  0.4803 -0.9757 -0.0443
17100TIP3   OH272714   4.387   0.165  16.271 -0.3151 -0.4530  0.0414
17100TIP3    H172715   4.445   0.090  16.261 -0.2736 -0.3998 -0.1212
17100TIP3    H272716   4.319   0.135  16.332 -1.0504 -1.0645 -1.0531
17101TIP3   OH272717   6.600   3.796   0.162 -0.2255  0.1709 -0.2769
17101TIP3    H172718   6.660   3.744   0.109  2.4162  2.2860  0.4309
17101TIP3    H272719   6.529   3.819   0.102  0.2532 -1.4069 -1.5059
17102TIP3   OH272720   2.770   3.931  11.953 -0.0221  0.8107  0.2588
17102TIP3    H172721   2.755   3.916  11.860  0.5331 -0.2228  0.3187
17102TIP3    H272722   2.687   3.908  11.995  0.6244 -1.8000  0.2878
17103TIP3   OH272723   0.940   1.424   1.012  0.4324  0.6580 -0.2876
17103TIP3    H172724   0.998   1.367   1.063 -0.7884  0.3872  0.8660
17103TIP3    H272725   0.900   1.482   1.077 -0.9767  0.4764 -0.9581
17104TIP3   OH272726   1.059   6.550  12.440  0.1954 -0.0801 -0.3138
17104TIP3    H172727   1.106   6.487  12.494 -0.7532 -1.3707 -0.9237
17104TIP3    H272728   1.019   6.611  12.503  1.0241 -0.1569  0.2933
17105TIP3   OH272729   3.237   4.201  12.781 -1.1901  0.1437  0.5401
17105TIP3    H172730   3.256   4.116  12.822 -1.0713 -0.2411 -0.3089
17105TIP3    H272731   3.151   4.189  12.740 -0.0111 -0.4488 -1.9030
17106TIP3   OH272732   3.895   5.372  17.034  0.5143  0.3733  0.4867
17106TIP3    H172733   3.904   5.442  17.098  2.2237  1.0014 -0.3815
17106TIP3    H272734   3.920   5.412  16.951  3.3461 -1.6294  0.2134
17107TIP3   OH272735   2.175   3.559   3.780 -0.4798  0.8472 -1.0322
17107TIP3    H172736   2.137   3.645   3.759  2.2582  1.7926 -2.6049
17107TIP3    H272737   2.249   3.550   3.720  0.6437 -1.6795  0.5649
17108TIP3   OH272738   2.850   6.769   5.030 -0.1788 -0.0102 -0.0298
17108TIP3    H172739   2.939   6.749   5.058  0.5536  0.3700 -1.9313
17108TIP3    H272740   2.802   6.788   5.111  1.2556 -0.9754  1.0827
17109TIP3   OH272741   5.471   5.769  13.335  0.0499  0.5265  0.1571
17109TIP3    H172742   5.420   5.836  13.292  0.8162  0.7026 -0.5070
17109TIP3    H272743   5.557   5.809  13.350  1.0543 -0.7750 -1.6945
17110TIP3   OH272744   1.882   5.152   4.926  0.4508  0.5860 -0.0884
17110TIP3    H172745   1.930   5.167   5.008 -1.2197  2.1467  0.6991
17110TIP3    H272746   1.876   5.239   4.887  0.2891  0.0221 -1.3366
17111TIP3   OH272747   2.627   5.243  11.912 -0.4266 -0.1315  0.0433
17111TIP3    H172748   2.669   5.328  11.925 -2.3095  1.2536 -2.1097
17111TIP3    H272749   2.565   5.235  11.984 -0.7838  0.7019 -0.1655
17112TIP3   OH272750   1.185   2.317  13.732  0.5835 -0.0365 -0.1301
17112TIP3    H172751   1.217   2.399  13.695  0.8588  1.5440  3.2401
17112TIP3    H272752   1.241   2.250  13.693  1.6068  1.5627 -1.5800
17113TIP3   OH272753   6.641   0.758   1.157 -0.4223  0.1413  0.1799
17113TIP3    H172754   6.694   0.691   1.199 -0.4628 -0.7062 -1.0513
17113TIP3    H272755   6.702   0.805   1.099 -0.3005  1.4782  1.3472
17114TIP3   OH272756   0.089   3.487  15.249  0.2494  0.7120  0.0412
17114TIP3    H172757   0.118   3.498  15.339  0.0874  1.7616 -0.0243
17114TIP3    H272758   0.130   3.559  15.201 -0.2955  0.6332 -0.5646
17115TIP3   OH272759   4.389   6.325  15.082 -0.3968 -0.0511 -0.0086
17115TIP3    H172760   4.479   6.293  15.070 -0.6904 -1.4417  1.2784
17115TIP3    H272761   4.334   6.250  15.057 -1.1772  0.3998  0.3484
17116TIP3   OH272762   1.966   2.566  11.683  0.2719 -0.5456  0.6512
17116TIP3    H172763   2.040   2.606  11.637  0.1127 -0.4181  0.5041
17116TIP3    H272764   1.987   2.577  11.776 -0.3812  1.0932  0.6505
17117TIP3   OH272765   6.541   5.774  15.591  0.4470  0.6002  0.2803
17117TIP3    H172766   6.490   5.713  15.538  1.2916  0.7065 -0.6688
17117TIP3    H272767   6.477   5.839  15.620 -0.0292  0.5242 -0.5724
17118TIP3   OH272768   0.984   2.441   3.944  0.1397 -0.4884 -0.1987
17118TIP3    H172769   0.914   2.440   3.878  0.0419 -0.1448 -0.1007
17118TIP3    H272770   0.942   2.410   4.024  0.4815 -1.8069 -0.5140
17119TIP3   OH272771   1.979   4.504  11.926  0.5578  0.0413  0.2309
17119TIP3    H172772   1.964   4.464  11.841  2.1903  0.2894 -0.2044
17119TIP3    H272773   1.892   4.514  11.964 -0.5310  2.6214 -2.6092
17120TIP3   OH272774   0.042   3.392   3.541  0.1847  0.4900  0.1440
17120TIP3    H172775   0.076   3.432   3.461  0.0868 -0.9637 -0.6654
17120TIP3    H272776  -0.050   3.373   3.522  0.0354  0.5562  0.7733
17121TIP3   OH272777   0.041   3.483   4.369  0.1131 -0.4273  0.7455
17121TIP3    H172778  -0.031   3.420   4.376 -0.0905 -0.2867  0.0039
17121TIP3    H272779   0.112   3.433   4.328  0.4891 -0.6014  1.5938
17122TIP3   OH272780   4.090   2.923   3.179  0.4504 -0.1074 -0.4526
17122TIP3    H172781   4.140   2.975   3.242  2.0343 -0.1277 -1.6310
17122TIP3    H272782   4.148   2.851   3.156 -0.4536 -0.5954 -1.2790
17123TIP3   OH272783   2.060   4.106  15.131  0.5453  0.1114  0.3007
17123TIP3    H172784   2.151   4.100  15.162  1.0835 -1.7786 -1.4191
17123TIP3    H272785   2.008   4.070  15.204  1.4731 -1.3638  0.2809
17124TIP3   OH272786   0.111   1.673   1.106  0.1888  0.1447 -0.5500
17124TIP3    H172787   0.124   1.624   1.187 -2.2579 -1.0055 -0.7601
17124TIP3    H272788   0.128   1.610   1.037 -0.7116  0.2132 -0.8541
17125TIP3   OH272789   5.534   5.314   5.893 -0.1272 -0.3119 -0.4107
17125TIP3    H172790   5.533   5.365   5.974  1.1120 -1.3869  0.3223
17125TIP3    H272791   5.582   5.234   5.916  0.7402 -0.3935 -2.3416
17126TIP3   OH272792   6.527   5.620  15.165  0.0176 -0.2890  0.1730
17126TIP3    H172793   6.571   5.536  15.152 -0.6803 -0.9884  2.0178
17126TIP3    H272794   6.589   5.685  15.133  0.4287 -1.5031 -1.6164
17127TIP3   OH272795   1.352   5.660   5.967  0.4367  0.4297  0.0938
17127TIP3    H172796   1.281   5.719   5.992  1.8269  2.2752 -0.0755
17127TIP3    H272797   1.425   5.684   6.024  1.2820 -0.6470 -0.4776
17128TIP3   OH272798   2.328   4.468  14.963  0.0611 -0.3859  0.1862
17128TIP3    H172799   2.275   4.504  15.035 -1.5504 -3.7517  0.8980
17128TIP3    H272800   2.324   4.535  14.895 -2.4964  0.8958  1.4313
17129TIP3   OH272801   6.449   6.227   0.223 -0.0474  0.6063  0.0936
17129TIP3    H172802   6.512   6.262   0.286  1.0343 -0.4955 -0.3366
17129TIP3    H272803   6.459   6.283   0.146 -1.6945  2.2388  1.0017
17130TIP3   OH272804   3.449   6.747  12.746 -0.0844 -0.3543  0.1005
17130TIP3    H172805   3.463   6.810  12.816  0.6747 -1.2394  0.7747
17130TIP3    H272806   3.370   6.699  12.773 -0.4964  0.1028 -0.2704
17131TIP3   OH272807   4.251   0.068  10.633 -0.0159  0.6967 -0.0728
17131TIP3    H172808   4.193  -0.001  10.665  0.4976  0.4327  0.3039
17131TIP3    H272809   4.195   0.123  10.577 -0.8435  0.9647  0.9955
17132TIP3   OH272810   5.243   1.988  12.360  0.0508 -0.4687  0.2051
17132TIP3    H172811   5.231   2.001  12.454  1.5172 -0.2183  0.3880
17132TIP3    H272812   5.310   2.052  12.336 -0.9462  0.0849 -1.2060
17133TIP3   OH272813   2.756   2.485   2.709  0.2893 -0.2431 -0.2436
17133TIP3    H172814   2.831   2.535   2.741  0.8416 -1.0287 -0.2885
17133TIP3    H272815   2.719   2.444   2.786  1.2785 -1.6766 -0.4991
17134TIP3   OH272816   1.722   5.627   4.237  0.5985  0.6373  0.6197
17134TIP3    H172817   1.741   5.618   4.331 -0.8767  0.3822  0.9338
17134TIP3    H272818   1.626   5.627   4.233  0.6428  0.1419 -0.9434
17135TIP3   OH272819   2.016   0.307  16.415  0.6316  0.5839 -0.3102
17135TIP3    H172820   2.012   0.287  16.508  2.2270  0.3625 -0.2646
17135TIP3    H272821   1.981   0.396  16.408  0.9805  0.8001  0.5671
17136TIP3   OH272822   0.356   3.999   4.003  0.5108 -0.0284  0.0157
17136TIP3    H172823   0.319   3.964   4.084  0.0042  1.5184  0.4830
17136TIP3    H272824   0.291   3.977   3.936  1.3738 -2.1684 -0.2056
17137TIP3   OH272825   2.525   1.334   3.785 -0.0172 -0.4743 -0.2021
17137TIP3    H172826   2.439   1.293   3.786 -0.2956  0.0472 -1.2081
17137TIP3    H272827   2.578   1.278   3.728 -0.2059  0.1596 -1.0232
17138TIP3   OH272828   4.439   2.716  16.604  0.0221 -0.5366  0.3155
17138TIP3    H172829   4.383   2.658  16.553  0.6220 -0.4545 -0.4558
17138TIP3    H272830   4.451   2.670  16.687 -1.2005 -0.5362  0.5144
17139TIP3   OH272831   3.592   1.823  16.679 -0.4487 -0.0539  0.1625
17139TIP3    H172832   3.525   1.882  16.645  0.7370  2.0077  1.2084
17139TIP3    H272833   3.554   1.789  16.761 -0.4093  0.7806  0.5382
17140TIP3   OH272834   5.959   4.638   5.959  1.3557 -0.1450 -0.0587
17140TIP3    H172835   6.026   4.596   6.013  0.5181 -1.0897  0.2900
17140TIP3    H272836   5.980   4.731   5.962  1.0901 -0.1075  2.2742
17141TIP3   OH272837   2.206   5.848  13.448 -0.1639  0.2366 -0.6035
17141TIP3    H172838   2.287   5.798  13.435 -0.0615  0.8354 -2.5499
17141TIP3    H272839   2.232   5.921  13.503  0.5417  0.2238 -0.9141
17142TIP3   OH272840   1.591   0.327  16.590 -0.6026  0.2046  0.4522
17142TIP3    H172841   1.561   0.264  16.524 -0.1796  1.4123 -0.9350
17142TIP3    H272842   1.555   0.293  16.672 -1.3107 -1.2435 -0.3978
17143TIP3   OH272843   0.624   2.239   4.509  0.3340 -0.1974 -0.4253
17143TIP3    H172844   0.651   2.150   4.487 -1.6162 -1.1453  0.7312
17143TIP3    H272845   0.700   2.293   4.490  1.4125 -2.0374 -1.6174
17144TIP3   OH272846   5.448   2.589  14.008 -0.2723  0.2303  0.3027
17144TIP3    H172847   5.543   2.598  13.994 -0.2066  0.6122  0.9853
17144TIP3    H272848   5.440   2.560  14.099 -0.8527  1.1355  0.5536
17145TIP3   OH272849   2.196   1.563   3.528  0.4300 -0.5291 -0.0372
17145TIP3    H172850   2.216   1.469   3.527 -1.4158 -0.9950  1.4155
17145TIP3    H272851   2.240   1.596   3.607  0.2207 -0.3900  0.0226
17146TIP3   OH272852   2.020   0.633  13.812 -0.0636  0.3623  0.1852
17146TIP3    H172853   1.935   0.668  13.836  0.5895  1.6668  0.7020
17146TIP3    H272854   2.003   0.542  13.788 -1.6219  0.6600  0.0714
17147TIP3   OH272855   2.466   0.316   4.497  0.2428  0.0724  0.6341
17147TIP3    H172856   2.447   0.248   4.433 -0.1266  0.3920  0.3979
17147TIP3    H272857   2.385   0.367   4.504  1.0900  1.7384 -0.7428
17148TIP3   OH272858   4.525   1.222   5.950 -0.3506 -0.2412 -0.5572
17148TIP3    H172859   4.524   1.244   6.043 -0.8407  1.5447 -0.9555
17148TIP3    H272860   4.441   1.179   5.934  0.3764 -1.9868  0.1160
17149TIP3   OH272861   2.619   0.480  16.387 -0.2428 -0.2170 -0.1963
17149TIP3    H172862   2.604   0.386  16.388  0.1184 -0.2744  0.8010
17149TIP3    H272863   2.534   0.519  16.405 -0.4635 -0.3277 -0.9472
17150TIP3   OH272864   0.715   1.093  11.542 -0.3262 -0.1582 -0.3692
17150TIP3    H172865   0.767   1.151  11.597 -0.0382 -0.3127 -0.4799
17150TIP3    H272866   0.716   1.134  11.456 -0.0612 -0.3645 -0.4654
17151TIP3   OH272867   1.674   4.605   0.870 -0.6493 -0.0728 -0.7763
17151TIP3    H172868   1.725   4.685   0.866  0.5923 -0.5283  2.6865
17151TIP3    H272869   1.597   4.628   0.923 -1.9174 -0.4815 -2.3391
17152TIP3   OH272870   1.113   1.453  12.345 -0.2614  0.3318 -0.1385
17152TIP3    H172871   1.119   1.360  12.369  1.9242  0.1862 -0.9846
17152TIP3    H272872   1.194   1.470  12.297 -0.3304  2.8296  0.5079
17153TIP3   OH272873   6.270   2.008  11.743  0.1101 -0.1418  0.7321
17153TIP3    H172874   6.285   1.969  11.657  2.1983  0.2140  0.8788
17153TIP3    H272875   6.184   2.051  11.736 -1.4448 -3.1159  0.0192
17154TIP3   OH272876   5.147   6.496  13.802 -0.7073 -0.0294 -0.1603
17154TIP3    H172877   5.225   6.528  13.756 -1.0171  0.8490 -0.0836
17154TIP3    H272878   5.094   6.456  13.733 -0.4925 -0.0499 -0.3161
17155TIP3   OH272879   6.264   0.616  17.221  0.0235 -0.1913  0.2822
17155TIP3    H172880   6.215   0.681  17.271 -0.5601 -1.4541  1.4334
17155TIP3    H272881   6.353   0.620  17.256 -0.0698 -0.1722  0.5177
17156TIP3   OH272882   3.154   2.883  13.429  0.3387  0.0946  0.4649
17156TIP3    H172883   3.144   2.788  13.421  0.2830  0.1011  0.4554
17156TIP3    H272884   3.235   2.895  13.478  1.6502  0.1017 -1.5997
17157TIP3   OH272885   0.434   1.282  16.454  0.5559  0.0648 -0.6288
17157TIP3    H172886   0.458   1.330  16.374  1.0174  0.8031 -0.0675
17157TIP3    H272887   0.398   1.349  16.512  1.4835 -0.1941  0.2894
17158TIP3   OH272888   4.263   5.992   2.126 -0.2971  0.2019 -0.1797
17158TIP3    H172889   4.307   6.075   2.113 -2.2102  1.2369 -0.3769
17158TIP3    H272890   4.234   5.965   2.039 -0.3356 -0.3052 -0.0171
17159TIP3   OH272891   1.601   0.658  15.080  0.5063 -0.0958  0.0534
17159TIP3    H172892   1.623   0.578  15.127 -1.0157 -0.1158  0.7900
17159TIP3    H272893   1.555   0.629  15.001  0.8589  0.0268 -0.2006
17160TIP3   OH272894   1.579   3.716   2.316  0.3332 -0.0425 -0.8251
17160TIP3    H172895   1.609   3.795   2.361 -0.6390  0.1151 -0.4316
17160TIP3    H272896   1.502   3.689   2.365  0.2670 -0.8567 -1.3714
17161TIP3   OH272897   1.936   5.290  14.456  0.3422 -0.0915  0.1570
17161TIP3    H172898   1.914   5.258  14.543  0.7696 -0.3697  0.1663
17161TIP3    H272899   2.021   5.250  14.436  0.0162 -0.4489 -0.5886
17162TIP3   OH272900   0.407   4.159   0.923 -0.4299  0.4387  0.1305
17162TIP3    H172901   0.424   4.066   0.908  0.1635  0.1188  2.3382
17162TIP3    H272902   0.311   4.165   0.931 -0.6242  0.3741 -1.8168
17163TIP3   OH272903   1.440   0.735   5.935 -0.0943 -0.4649  0.6546
17163TIP3    H172904   1.475   0.820   5.906  0.0582 -0.6144  0.3957
17163TIP3    H272905   1.395   0.755   6.018 -0.2935 -0.0835  0.4588
17164TIP3   OH272906   4.896   2.883   1.259  0.4782  0.3756  0.6254
17164TIP3    H172907   4.960   2.896   1.189 -0.9550 -1.3574 -1.1187
17164TIP3    H272908   4.940   2.823   1.320  0.9966  0.2687  0.1615
17165TIP3   OH272909   2.516   0.071   5.837  0.6924  0.1869 -0.0222
17165TIP3    H172910   2.575   0.080   5.912  0.2375  0.7274  0.2750
17165TIP3    H272911   2.562   0.115   5.766  0.3478  1.2192  0.3813
17166TIP3   OH272912   5.081   5.432   0.233  0.0809 -0.0666  0.3562
17166TIP3    H172913   5.092   5.497   0.164  0.6319 -0.9758 -0.4277
17166TIP3    H272914   5.131   5.356   0.204  2.3320  0.3292  2.8263
17167TIP3   OH272915   5.498   0.774  11.421  0.1389  0.0643  0.1571
17167TIP3    H172916   5.578   0.721  11.431  0.9433  1.3021  0.5155
17167TIP3    H272917   5.530   0.863  11.409 -1.2136  0.6633  0.8241
17168TIP3   OH272918   1.628   6.523  15.112  0.5081  0.0363 -0.2997
17168TIP3    H172919   1.691   6.576  15.161 -0.2637 -0.1263  0.9194
17168TIP3    H272920   1.586   6.586  15.053  0.8681  0.4205 -0.1538
17169TIP3   OH272921   4.275   2.400   3.881 -0.0605 -0.5694  0.4689
17169TIP3    H172922   4.180   2.386   3.887 -0.2403  0.7100  1.0641
17169TIP3    H272923   4.305   2.395   3.972  0.1432  0.8036  0.4963
17170TIP3   OH272924   6.596   1.439   5.916  0.1867  0.7676 -0.1195
17170TIP3    H172925   6.657   1.396   5.976 -0.9555  0.6419  0.9725
17170TIP3    H272926   6.514   1.391   5.927 -0.4408  1.6866 -0.6998
17171TIP3   OH272927   4.045   4.700   1.322 -0.1113 -0.8519  0.8998
17171TIP3    H172928   4.114   4.679   1.385  0.2802 -1.3294  0.3253
17171TIP3    H272929   4.079   4.671   1.238  0.3330  1.8269  0.0683
17172TIP3   OH272930   3.960   4.388   6.233  0.3485  0.0609  0.3268
17172TIP3    H172931   4.032   4.408   6.292  0.7972 -0.2648 -0.1063
17172TIP3    H272932   3.954   4.293   6.233 -1.4188  0.1015  1.9450
17173TIP3   OH272933   4.709   6.063   0.779 -0.2848  0.2522 -0.1452
17173TIP3    H172934   4.798   6.029   0.772  0.3486  1.3510  1.8191
17173TIP3    H272935   4.660   5.996   0.826  0.2570  0.8075  1.2625
17174TIP3   OH272936   0.557   2.819   5.352 -0.4906  0.2566 -0.6856
17174TIP3    H172937   0.645   2.800   5.384 -0.5544  1.1472  0.0335
17174TIP3    H272938   0.504   2.828   5.431 -0.7575  1.9920 -1.0379
17175TIP3   OH272939   4.238   5.467  16.194 -0.4167  0.1921  0.2133
17175TIP3    H172940   4.326   5.429  16.187 -0.5550 -0.0888 -0.0247
17175TIP3    H272941   4.243   5.548  16.144 -0.0830  0.5626  0.8289
17176TIP3   OH272942   0.742   2.598   2.142 -0.1047 -0.6729 -0.0463
17176TIP3    H172943   0.714   2.672   2.088  0.1333 -0.0420  0.6830
17176TIP3    H272944   0.667   2.579   2.198  0.3244 -0.0670  0.7444
17177TIP3   OH272945   2.931   4.529   4.786  0.0804 -0.5206  0.4150
17177TIP3    H172946   3.010   4.512   4.838  0.4034 -2.0529 -0.4855
17177TIP3    H272947   2.930   4.458   4.721 -0.8748  0.7061 -0.9823
17178TIP3   OH272948   5.852   0.385  10.745  0.1657 -0.4555  0.2715
17178TIP3    H172949   5.871   0.478  10.756  1.6676 -0.7670  0.6495
17178TIP3    H272950   5.794   0.381  10.669 -0.1304  0.7970  0.4112
17179TIP3   OH272951   0.054   0.594  13.999 -0.2412 -0.5396  0.0005
17179TIP3    H172952   0.000   0.614  14.075  1.3232 -0.4019  1.1126
17179TIP3    H272953   0.010   0.638  13.926 -1.5295 -0.3030  0.8877
17180TIP3   OH272954   4.320   4.385   1.824 -0.3431  0.6493 -0.4194
17180TIP3    H172955   4.375   4.352   1.753  0.5426 -0.6451  0.8057
17180TIP3    H272956   4.334   4.480   1.822 -0.2342  0.6248 -1.8647
17181TIP3   OH272957   4.325   0.718   0.986 -0.2444  0.0358  0.0222
17181TIP3    H172958   4.402   0.667   1.014 -0.2436  0.0976  0.1339
17181TIP3    H272959   4.290   0.754   1.068 -0.5616 -0.2294  0.0042
17182TIP3   OH272960   1.152   5.788  16.739 -0.6463  0.1725  0.2921
17182TIP3    H172961   1.063   5.777  16.773 -0.8295  0.7618  0.0223
17182TIP3    H272962   1.193   5.703  16.750 -0.6249  0.3888  2.2036
17183TIP3   OH272963   3.840   4.484  11.691 -0.0042  0.0874 -0.0178
17183TIP3    H172964   3.854   4.476  11.597  1.3249 -1.3073  0.2486
17183TIP3    H272965   3.771   4.421  11.711  0.6838 -0.6336  0.1212
17184TIP3   OH272966   1.617   1.375   4.450 -0.1801 -0.5599  0.4008
17184TIP3    H172967   1.702   1.416   4.461 -0.3322  0.3563 -1.3318
17184TIP3    H272968   1.554   1.443   4.477 -0.3831 -0.9645  0.9633
17185TIP3   OH272969   6.219   1.043   3.123 -0.0810  0.6565  0.0135
17185TIP3    H172970   6.297   1.019   3.173 -1.5163 -1.2953  1.4717
17185TIP3    H272971   6.216   0.980   3.051  0.2005  1.3772 -0.6454
17186TIP3   OH272972   6.108   2.651  12.737  0.1173  0.4282 -0.2270
17186TIP3    H172973   6.121   2.746  12.733  0.1666  0.4220 -0.2167
17186TIP3    H272974   6.054   2.638  12.815  1.3288  0.3206  0.6231
17187TIP3   OH272975   4.144   2.313  14.439 -0.2590  0.5257 -0.1183
17187TIP3    H172976   4.127   2.406  14.425 -1.2350  0.2511 -0.8847
17187TIP3    H272977   4.087   2.269  14.376 -0.5166 -0.6239  0.8876
17188TIP3   OH272978   0.963   3.373   1.148  0.1340 -0.7206  0.0558
17188TIP3    H172979   0.964   3.278   1.145  0.3089 -0.8436  2.1365
17188TIP3    H272980   1.001   3.394   1.234 -1.4697  1.1526  0.3719
17189TIP3   OH272981   1.122   0.896   5.837  0.0416 -0.7141  0.2988
17189TIP3    H172982   1.199   0.941   5.872 -0.5661  1.9772 -1.5126
17189TIP3    H272983   1.054   0.912   5.902  0.9155 -3.2692  2.0063
17190TIP3   OH272984   2.208   3.830   5.024 -0.7425 -0.0690 -0.1675
17190TIP3    H172985   2.240   3.744   5.049  2.0006  0.9953  0.3595
17190TIP3    H272986   2.255   3.851   4.943 -1.1352  1.0291 -0.1356
17191TIP3   OH272987   1.239   5.077  14.516  0.0841  0.2533  0.0859
17191TIP3    H172988   1.192   5.046  14.594  0.9276 -1.1050  0.0945
17191TIP3    H272989   1.296   5.004  14.492 -1.1991  0.0186 -2.7087
17192TIP3   OH272990   1.768   5.402   2.642  0.1588  0.3052 -0.1986
17192TIP3    H172991   1.792   5.493   2.624  0.1827  0.5930  1.1648
17192TIP3    H272992   1.844   5.351   2.614 -0.9289  0.3388 -3.7138
17193TIP3   OH272993   6.355   6.517   4.780 -0.1670 -0.0006 -0.3915
17193TIP3    H172994   6.409   6.466   4.720 -0.5650  1.9492 -2.5090
17193TIP3    H272995   6.418   6.563   4.836  0.1968 -2.0968  1.0497
17194TIP3   OH272996   4.545   2.962  14.148 -0.3867  0.5139 -0.3369
17194TIP3    H172997   4.629   2.994  14.115  0.3156 -0.7324  0.1775
17194TIP3    H272998   4.556   2.957  14.243 -1.4684  1.4776 -0.1332
17195TIP3   OH272999   5.879   4.133   5.418  0.3581  0.1386  0.0205
17195TIP3    H173000   5.911   4.058   5.368 -2.9636 -0.7948 -0.9713
17195TIP3    H273001   5.890   4.207   5.358 -1.0415 -0.5047 -1.1068
17196TIP3   OH273002   6.619   0.785  11.472  0.2203  0.6602  0.3593
17196TIP3    H173003   6.541   0.839  11.482  0.4045  1.0302 -0.1616
17196TIP3    H273004   6.681   0.841  11.426  0.2063 -0.2066 -0.7351
17197TIP3   OH273005   6.289   0.472  14.539  0.0182 -0.2639 -0.1792
17197TIP3    H173006   6.314   0.544  14.598  0.4830  0.2111 -0.9398
17197TIP3    H273007   6.332   0.395  14.576  0.3040  0.0261  0.1034
17198TIP3   OH273008   3.761   2.654   3.947  0.4013  0.2587  0.1140
17198TIP3    H173009   3.788   2.659   3.856  1.4455 -0.7805  0.3475
17198TIP3    H273010   3.836   2.687   3.997  0.0138  0.3999  0.6159
17199TIP3   OH273011   3.704   0.658  11.380 -0.3618  0.3031  0.1937
17199TIP3    H173012   3.775   0.601  11.410  1.7257  1.9081 -1.3557
17199TIP3    H273013   3.748   0.737  11.351 -2.8249  1.3504 -0.9659
17200TIP3   OH273014   1.193   0.618  13.285 -0.0371 -0.1671  0.6132
17200TIP3    H173015   1.246   0.658  13.354  0.6043 -1.2497  0.7775
17200TIP3    H273016   1.221   0.526  13.284  0.8554  0.0715 -1.9107
17201TIP3   OH273017   3.834   2.162  13.683  0.5698 -0.3427 -0.1594
17201TIP3    H173018   3.812   2.252  13.658  0.3058 -0.0285  1.1476
17201TIP3    H273019   3.887   2.129  13.611  1.6051  1.2387 -0.1517
17202TIP3   OH273020   3.791   4.397   1.335 -0.3269  0.1421  0.4570
17202TIP3    H173021   3.745   4.323   1.294  0.2026  0.5790 -0.9701
17202TIP3    H273022   3.880   4.392   1.301 -0.2499  1.3620  0.4552
17203TIP3   OH273023   4.558   3.799  17.002 -0.0750  0.1489  0.2089
17203TIP3    H173024   4.602   3.773  16.921 -0.1866  2.0682 -0.5193
17203TIP3    H273025   4.598   3.883  17.024 -1.0665  0.3296  1.3694
17204TIP3   OH273026   4.899   0.933   0.978 -0.1170  0.3483 -0.4419
17204TIP3    H173027   4.831   0.922   0.912 -0.8455 -0.6618  0.4486
17204TIP3    H273028   4.852   0.944   1.061  0.7817  1.3643 -0.0271
17205TIP3   OH273029   1.983   4.657  16.713  0.4785 -0.0358 -0.2572
17205TIP3    H173030   2.016   4.585  16.659  2.1508 -0.0361  0.7072
17205TIP3    H273031   1.973   4.730  16.652 -0.6394 -0.8700 -1.1219
17206TIP3   OH273032   1.992   1.279  15.434  0.1377  0.5998 -0.1797
17206TIP3    H173033   2.035   1.222  15.497 -1.4660 -2.4781 -1.6283
17206TIP3    H273034   2.064   1.321  15.387  1.5957 -1.9219 -0.4191
17207TIP3   OH273035   4.491   6.012   3.296 -0.1587  0.0046 -0.2620
17207TIP3    H173036   4.475   6.031   3.203  0.8714  1.6824 -0.1409
17207TIP3    H273037   4.541   6.087   3.327 -2.1167  0.4393  2.1574
17208TIP3   OH273038   1.814   0.779  12.901  0.5546 -0.7027 -0.0987
17208TIP3    H173039   1.842   0.777  12.809  2.1052 -2.4450  0.3326
17208TIP3    H273040   1.865   0.850  12.940  0.1556 -0.1884 -0.5045
17209TIP3   OH273041   5.194   0.225  16.821 -0.7003 -0.0464  0.3461
17209TIP3    H173042   5.177   0.136  16.851 -0.7204 -0.3646 -0.5789
17209TIP3    H273043   5.211   0.216  16.727  1.7484  0.5955  0.6669
17210TIP3   OH273044   4.995   1.572  13.825  0.0574 -0.1179 -0.3495
17210TIP3    H173045   5.012   1.666  13.834  1.9005 -0.5815  1.7665
17210TIP3    H273046   4.936   1.551  13.898  0.6617 -0.8154 -0.0497
17211TIP3   OH273047   1.231   5.382   5.646  0.2525 -0.1478  0.0411
17211TIP3    H173048   1.257   5.408   5.557  0.8755 -0.2029  0.2063
17211TIP3    H273049   1.140   5.354   5.636  0.6545 -1.2582 -0.8180
17212TIP3   OH273050   3.456   6.248   4.868 -0.0578 -0.2548  0.5106
17212TIP3    H173051   3.521   6.276   4.933 -0.4484 -0.1555  0.8603
17212TIP3    H273052   3.383   6.309   4.879 -0.0048 -0.0511 -0.2296
17213TIP3   OH273053   0.055   4.369   1.502  0.2671  0.2417  0.1108
17213TIP3    H173054   0.122   4.310   1.466 -0.3542 -0.3689 -0.0621
17213TIP3    H273055  -0.015   4.369   1.436 -1.2193 -1.4555  1.5963
17214TIP3   OH273056   6.560   1.873   1.520 -0.0597  0.4992 -0.0418
17214TIP3    H173057   6.500   1.799   1.531 -0.8420  0.7971 -1.8561
17214TIP3    H273058   6.583   1.899   1.609 -2.1713 -0.0206  0.7266
17215TIP3   OH273059   4.075   0.753   4.786 -0.2217  0.0306 -0.9340
17215TIP3    H173060   3.997   0.809   4.785  0.0509  0.4074 -1.7158
17215TIP3    H273061   4.125   0.780   4.709 -0.0109 -1.1865 -1.2469
17216TIP3   OH273062   2.602   3.123   1.306 -0.1003 -0.1257 -0.1396
17216TIP3    H173063   2.624   3.171   1.227 -1.3521  0.6968 -0.0237
17216TIP3    H273064   2.682   3.122   1.357  0.2046  1.0331 -0.5666
17217TIP3   OH273065   5.349   1.690  12.665  0.4228  0.2899 -0.6941
17217TIP3    H173066   5.425   1.724  12.618  0.7650 -0.8732 -1.0168
17217TIP3    H273067   5.275   1.736  12.625  0.8282  0.3527 -1.4009
17218TIP3   OH273068   1.365   4.555  17.132  0.6784 -0.4692  0.2897
17218TIP3    H173069   1.441   4.573  17.187  0.2471  1.8230  0.2023
17218TIP3    H273070   1.301   4.514  17.191  1.1132 -0.2391  0.9234
17219TIP3   OH273071   2.112   3.006  14.109 -0.5495  0.3372 -0.1414
17219TIP3    H173072   2.122   2.915  14.137  0.7225  0.4036 -0.3274
17219TIP3    H273073   2.149   3.008  14.020  1.7592  1.4978  0.7558
17220TIP3   OH273074   4.589   5.834   0.871 -0.2245 -0.5034  0.0993
17220TIP3    H173075   4.551   5.858   0.955 -1.1651 -0.6027 -0.2769
17220TIP3    H273076   4.638   5.754   0.888  1.7298  0.8227  1.0596
17221TIP3   OH273077   1.667   4.258   2.788 -0.2643 -0.7021 -0.4534
17221TIP3    H173078   1.633   4.341   2.756 -0.2415  0.6682  2.7288
17221TIP3    H273079   1.730   4.230   2.721 -0.4142  1.7340 -1.7025
17222TIP3   OH273080   0.357   5.375  17.114 -0.3273  0.1808  0.1688
17222TIP3    H173081   0.446   5.374  17.149  0.4355  0.9091 -1.6461
17222TIP3    H273082   0.310   5.435  17.172  0.4689  0.1581  0.8645
17223TIP3   OH273083   4.815   3.577  12.510  0.1002 -0.4662 -0.3993
17223TIP3    H173084   4.768   3.552  12.590 -1.4677  2.0137 -0.4350
17223TIP3    H273085   4.751   3.567  12.440  0.6663 -0.1782 -0.9740
17224TIP3   OH273086   1.852   4.895  10.615 -0.1493 -0.7852  0.1757
17224TIP3    H173087   1.910   4.894  10.691 -1.0216  1.1370  0.9148
17224TIP3    H273088   1.889   4.829  10.556  0.3725 -2.5762  2.3750
17225TIP3   OH273089   4.194   4.921  13.547 -0.6068 -0.0761  0.4604
17225TIP3    H173090   4.161   5.006  13.577 -0.9503 -0.7736  2.1348
17225TIP3    H273091   4.269   4.903  13.604  1.1644  0.2776 -1.5934
17226TIP3   OH273092   0.469   3.445   1.791  0.3482 -0.4633 -0.4405
17226TIP3    H173093   0.457   3.354   1.764 -2.1182 -0.8410  1.6357
17226TIP3    H273094   0.468   3.443   1.886 -1.9008  1.8956 -0.2917
17227TIP3   OH273095   0.422   2.702   0.456 -0.9164  0.5494 -0.4705
17227TIP3    H173096   0.360   2.742   0.517 -1.2505  1.9478 -1.6782
17227TIP3    H273097   0.396   2.610   0.454 -1.0554  0.5160  1.2770
17228TIP3   OH273098   3.536   4.035  12.229 -0.2836  0.0503 -0.2352
17228TIP3    H173099   3.572   4.118  12.197 -0.4704 -0.0025 -0.5945
17228TIP3    H273100   3.587   4.015  12.307 -0.2617  0.5214 -0.1273
17229TIP3   OH273101   0.741   3.264  16.679  0.1568  0.0869  0.3275
17229TIP3    H173102   0.667   3.307  16.636  1.1972  0.7196 -0.8777
17229TIP3    H273103   0.742   3.301  16.768 -0.4340  0.7234  0.0772
17230TIP3   OH273104   5.850   1.256   2.838 -0.1012 -0.0746 -0.3413
17230TIP3    H173105   5.792   1.331   2.828 -1.2125 -0.8523  0.0344
17230TIP3    H273106   5.892   1.247   2.752 -1.0196  0.1300 -0.8365
17231TIP3   OH273107   4.000   0.528   4.633 -0.3174 -0.5136 -0.1388
17231TIP3    H173108   4.013   0.451   4.688 -1.2689 -1.0179 -0.5996
17231TIP3    H273109   3.969   0.596   4.693 -0.0262 -0.6527  0.1725
17232TIP3   OH273110   3.956   5.094   0.372  0.3288 -0.3350 -0.2484
17232TIP3    H173111   3.861   5.098   0.359  0.3480  1.5314 -0.1241
17232TIP3    H273112   3.993   5.112   0.286  0.5437  0.3367 -0.0239
17233TIP3   OH273113   6.652   4.183   0.176 -0.0870  0.0323  0.0009
17233TIP3    H173114   6.712   4.257   0.170  0.9311 -0.6195  1.6651
17233TIP3    H273115   6.566   4.221   0.154  0.1786  2.0515  1.9756
17234TIP3   OH273116   3.409   4.906   2.157 -0.1827 -0.0034  0.4581
17234TIP3    H173117   3.316   4.914   2.139 -0.4705 -1.0967  1.3411
17234TIP3    H273118   3.450   4.900   2.071 -0.4361  4.3919 -0.2181
17235TIP3   OH273119   2.543   2.351  14.467 -0.1001 -0.3406 -0.2587
17235TIP3    H173120   2.632   2.333  14.438 -0.2906 -1.3479 -0.2658
17235TIP3    H273121   2.551   2.428  14.524  0.5250  0.5905 -1.5438
17236TIP3   OH273122   5.506   4.232  13.939  0.4805  0.1258 -0.3442
17236TIP3    H173123   5.589   4.229  13.891 -0.2212 -0.8871 -1.5496
17236TIP3    H273124   5.470   4.144  13.930  1.5518 -1.0946  4.4031
17237TIP3   OH273125   6.007   4.905   4.783 -0.1906  0.4220  0.3653
17237TIP3    H173126   6.069   4.978   4.787  1.3783 -0.9045  2.5385
17237TIP3    H273127   6.007   4.879   4.691  1.4835  1.3335  0.0638
17238TIP3   OH273128   1.751   5.617  15.448  0.0923 -0.3618 -0.4480
17238TIP3    H173129   1.721   5.707  15.457  0.1974 -0.3758  0.0516
17238TIP3    H273130   1.803   5.617  15.367  1.5542  0.4301  0.4562
17239TIP3   OH273131   5.405   1.370  12.212 -0.2088  0.1505 -0.2554
17239TIP3    H173132   5.314   1.398  12.200 -1.0822 -1.9937  0.8576
17239TIP3    H273133   5.446   1.442  12.259 -1.6645  0.6510  0.3007
17240TIP3   OH273134   2.944   0.778  11.951  0.0743 -0.5660 -0.4634
17240TIP3    H173135   2.990   0.849  11.995  0.8780 -2.1791  1.4870
17240TIP3    H273136   2.851   0.801  11.956  0.2161 -0.3219  1.4495
17241TIP3   OH273137   0.517   5.545  14.920 -0.2123 -0.0337 -0.2575
17241TIP3    H173138   0.424   5.569  14.925 -0.0515  1.0177 -1.8045
17241TIP3    H273139   0.549   5.556  15.010 -1.3496  0.6287  0.0895
17242TIP3   OH273140   3.951   1.509   6.186  0.1312 -0.5888 -0.3134
17242TIP3    H173141   3.861   1.477   6.177 -1.0419  1.2879  3.0347
17242TIP3    H273142   3.991   1.449   6.249 -0.4969  1.2999  2.0618
17243TIP3   OH273143   1.706   1.350  14.746 -0.6459  0.3202  0.5162
17243TIP3    H173144   1.801   1.349  14.751 -0.6331  1.8279  0.8150
17243TIP3    H273145   1.677   1.301  14.823 -0.1271  0.8870  1.0778
17244TIP3   OH273146   3.055   3.826   5.861 -0.1941 -0.0443  0.1467
17244TIP3    H173147   3.078   3.772   5.785 -0.5211  0.5093 -0.3535
17244TIP3    H273148   3.070   3.769   5.936  1.2130 -0.2377 -0.2590
17245TIP3   OH273149   2.317   2.960   1.899 -0.5155  0.5505  0.2013
17245TIP3    H173150   2.377   2.890   1.871 -0.7860 -0.6410  2.3937
17245TIP3    H273151   2.265   2.979   1.821  0.6852 -0.5265 -0.9165
17246TIP3   OH273152   6.463   2.788   2.212  0.3686 -0.2340 -0.2334
17246TIP3    H173153   6.471   2.821   2.122 -0.1912  0.9444  0.1331
17246TIP3    H273154   6.456   2.866   2.266 -0.7267 -0.9488  0.7053
17247TIP3   OH273155   1.142   0.004   6.389 -0.0710 -0.3348 -0.2450
17247TIP3    H173156   1.085   0.080   6.389  2.0573  1.3645 -0.1106
17247TIP3    H273157   1.193   0.011   6.470  0.0023 -2.0707 -0.0965
17248TIP3   OH273158   6.201   6.766   4.634 -0.5144  0.3440  0.0723
17248TIP3    H173159   6.246   6.718   4.703 -0.8230 -0.0994 -0.0306
17248TIP3    H273160   6.199   6.857   4.665  0.8309  0.4640 -0.1215
17249TIP3   OH273161   3.634   1.027  11.199 -0.0355  0.3867  0.4452
17249TIP3    H173162   3.579   0.997  11.126 -0.9445  0.1559  1.2076
17249TIP3    H273163   3.681   1.102  11.164 -2.5208  2.0358  0.3739
17250TIP3   OH273164   4.786   0.704   3.735 -0.1686  0.8216 -0.0185
17250TIP3    H173165   4.788   0.609   3.726 -0.3314  0.8402 -0.2580
17250TIP3    H273166   4.694   0.727   3.729 -0.0107  1.1412 -1.5300
17251TIP3   OH273167   0.119   1.147   4.649 -0.2476  0.0886 -0.2012
17251TIP3    H173168   0.060   1.177   4.719  0.0468  0.1733  0.0109
17251TIP3    H273169   0.188   1.100   4.695  1.0734  1.9163 -0.2312
17252TIP3   OH273170   6.699   3.765  13.679 -1.0070  0.0697 -0.1589
17252TIP3    H173171   6.655   3.682  13.698 -0.2114  0.1187  2.1966
17252TIP3    H273172   6.639   3.832  13.710 -1.0554  0.3393 -0.8091
17253TIP3   OH273173   0.171   1.201   1.003  0.0662 -0.0278 -0.1287
17253TIP3    H173174   0.163   1.255   1.082 -1.8595 -1.2693  0.5945
17253TIP3    H273175   0.201   1.262   0.935 -2.2882  2.0846  0.5729
17254TIP3   OH273176   0.940   0.716  13.385 -0.3131 -0.0950 -0.1748
17254TIP3    H173177   0.892   0.691  13.306  1.1052  0.5882 -1.3082
17254TIP3    H273178   1.024   0.672  13.376 -0.0384  0.2146  0.8237
17255TIP3   OH273179   2.780   0.137   4.763  0.4453  0.5017  0.8544
17255TIP3    H173180   2.840   0.084   4.817  0.5834  0.8587  1.0622
17255TIP3    H273181   2.705   0.153   4.820  0.3397  0.4051  0.7415
17256TIP3   OH273182   3.673   0.911  12.319 -0.3734  0.0795  0.0814
17256TIP3    H173183   3.597   0.893  12.263 -1.0956 -0.9773  1.3073
17256TIP3    H273184   3.721   0.828  12.321 -0.1387  0.2222  0.6697
17257TIP3   OH273185   0.119   4.468   3.936  0.6238 -0.1333  0.2752
17257TIP3    H173186   0.086   4.379   3.943 -0.3328 -0.1352 -2.6391
17257TIP3    H273187   0.126   4.483   3.841 -2.6231  4.0461  0.4069
17258TIP3   OH273188   3.740   3.676  17.155 -0.5024  0.1201  0.4594
17258TIP3    H173189   3.828   3.651  17.126 -0.1456  0.2863  1.3573
17258TIP3    H273190   3.749   3.689  17.250 -1.4515  0.3352  0.5283
17259TIP3   OH273191   6.429   0.492  11.394 -0.2715 -0.1358 -0.1923
17259TIP3    H173192   6.458   0.508  11.484 -0.8403 -1.2257  0.2016
17259TIP3    H273193   6.334   0.492  11.399 -0.3080 -0.9354 -0.6431
17260TIP3   OH273194   1.788   2.117   2.891  0.0854 -0.2581  0.1363
17260TIP3    H173195   1.800   2.191   2.831 -2.4590  0.0096 -0.1210
17260TIP3    H273196   1.847   2.136   2.964 -1.4432  2.8056  0.7442
17261TIP3   OH273197   3.335   5.846  12.195 -0.0524 -0.2842 -0.2270
17261TIP3    H173198   3.339   5.750  12.196  0.4385 -0.2712  1.0307
17261TIP3    H273199   3.250   5.867  12.234 -0.0276 -0.2051 -0.2154
17262TIP3   OH273200   1.347   2.942   4.471  0.3705  0.8639  0.1630
17262TIP3    H173201   1.397   2.888   4.533  0.9924  1.4632  0.1852
17262TIP3    H273202   1.410   2.965   4.403 -0.0455  1.0867 -0.1453
17263TIP3   OH273203   6.176   3.417  15.687  0.2105  0.4956 -0.1781
17263TIP3    H173204   6.123   3.480  15.638  1.4309  0.3865 -1.6991
17263TIP3    H273205   6.202   3.352  15.622 -0.5416 -1.3247  1.2184
17264TIP3   OH273206   6.502   6.732  15.346  0.8584 -0.3540  0.2498
17264TIP3    H173207   6.480   6.672  15.274  0.4839  1.1552 -0.9618
17264TIP3    H273208   6.432   6.720  15.410  0.3289 -0.6000 -0.3647
17265TIP3   OH273209   0.258   0.013  13.789 -0.6217 -0.3480  0.4651
17265TIP3    H173210   0.291   0.101  13.770 -1.4525 -0.4716 -1.9507
17265TIP3    H273211   0.163   0.024  13.797 -0.7643 -1.0443 -0.1143
17266TIP3   OH273212   6.084   2.426  13.931  0.1334  0.3109 -0.0932
17266TIP3    H173213   6.076   2.340  13.973 -1.7758 -0.1016 -1.2106
17266TIP3    H273214   6.133   2.479  13.994  0.0701 -1.1623  1.2502
17267TIP3   OH273215   1.379   0.574  16.065  0.0142 -0.3628 -0.0676
17267TIP3    H173216   1.285   0.566  16.051  0.2209  0.5730 -2.4601
17267TIP3    H273217   1.413   0.607  15.982  2.8653 -3.6477 -0.4560
17268TIP3   OH273218   5.789   0.140  14.175 -0.5509  0.2285 -0.0035
17268TIP3    H173219   5.777   0.219  14.228  0.4104 -0.2784  1.0294
17268TIP3    H273220   5.787   0.171  14.085 -1.2685  1.2700  0.3426
17269TIP3   OH273221   0.306   1.439   5.403 -0.3561  0.3318 -0.1663
17269TIP3    H173222   0.290   1.486   5.484 -0.6563  0.3115 -0.2133
17269TIP3    H273223   0.248   1.481   5.339  0.3470  0.7761 -0.5249
17270TIP3   OH273224   1.150   4.181   5.131 -0.4265  0.0678 -0.7195
17270TIP3    H173225   1.191   4.217   5.052 -1.3522  0.1530 -1.1732
17270TIP3    H273226   1.056   4.191   5.116 -0.6481 -0.9952 -0.1070
17271TIP3   OH273227   4.692   2.078  13.913  0.6698  0.1631 -0.3081
17271TIP3    H173228   4.727   2.079  14.002  2.5466  1.7155 -0.9981
17271TIP3    H273229   4.607   2.121  13.920 -0.1745 -1.5865  1.0254
17272TIP3   OH273230   5.884   5.529   3.484 -0.2776  0.2336  0.2839
17272TIP3    H173231   5.868   5.572   3.400  0.9123  0.0186 -0.0719
17272TIP3    H273232   5.846   5.442   3.475 -0.9759  0.5312  0.3109
17273TIP3   OH273233   4.650   3.523  15.104  0.3013 -0.3313  0.0799
17273TIP3    H173234   4.640   3.458  15.173 -3.4566 -0.6265 -0.5531
17273TIP3    H273235   4.700   3.478  15.036  2.3707 -0.6708  1.7250
17274TIP3   OH273236   2.873   1.995  15.556  0.4088 -0.1991 -0.5508
17274TIP3    H173237   2.835   2.011  15.470 -0.0338  0.4798 -0.2376
17274TIP3    H273238   2.799   2.005  15.617  0.4539 -1.8631 -0.1862
17275TIP3   OH273239   4.110   3.532  14.141 -0.2392  0.2813  0.2015
17275TIP3    H173240   4.141   3.460  14.087 -0.8813  0.1097  0.0525
17275TIP3    H273241   4.119   3.500  14.231  2.7521  1.3095  0.3838
17276TIP3   OH273242   3.321   0.052   4.236  0.2274  0.5034 -0.2461
17276TIP3    H173243   3.411   0.029   4.212 -0.2539  0.1818 -1.8822
17276TIP3    H273244   3.271  -0.027   4.216 -0.2380  0.1541  2.0496
17277TIP3   OH273245   5.519   1.547   1.880  0.2707  0.0222  0.4380
17277TIP3    H173246   5.573   1.594   1.817  1.1939 -0.4383  0.8600
17277TIP3    H273247   5.565   1.558   1.963 -0.0335 -0.7793  0.7198
17278TIP3   OH273248   3.125   2.281  11.633 -0.2296 -0.3881 -0.5679
17278TIP3    H173249   3.043   2.232  11.632  0.1225 -1.1426  1.5836
17278TIP3    H273250   3.100   2.371  11.655 -0.5974 -0.3146 -1.2879
17279TIP3   OH273251   6.395   4.957   5.434  0.0755 -0.0425 -0.3957
17279TIP3    H173252   6.446   5.007   5.370  0.4744 -0.1866 -0.1943
17279TIP3    H273253   6.458   4.934   5.502  0.4289 -2.6616 -1.4882
17280TIP3   OH273254   5.713   0.329   4.654 -0.3783  0.0254 -0.3154
17280TIP3    H173255   5.734   0.385   4.729  0.7135 -0.8551  0.0737
17280TIP3    H273256   5.744   0.378   4.578 -0.1779  0.3172 -0.0482
17281TIP3   OH273257   2.230   4.511  16.729 -0.0266 -0.3983  0.2176
17281TIP3    H173258   2.256   4.582  16.669 -0.4405 -0.8328 -0.4942
17281TIP3    H273259   2.248   4.546  16.816  1.6806 -0.1603 -0.1790
17282TIP3   OH273260   0.851   2.725  14.841 -0.0590  0.4271 -0.4661
17282TIP3    H173261   0.899   2.657  14.888 -1.3590 -2.1141 -2.5092
17282TIP3    H273262   0.915   2.765  14.784  0.2700 -0.9991 -1.1543
17283TIP3   OH273263   1.443   1.636   3.038  0.3553  0.2516 -0.4084
17283TIP3    H173264   1.420   1.544   3.043 -0.5260  0.4903  0.1713
17283TIP3    H273265   1.509   1.641   2.968  0.6705 -0.8537 -0.2020
17284TIP3   OH273266   4.716   1.865   1.906  0.0032 -0.3440  0.4563
17284TIP3    H173267   4.658   1.789   1.900 -0.4918 -0.1664  2.3581
17284TIP3    H273268   4.660   1.940   1.885  0.3285 -0.4130 -0.7467
17285TIP3   OH273269   5.509   5.138  11.688  0.0986 -0.0371  0.3934
17285TIP3    H173270   5.568   5.146  11.763 -0.4647  0.3583  0.7983
17285TIP3    H273271   5.422   5.129  11.727 -0.2207  0.3799 -0.2145
17286TIP3   OH273272   3.358   6.289   5.907 -0.0870  0.2874  0.2180
17286TIP3    H173273   3.355   6.346   5.984 -1.5330 -1.1170  1.2675
17286TIP3    H273274   3.411   6.214   5.935  1.0823  0.6764 -0.8620
17287TIP3   OH273275   2.200   0.451   3.970  0.3510 -0.4867 -0.1223
17287TIP3    H173276   2.174   0.386   3.905 -0.3061 -0.1596 -0.2006
17287TIP3    H273277   2.258   0.511   3.922 -0.8252  0.2559 -0.6643
17288TIP3   OH273278   4.617   3.810  12.764 -0.4249  0.6952 -0.5872
17288TIP3    H173279   4.595   3.754  12.690 -0.9289 -1.6274  1.1955
17288TIP3    H273280   4.532   3.836  12.801 -0.1881  0.7293 -0.0508
17289TIP3   OH273281   4.683   3.554  13.139 -0.2297  0.3409  1.0795
17289TIP3    H173282   4.666   3.493  13.210 -1.3212  0.4994  0.9647
17289TIP3    H273283   4.748   3.510  13.084  0.7119  0.2661  2.2231
17290TIP3   OH273284   0.422   6.633  12.112 -0.0076 -0.0176  0.2695
17290TIP3    H173285   0.472   6.663  12.188  2.7930 -2.7854 -0.2999
17290TIP3    H273286   0.354   6.576  12.148 -1.5409  2.0863  0.8943
17291TIP3   OH273287   0.811   1.090   0.624 -0.5576  0.3346  0.4243
17291TIP3    H173288   0.816   1.155   0.694 -0.7860 -0.2951  1.0310
17291TIP3    H273289   0.894   1.044   0.629 -1.1859 -0.7383  1.3005
17292TIP3   OH273290   5.761   5.199  12.617 -0.2089 -0.1021 -0.5330
17292TIP3    H173291   5.855   5.182  12.606 -0.4682 -1.7107 -0.5956
17292TIP3    H273292   5.749   5.204  12.712 -0.0351  0.2651 -0.5300
17293TIP3   OH273293   2.719   5.318   1.652  0.3551 -0.7322  0.2281
17293TIP3    H173294   2.739   5.392   1.594 -0.0904  0.1349  1.1525
17293TIP3    H273295   2.804   5.287   1.682  0.6869 -1.9198 -1.7021
17294TIP3   OH273296   2.970   2.905  12.935 -0.2167 -0.1626  0.0758
17294TIP3    H173297   3.001   2.856  13.011 -0.0554 -0.2172 -0.0235
17294TIP3    H273298   2.888   2.946  12.964  0.3746  0.6658  0.6099
17295TIP3   OH273299   0.957   4.311   4.928 -0.1374  0.3014  1.0552
17295TIP3    H173300   0.967   4.240   4.865  0.8039  0.6261  0.8191
17295TIP3    H273301   1.036   4.364   4.918 -0.8788  1.4676  1.1207
17296TIP3   OH273302   3.243   5.972  13.608  0.1137 -0.2782 -0.1353
17296TIP3    H173303   3.232   5.982  13.514  0.9726 -0.0731 -0.2273
17296TIP3    H273304   3.315   5.909  13.617 -0.5184 -0.9443  0.3948
17297TIP3   OH273305   5.789   0.006  15.006  0.1694  0.9699 -0.4447
17297TIP3    H173306   5.724  -0.026  14.943 -1.5335 -1.2319  2.1631
17297TIP3    H273307   5.856  -0.062  15.008 -0.8044 -0.0252  1.4001
17298TIP3   OH273308   1.912   5.867   5.300 -0.6073 -0.2366  0.4798
17298TIP3    H173309   2.005   5.867   5.279 -0.9414  1.3923 -1.2455
17298TIP3    H273310   1.884   5.776   5.288  0.5484 -0.5507  0.0570
17299TIP3   OH273311   4.636   5.203  11.392  0.3416 -0.1587 -0.5315
17299TIP3    H173312   4.726   5.234  11.404  1.5051 -2.4023 -2.5402
17299TIP3    H273313   4.634   5.119  11.438 -1.6944  1.1332  1.9517
17300TIP3   OH273314   1.338   5.732  14.671 -0.0270  0.4244 -0.0492
17300TIP3    H173315   1.387   5.788  14.731  2.4374 -1.3865 -0.2269
17300TIP3    H273316   1.382   5.647  14.675 -3.3707 -1.5020 -0.0364
17301TIP3   OH273317   3.258   3.858  12.648 -0.4752  0.5019  0.3048
17301TIP3    H173318   3.268   3.946  12.611  1.6674  0.1246 -0.1429
17301TIP3    H273319   3.321   3.804  12.600 -2.0810 -1.4232  0.2201
17302TIP3   OH273320   6.563   2.385  13.790  0.0747  0.2295  0.6698
17302TIP3    H173321   6.650   2.346  13.792  0.1855  0.4881  1.0376
17302TIP3    H273322   6.531   2.376  13.879  0.5495  1.9598  1.0525
17303TIP3   OH273323   3.168   2.993  14.335 -0.6736 -0.1557 -0.0634
17303TIP3    H173324   3.105   3.063  14.354 -1.2563 -1.0740  1.6489
17303TIP3    H273325   3.250   3.039  14.316 -0.5977  1.0764  2.6518
17304TIP3   OH273326   6.098   4.303   6.118  0.8157  0.2983 -0.3938
17304TIP3    H173327   6.155   4.359   6.065  3.2664 -0.5145  1.2110
17304TIP3    H273328   6.109   4.336   6.207 -1.7290  0.4357 -0.0445
17305TIP3   OH273329   4.399   0.030  14.716 -0.0671  0.7008 -0.6979
17305TIP3    H173330   4.387   0.093  14.787 -0.6711  0.7069 -0.7974
17305TIP3    H273331   4.473   0.064  14.666  1.4830 -0.1761  0.8591
17306TIP3   OH273332   5.651   3.807  11.618 -0.0206  0.1121  0.4145
17306TIP3    H173333   5.737   3.835  11.587 -0.7548  0.1837 -1.7477
17306TIP3    H273334   5.595   3.884  11.608 -0.5281 -0.1645  1.0408
17307TIP3   OH273335   0.808   1.399  13.726 -0.1253  0.0345 -0.9156
17307TIP3    H173336   0.770   1.318  13.694  1.5295 -0.7741 -0.9774
17307TIP3    H273337   0.821   1.385  13.820  1.3306 -0.3103 -1.1395
17308TIP3   OH273338   4.010   3.271   3.994  0.1214 -0.4735 -0.0106
17308TIP3    H173339   3.931   3.242   4.040 -1.1660  0.8047 -1.3548
17308TIP3    H273340   3.997   3.364   3.978  0.9074 -0.6904 -2.2041
17309TIP3   OH273341   2.067   3.561  14.879 -0.1546  0.1653  0.5788
17309TIP3    H173342   2.103   3.473  14.869  0.9165  0.5729  0.7464
17309TIP3    H273343   2.018   3.577  14.798 -0.9304 -0.8355  0.8363
17310TIP3   OH273344   5.188   5.584   1.386  0.3770 -0.6977  0.1646
17310TIP3    H173345   5.171   5.539   1.303  0.0693 -0.0120 -0.1580
17310TIP3    H273346   5.239   5.661   1.361  1.2813 -1.0920  0.7606
17311TIP3   OH273347   4.476   3.336   1.993 -0.0155  0.6951  0.1855
17311TIP3    H173348   4.493   3.300   1.906 -2.3975 -1.6474  0.5507
17311TIP3    H273349   4.401   3.395   1.980  0.5032  1.4347  0.4661
17312TIP3   OH273350   2.853   1.027   6.265  0.3885 -0.8462  0.3332
17312TIP3    H173351   2.948   1.024   6.252  0.5351  1.0837  0.6798
17312TIP3    H273352   2.840   1.092   6.333 -1.2157 -0.8978  0.1122
17313TIP3   OH273353   5.569   6.699   4.827  0.3227  0.1988 -0.1646
17313TIP3    H173354   5.526   6.614   4.833 -0.5066  0.4481 -2.0917
17313TIP3    H273355   5.508   6.759   4.869  1.0002 -0.1176  1.3866
17314TIP3   OH273356   1.617   3.624  16.843  0.4004  0.1341 -0.3192
17314TIP3    H173357   1.574   3.549  16.883  0.5271 -1.3424 -2.7299
17314TIP3    H273358   1.551   3.661  16.784  0.7651  1.1394 -0.1214
17315TIP3   OH273359   6.189   1.362   0.619 -0.1109  0.3663 -0.7271
17315TIP3    H173360   6.169   1.364   0.525  0.2411 -0.1866 -0.8207
17315TIP3    H273361   6.250   1.289   0.628 -2.9607 -2.0271  0.4838
17316TIP3   OH273362   5.748   6.747  11.457 -0.1200  0.2489 -0.6117
17316TIP3    H173363   5.751   6.810  11.385  0.6227 -1.0096 -1.7375
17316TIP3    H273364   5.682   6.683  11.431 -0.8385  0.5174  0.4954
17317TIP3   OH273365   0.793   6.571  10.752 -0.4685 -0.7253 -0.2116
17317TIP3    H173366   0.795   6.510  10.678 -1.4241  0.2980 -1.1284
17317TIP3    H273367   0.885   6.591  10.769 -0.1582 -2.1468 -0.1033
17318TIP3   OH273368   4.293   3.507   5.605  0.5015  0.4541 -0.5227
17318TIP3    H173369   4.290   3.553   5.521  0.8179  1.6328  0.0884
17318TIP3    H273370   4.282   3.576   5.671  2.7186 -0.0678  0.4948
17319TIP3   OH273371   4.076   3.137  12.097  0.1455 -0.0201 -0.4110
17319TIP3    H173372   4.056   3.222  12.135 -0.7299 -0.2074 -0.4276
17319TIP3    H273373   4.084   3.154  12.003 -1.2795 -0.1396 -0.5820
17320TIP3   OH273374   3.603   3.980  15.710 -0.2249  0.0772  0.2724
17320TIP3    H173375   3.605   4.052  15.647 -1.2963 -0.5199 -0.4693
17320TIP3    H273376   3.676   3.999  15.770 -1.6022  2.8147  1.2588
17321TIP3   OH273377   3.090   0.489  16.409  0.6170  0.4745  0.3234
17321TIP3    H173378   3.081   0.401  16.445  1.1526  0.2579 -0.0556
17321TIP3    H273379   3.174   0.488  16.362  0.5654  1.1435  0.1970
17322TIP3   OH273380   5.829   6.519  11.070  0.0743  0.1001  0.4184
17322TIP3    H173381   5.868   6.531  10.983 -1.5394  0.6392 -0.2738
17322TIP3    H273382   5.904   6.519  11.130  1.2677 -0.6944 -0.9855
17323TIP3   OH273383   2.538   4.221   3.982 -0.2760  0.5033 -0.5543
17323TIP3    H173384   2.598   4.295   3.986  0.6947 -0.2958 -0.1100
17323TIP3    H273385   2.452   4.261   3.970  0.3608  1.6440 -1.4667
17324TIP3   OH273386   2.510   0.325  14.230 -0.6285  0.1519 -0.5650
17324TIP3    H173387   2.536   0.338  14.321  0.2620 -0.7782 -0.6635
17324TIP3    H273388   2.536   0.235  14.210  1.2065  0.9761 -2.3648
17325TIP3   OH273389   6.709   5.509   6.170 -0.0067  0.1494 -0.3460
17325TIP3    H173390   6.614   5.504   6.165 -0.1893  0.3810  1.8442
17325TIP3    H273391   6.736   5.419   6.192  0.2154  0.2323 -0.2801
17326TIP3   OH273392   1.047   3.878   0.378 -0.1144 -0.5424  0.4896
17326TIP3    H173393   1.047   3.865   0.283 -1.2770  0.9763  0.2324
17326TIP3    H273394   1.114   3.944   0.393 -0.0362 -0.6713  0.7068
17327TIP3   OH273395   1.584   6.412   1.411 -0.0146 -0.2482 -0.8616
17327TIP3    H173396   1.579   6.419   1.506  0.9952  1.4423 -0.8801
17327TIP3    H273397   1.674   6.385   1.394  0.8928  2.6851 -1.3568
17328TIP3   OH273398   6.634   5.479   0.652  0.1445 -0.4020  0.0923
17328TIP3    H173399   6.608   5.397   0.695 -0.2795 -1.9128 -2.7402
17328TIP3    H273400   6.723   5.462   0.620 -0.1955 -0.0209 -1.0921
17329TIP3   OH273401   2.670   4.128   5.011  0.1554 -0.2910  0.4924
17329TIP3    H173402   2.706   4.198   5.066  0.7685 -1.8221  2.1191
17329TIP3    H273403   2.665   4.167   4.923 -0.7435  2.2022  1.5548
17330TIP3   OH273404   0.445   3.391   2.431 -0.2059 -0.3422 -0.5198
17330TIP3    H173405   0.471   3.357   2.345 -0.3179 -1.0491 -0.2822
17330TIP3    H273406   0.357   3.356   2.445 -0.1290 -0.3615 -0.0563
17331TIP3   OH273407   4.276   3.721   5.043  0.6839  0.2990  0.4256
17331TIP3    H173408   4.347   3.753   5.099 -0.5509  3.0429  0.6139
17331TIP3    H273409   4.293   3.760   4.958  0.0302 -0.0029  0.1502
17332TIP3   OH273410   4.741   0.403  14.468  0.5555 -0.4066  0.5031
17332TIP3    H173411   4.744   0.481  14.523 -0.0427 -1.3202  1.8860
17332TIP3    H273412   4.833   0.379  14.456  0.8484  1.3008 -1.1920
17333TIP3   OH273413   0.115   3.207   4.888 -0.3124  0.3496  0.3891
17333TIP3    H173414   0.041   3.151   4.914 -0.4416  0.7328  0.8485
17333TIP3    H273415   0.176   3.202   4.961  0.2049 -0.1015 -0.0613
17334TIP3   OH273416   4.199   3.967   3.644  0.3143 -0.7664 -0.1192
17334TIP3    H173417   4.190   3.959   3.739 -0.5976  0.1772 -0.1060
17334TIP3    H273418   4.294   3.966   3.629  0.4728 -0.8073  0.8124
17335TIP3   OH273419   2.048   0.561  16.515  0.4770 -0.1476  0.0259
17335TIP3    H173420   2.090   0.646  16.527 -2.5748  1.4726  0.2355
17335TIP3    H273421   1.972   0.564  16.572  0.2919 -3.1119  0.0839
17336TIP3   OH273422   5.950   3.063  15.115  0.0222 -0.6919  0.4242
17336TIP3    H173423   5.899   3.125  15.167  0.5982  0.3924 -0.2864
17336TIP3    H273424   6.021   3.036  15.172  0.8995  0.8231  0.0921
17337TIP3   OH273425   2.541   6.063  16.551 -0.4446 -0.0405 -0.0764
17337TIP3    H173426   2.613   6.059  16.488 -0.2724 -0.8552  0.1548
17337TIP3    H273427   2.530   6.156  16.570 -0.2575  0.1808 -1.0297
17338TIP3   OH273428   3.492   3.308  15.847 -0.5012  0.3293  0.3632
17338TIP3    H173429   3.464   3.217  15.841 -0.6776  0.4028  0.0555
17338TIP3    H273430   3.566   3.314  15.788  0.3699  0.0658  1.3861
17339TIP3   OH273431   3.443   1.926   5.405  0.5204  0.1106 -0.1216
17339TIP3    H173432   3.443   1.831   5.421  1.5617 -0.1236 -1.3802
17339TIP3    H273433   3.503   1.938   5.332  1.3693  1.9038  0.8224
17340TIP3   OH273434   3.744   2.712   2.127 -0.0374  0.0815  0.2513
17340TIP3    H173435   3.676   2.771   2.095  0.2757  0.6597  0.6432
17340TIP3    H273436   3.701   2.627   2.132 -0.5545  0.3156 -0.1139
17341TIP3   OH273437   1.968   1.916  14.472 -0.3431 -0.8199 -0.1376
17341TIP3    H173438   1.892   1.888  14.523 -0.1339  1.5084  1.6293
17341TIP3    H273439   1.937   1.917  14.381 -2.8252  0.9968  0.6201
17342TIP3   OH273440   4.643   1.161   4.047 -0.3661  0.5024  0.7141
17342TIP3    H173441   4.661   1.070   4.022 -0.3463  0.2936  1.4821
17342TIP3    H273442   4.729   1.203   4.049 -0.3214  0.4035  0.8810
17343TIP3   OH273443   5.385   1.137   2.372  0.7680  0.2581  0.3836
17343TIP3    H173444   5.336   1.134   2.290  2.4434 -0.3360 -0.6243
17343TIP3    H273445   5.334   1.197   2.427  0.2131  1.6173 -1.4825
17344TIP3   OH273446   6.732   5.063  14.815  0.6126  0.3581 -0.1529
17344TIP3    H173447   6.672   5.118  14.764  0.1816  0.2403  0.2262
17344TIP3    H273448   6.808   5.120  14.830 -0.1577  1.1541  0.9274
17345TIP3   OH273449   1.469   6.508  14.057  0.0524 -0.2005  0.2473
17345TIP3    H173450   1.471   6.431  14.000 -2.4691  2.0136 -3.2330
17345TIP3    H273451   1.424   6.575  14.005 -1.0870  2.5952  4.3450
17346TIP3   OH273452   2.994   5.604  12.195  0.5590 -0.2941  0.1156
17346TIP3    H173453   3.002   5.686  12.243 -0.1996 -0.3648  0.3800
17346TIP3    H273454   2.917   5.561  12.233  1.0735 -1.2319  0.1332
17347TIP3   OH273455   5.485   4.051  16.414  0.5577  0.3964 -0.5935
17347TIP3    H173456   5.446   4.102  16.485  1.5053 -0.3311  0.4791
17347TIP3    H273457   5.574   4.083  16.407  0.7896 -0.2580 -0.7339
17348TIP3   OH273458   0.402   3.471  11.407  0.8202 -0.2639  0.4524
17348TIP3    H173459   0.409   3.427  11.492  0.9374  0.0192  0.5907
17348TIP3    H273460   0.323   3.434  11.368  0.3121  0.1820  1.0289
17349TIP3   OH273461   4.346   6.729   3.658 -0.3320  0.6749  0.3857
17349TIP3    H173462   4.266   6.728   3.710 -0.3219 -0.3475  0.3974
17349TIP3    H273463   4.322   6.689   3.575  0.5689 -1.4224  1.0606
17350TIP3   OH273464   2.215   3.703  17.240  0.1760  0.6804  0.3861
17350TIP3    H173465   2.243   3.764  17.308 -1.0980 -0.4476  2.0002
17350TIP3    H273466   2.128   3.674  17.268 -1.0330  1.2387 -2.4756
17351TIP3   OH273467   5.330   1.644   0.101 -0.2209  0.5255 -0.5257
17351TIP3    H173468   5.340   1.717   0.162 -2.3245 -0.0617  0.6111
17351TIP3    H273469   5.392   1.578   0.132 -0.3521  0.7341  0.1928
17352TIP3   OH273470   1.782   2.656  16.494 -0.1852 -0.7650  0.6010
17352TIP3    H173471   1.728   2.616  16.426  1.1031 -0.8093 -0.4387
17352TIP3    H273472   1.835   2.584  16.528  0.9542 -0.2893 -0.1127
17353TIP3   OH273473   1.229   5.122   3.828 -0.7587 -0.1489  0.1163
17353TIP3    H173474   1.174   5.159   3.897 -0.8646 -0.9698  0.4748
17353TIP3    H273475   1.302   5.081   3.875 -0.1951  0.3282 -0.3222
17354TIP3   OH273476   6.091   0.358   2.876 -0.0914 -0.0359 -0.1867
17354TIP3    H173477   6.138   0.281   2.908 -2.2938 -1.9901 -1.3599
17354TIP3    H273478   6.015   0.365   2.933 -0.6145  0.4352 -0.9267
17355TIP3   OH273479   2.826   3.296   3.137  0.3605 -0.0262 -0.1440
17355TIP3    H173480   2.770   3.305   3.060  1.7739  2.7048 -0.9864
17355TIP3    H273481   2.837   3.386   3.169  1.0107 -0.9323  2.3976
17356TIP3   OH273482   0.178   1.661  13.922 -0.3239  0.5728  0.4008
17356TIP3    H173483   0.246   1.724  13.895 -0.1557  0.1854 -0.1055
17356TIP3    H273484   0.223   1.602  13.982 -0.1314  0.1526 -0.1452
17357TIP3   OH273485   0.151   4.822   2.539  0.2181 -0.3050  0.0383
17357TIP3    H173486   0.104   4.820   2.622 -0.2550 -0.9857 -0.2388
17357TIP3    H273487   0.129   4.907   2.500  1.2545  0.4623  1.0509
17358TIP3   OH273488   0.182   0.084   2.099 -0.2381 -0.4301  0.0751
17358TIP3    H173489   0.259   0.136   2.074  0.1630 -1.3349 -0.6405
17358TIP3    H273490   0.201   0.054   2.188  0.6083 -1.2685 -0.3663
17359TIP3   OH273491   5.379   5.849  14.940 -0.6010 -0.1702 -0.4440
17359TIP3    H173492   5.401   5.793  14.866 -0.2668 -1.7166  0.7564
17359TIP3    H273493   5.302   5.807  14.980 -0.0879 -0.0366  0.7313
17360TIP3   OH273494   3.439   6.252  13.661 -0.2216 -0.3443 -0.1509
17360TIP3    H173495   3.445   6.326  13.601  2.5854  0.6159  1.1697
17360TIP3    H273496   3.347   6.253  13.689 -0.4739  2.1736 -0.7463
17361TIP3   OH273497   4.896   1.394  13.373 -0.6507 -0.3995  0.1618
17361TIP3    H173498   4.880   1.309  13.416 -1.3676  0.7404  2.2878
17361TIP3    H273499   4.810   1.436  13.372  0.0368  1.0724  0.8897
17362TIP3   OH273500   6.574   4.262   2.147 -0.4328 -0.1549 -0.3465
17362TIP3    H173501   6.572   4.202   2.072  1.4122 -0.5164 -0.1576
17362TIP3    H273502   6.572   4.349   2.108 -3.6850 -0.2357 -0.6088
17363TIP3   OH273503   2.527   6.312   1.209 -0.1062 -0.0748 -0.3287
17363TIP3    H173504   2.499   6.237   1.262  0.3973 -0.5906 -0.7710
17363TIP3    H273505   2.575   6.273   1.136  0.2656  0.6885 -0.5065
17364TIP3   OH273506   5.912   2.601  13.825 -0.1933 -0.3550 -0.7232
17364TIP3    H173507   5.971   2.528  13.842  0.0365 -0.0609 -0.2312
17364TIP3    H273508   5.968   2.679  13.826 -0.4587 -0.1567 -1.0882
17365TIP3   OH273509   5.078   6.419   6.190  0.6029 -0.2776  0.0363
17365TIP3    H173510   5.114   6.412   6.278 -0.5831 -1.4687  0.4621
17365TIP3    H273511   5.084   6.512   6.169  0.0455  0.1897  1.7715
17366TIP3   OH273512   2.929   4.646   2.835 -0.1170  0.4370  0.2388
17366TIP3    H173513   2.927   4.555   2.863  1.0892  0.6152  0.9440
17366TIP3    H273514   2.982   4.691   2.901  0.0829  1.4715 -0.5987
17367TIP3   OH273515   6.734   6.520   3.014  0.0685 -0.0446  0.3223
17367TIP3    H173516   6.810   6.578   3.005 -0.1003  0.0865 -0.3075
17367TIP3    H273517   6.659   6.577   2.999 -0.1710 -0.1286  1.1686
17368TIP3   OH273518   4.743   0.836   3.365  0.0726  0.2356  0.2833
17368TIP3    H173519   4.733   0.832   3.270  0.6580  0.7557  0.1898
17368TIP3    H273520   4.689   0.910   3.392 -0.2672 -0.0471  0.3861
17369TIP3   OH273521   5.315   6.703   1.350 -0.6018  0.1006 -0.0850
17369TIP3    H173522   5.283   6.781   1.395 -0.3538  0.8869 -1.2241
17369TIP3    H273523   5.242   6.674   1.295 -0.7088 -0.4990  0.3686
17370TIP3   OH273524   4.200   2.133   5.961  0.0667  0.5143  0.3693
17370TIP3    H173525   4.277   2.085   5.992 -0.1717  0.5279  0.9923
17370TIP3    H273526   4.125   2.088   6.000 -0.1970  0.9959  0.4278
17371TIP3   OH273527   3.339   6.002  16.186  0.7127  0.1283 -0.0523
17371TIP3    H173528   3.252   5.996  16.227  0.7024  0.5437 -0.0084
17371TIP3    H273529   3.322   5.990  16.092  0.4644  1.2736 -0.1675
17372TIP3   OH273530   5.077   5.460   3.521 -0.3863 -0.4877  0.3455
17372TIP3    H173531   5.171   5.443   3.530 -0.5376 -1.8315 -0.4406
17372TIP3    H273532   5.064   5.474   3.428 -1.1697 -1.6819  0.2602
17373TIP3   OH273533   2.180   2.646   5.071  0.1939  0.0470  0.5489
17373TIP3    H173534   2.129   2.606   5.001 -0.3370 -1.2438  1.6330
17373TIP3    H273535   2.133   2.623   5.151  0.3200  2.2109  1.2924
17374TIP3   OH273536   4.325   3.660   2.711 -0.2716  0.1737 -0.7405
17374TIP3    H173537   4.249   3.624   2.756  0.3334  1.2435  1.3055
17374TIP3    H273538   4.392   3.592   2.718 -0.2441  0.2548 -0.1469
17375TIP3   OH273539   6.624   1.874   2.971  0.4785  0.1287  0.0242
17375TIP3    H173540   6.591   1.792   3.008 -0.7268  0.5769 -0.0311
17375TIP3    H273541   6.662   1.920   3.046 -0.4879  0.3139  0.4159
17376TIP3   OH273542   1.749   4.430   1.602  0.0901 -1.0253  0.4981
17376TIP3    H173543   1.735   4.390   1.688  0.2643  0.6266  1.3300
17376TIP3    H273544   1.837   4.403   1.578  0.2008 -1.1500  1.0241
17377TIP3   OH273545   2.921   5.983  16.587 -0.0235 -0.1589 -0.3631
17377TIP3    H173546   2.852   5.958  16.649 -0.9093  1.4774 -0.6240
17377TIP3    H273547   2.997   6.002  16.643  0.2402 -1.9140 -0.0680
17378TIP3   OH273548   2.936   3.150   5.824  0.1789 -0.2986  0.4874
17378TIP3    H173549   2.979   3.107   5.898 -0.2105 -1.2826  0.1675
17378TIP3    H273550   2.941   3.085   5.753 -1.3416 -0.2369  0.2881
17379TIP3   OH273551   3.125   2.736  16.071  0.3274  0.0956  0.5735
17379TIP3    H173552   3.169   2.715  16.153 -0.0555 -0.6835  0.5904
17379TIP3    H273553   3.153   2.667  16.011 -0.8852 -0.4442  0.5927
17380TIP3   OH273554   3.248   2.820   2.608  0.0466 -0.4586  0.2583
17380TIP3    H173555   3.164   2.865   2.601  0.2728 -0.2595 -1.5341
17380TIP3    H273556   3.226   2.730   2.631 -0.4748  0.1819  2.5599
17381TIP3   OH273557   6.399   2.399  12.494  0.0053 -0.2244 -0.1614
17381TIP3    H173558   6.325   2.434  12.443  0.1820  2.6613  1.3338
17381TIP3    H273559   6.371   2.404  12.585  0.5080 -3.2354  0.2577
17382TIP3   OH273560   0.587   2.196  13.062  0.0064 -0.2724 -0.4352
17382TIP3    H173561   0.604   2.105  13.039  0.8682 -0.0218 -0.8175
17382TIP3    H273562   0.663   2.223  13.112  1.0734  1.0248 -2.6157
17383TIP3   OH273563   3.382   6.687   3.403 -0.0044  0.7555  0.2903
17383TIP3    H173564   3.378   6.638   3.321 -0.3425  0.9600  0.1807
17383TIP3    H273565   3.291   6.691   3.433  0.1780  0.2663  0.9246
17384TIP3   OH273566   0.745   3.103  15.138  0.3829 -0.4623 -0.2484
17384TIP3    H173567   0.709   3.187  15.112  0.7346 -0.5531 -1.0600
17384TIP3    H273568   0.831   3.099  15.097  1.1601 -0.4379  1.2926
17385TIP3   OH273569   1.222   4.266   5.653 -0.2834  0.0954 -0.7001
17385TIP3    H173570   1.291   4.203   5.635 -0.8345 -0.5573 -0.5608
17385TIP3    H273571   1.223   4.325   5.578  2.1368  1.6869  0.4760
17386TIP3   OH273572   5.523   4.477  11.631  0.1775  0.2228  0.0960
17386TIP3    H173573   5.439   4.436  11.609  0.0981  0.3213  0.2158
17386TIP3    H273574   5.574   4.406  11.670 -0.0589  0.2999  0.5585
17387TIP3   OH273575   0.398   1.205  13.687  0.6975  0.4414 -0.3176
17387TIP3    H173576   0.426   1.165  13.769  0.8921 -0.2336 -0.6984
17387TIP3    H273577   0.480   1.228  13.643  0.6091  0.3327 -0.5412
17388TIP3   OH273578   0.103   5.125   4.360 -0.7691  0.3528  0.1772
17388TIP3    H173579   0.137   5.143   4.447 -0.9322 -1.0576  0.5553
17388TIP3    H273580   0.011   5.105   4.374 -0.6427 -0.5705 -0.2039
17389TIP3   OH273581   2.279   2.798  16.469 -0.4547 -0.2707 -0.2497
17389TIP3    H173582   2.286   2.810  16.375 -1.6999 -0.6844 -0.4044
17389TIP3    H273583   2.276   2.703  16.481  1.4576 -0.3054  0.3638
17390TIP3   OH273584   1.568   1.206   1.842  0.1141  0.1624 -0.1215
17390TIP3    H173585   1.657   1.213   1.878  0.1361  0.6383 -0.2579
17390TIP3    H273586   1.581   1.199   1.748  0.0855 -1.7517 -0.0151
17391TIP3   OH273587   2.112   5.402   5.851  0.0378 -0.0964  0.0287
17391TIP3    H173588   2.104   5.498   5.858 -0.1134 -0.2027  2.1572
17391TIP3    H273589   2.169   5.388   5.776 -1.4288  1.5824 -1.5000
17392TIP3   OH273590   5.538   3.355  13.967  0.4505 -0.4218  0.4374
17392TIP3    H173591   5.511   3.285  14.026  1.1115 -0.3643  0.8231
17392TIP3    H273592   5.573   3.309  13.890  1.3756 -0.5441  0.9117
17393TIP3   OH273593   1.894   5.330   4.569 -0.4534 -0.0031  0.6634
17393TIP3    H173594   1.951   5.281   4.510 -1.0712  0.3639 -0.2511
17393TIP3    H273595   1.807   5.292   4.556 -0.5527 -0.1079  1.5575
17394TIP3   OH273596   6.401   0.922   4.805 -0.0851 -0.1775  0.3572
17394TIP3    H173597   6.307   0.917   4.821 -0.2947  0.2583 -0.6698
17394TIP3    H273598   6.411   0.899   4.713  0.5909  1.6618 -0.0704
17395TIP3   OH273599   6.665   4.261  10.946  0.3333  0.1435  0.4024
17395TIP3    H173600   6.701   4.328  11.004  0.4217  0.6506 -0.2262
17395TIP3    H273601   6.597   4.306  10.896 -0.5065 -0.5590  0.8783
17396TIP3   OH273602   4.099   1.434  14.540 -0.5384  0.6077  0.3111
17396TIP3    H173603   4.042   1.382  14.484 -0.8666 -0.3308  1.4577
17396TIP3    H273604   4.117   1.514  14.491  0.0321 -0.6070 -1.5440
17397TIP3   OH273605   5.144   5.584   2.349  0.5374 -0.4768 -0.0779
17397TIP3    H173606   5.075   5.604   2.286  1.6046 -0.8492 -1.4332
17397TIP3    H273607   5.100   5.532   2.417 -0.8342  0.7070 -0.0169
17398TIP3   OH273608   2.174   1.578  11.788 -0.3676  0.4159 -0.2445
17398TIP3    H173609   2.254   1.580  11.840  2.7845  1.0178 -4.5881
17398TIP3    H273610   2.154   1.670  11.771  0.1960  0.2402 -2.0454
17399TIP3   OH273611   5.372   6.416  17.063  0.4992 -0.1842  0.0932
17399TIP3    H173612   5.412   6.373  16.987 -1.2971  0.4918 -1.2984
17399TIP3    H273613   5.279   6.421  17.041 -0.0130  0.3780  2.1997
17400TIP3   OH273614   3.314   5.200   3.305  0.4357 -0.7192 -0.1595
17400TIP3    H173615   3.251   5.186   3.376 -1.4992  2.1732 -1.1356
17400TIP3    H273616   3.392   5.234   3.349 -0.2579 -0.2058  0.7084
17401TIP3   OH273617   5.132   3.741   1.293  0.2667  0.0937  0.0497
17401TIP3    H173618   5.103   3.710   1.378 -0.9011  1.5583  0.2423
17401TIP3    H273619   5.061   3.716   1.233  0.3275  0.4725 -0.1859
17402TIP3   OH273620   2.670   3.101  13.563 -0.0279  0.3464 -0.2715
17402TIP3    H173621   2.661   3.075  13.471  1.2909 -1.1125 -0.0307
17402TIP3    H273622   2.728   3.177  13.561  1.8358 -1.0200 -0.5398
17403TIP3   OH273623   0.872   1.405   5.101 -0.2204 -0.8435 -0.2469
17403TIP3    H173624   0.867   1.497   5.078  2.0858 -0.5086  0.3519
17403TIP3    H273625   0.797   1.365   5.057  0.0006  0.9257 -2.3772
17404TIP3   OH273626   2.235   0.072   4.573 -0.1573  0.0648 -0.5136
17404TIP3    H173627   2.170   0.142   4.580 -1.7841 -1.4871  0.8051
17404TIP3    H273628   2.222   0.037   4.484 -1.8114 -0.8054  0.0329
17405TIP3   OH273629   2.729   0.564  14.358  0.0112 -0.2946  0.4937
17405TIP3    H173630   2.648   0.533  14.317  0.2386 -0.0725 -0.1327
17405TIP3    H273631   2.707   0.650  14.394  0.2556  0.2772 -0.6712
17406TIP3   OH273632   3.605   1.197  13.688  0.3856  0.0359  0.1925
17406TIP3    H173633   3.684   1.178  13.637 -0.1830 -0.3347 -0.5605
17406TIP3    H273634   3.541   1.226  13.623  0.2133  1.3712  0.9221
17407TIP3   OH273635   4.749   2.289  15.249  0.0818  0.3369  0.3608
17407TIP3    H173636   4.712   2.357  15.193  0.3220  0.1385 -0.0468
17407TIP3    H273637   4.733   2.207  15.202 -0.4632  0.0784  0.9881
17408TIP3   OH273638   0.551   4.594   6.469  0.1862  0.2873 -0.0754
17408TIP3    H173639   0.606   4.529   6.425  0.9623  0.3453  0.7954
17408TIP3    H273640   0.584   4.678   6.438 -0.3498  0.2965 -0.6447
17409TIP3   OH273641   5.215   3.794   2.281  0.1306 -0.0988  0.1584
17409TIP3    H173642   5.218   3.756   2.369  2.2081  0.4663  0.3743
17409TIP3    H273643   5.306   3.795   2.252 -0.2601  1.6655 -1.1589
17410TIP3   OH273644   0.427   0.973  12.912  0.4679  0.5790 -0.5211
17410TIP3    H173645   0.360   0.970  12.981  1.0218  2.6603  0.1601
17410TIP3    H273646   0.469   1.058  12.923  2.0476  0.0480 -2.0718
17411TIP3   OH273647   3.993   2.832   4.978 -0.3229  0.1692  0.2530
17411TIP3    H173648   4.014   2.924   4.959 -0.4845 -0.0278 -0.9684
17411TIP3    H273649   3.909   2.836   5.023  0.1996  0.6863  1.1978
17412TIP3   OH273650   4.494   4.578   3.467 -0.2248 -0.1653 -0.3713
17412TIP3    H173651   4.560   4.509   3.476  0.9804  0.9685 -0.2725
17412TIP3    H273652   4.414   4.539   3.500 -0.1567 -2.3214 -2.4467
17413TIP3   OH273653   2.294   4.337  13.958 -0.3071  0.3475  0.1870
17413TIP3    H173654   2.358   4.310  14.025 -0.8473  0.0540  0.5930
17413TIP3    H273655   2.240   4.403  14.002 -0.0391  0.8904 -0.2812
17414TIP3   OH273656   3.275   3.917   3.177 -0.2234 -0.5014  0.1593
17414TIP3    H173657   3.238   4.003   3.159  1.6934 -0.0642 -2.2379
17414TIP3    H273658   3.232   3.859   3.113  0.0237 -0.8991  0.3475
17415TIP3   OH273659   0.067   0.995  14.168 -0.0303  0.0952  0.2729
17415TIP3    H173660   0.024   1.054  14.230 -3.4649  1.2590 -2.8290
17415TIP3    H273661   0.040   1.028  14.082  0.2857 -4.2747 -1.7422
17416TIP3   OH273662   3.677   4.650   5.261  0.3419  0.1098 -0.0110
17416TIP3    H173663   3.666   4.739   5.295  0.5144  0.1214  0.0150
17416TIP3    H273664   3.657   4.594   5.336  1.1812  0.1420  0.2500
17417TIP3   OH273665   3.174   0.715   0.661  0.2596 -0.6873 -0.0238
17417TIP3    H173666   3.261   0.727   0.699 -0.5091 -0.4633  1.7583
17417TIP3    H273667   3.159   0.794   0.611  1.7113 -1.4291 -1.7345
17418TIP3   OH273668   4.796   3.530  16.446 -0.0651  0.2132  0.2718
17418TIP3    H173669   4.762   3.618  16.457  1.7668  0.9161  0.7533
17418TIP3    H273670   4.779   3.508  16.354 -1.9694  0.3801  0.5471
17419TIP3   OH273671   1.432   3.801  17.085  0.3136  0.6231  0.4984
17419TIP3    H173672   1.527   3.803  17.099  0.3701 -1.3537  0.7243
17419TIP3    H273673   1.395   3.793  17.173  0.1138 -1.1216  0.3027
17420TIP3   OH273674   5.448   3.877   4.066 -0.0628 -0.4059  0.0786
17420TIP3    H173675   5.520   3.823   4.033  0.8309  1.4526 -1.1561
17420TIP3    H273676   5.491   3.943   4.121 -0.8342  0.5758 -0.4688
17421TIP3   OH273677   0.439   5.350  13.110  0.3439 -0.2733 -0.4449
17421TIP3    H173678   0.391   5.372  13.031  0.6679 -0.0238 -0.5751
17421TIP3    H273679   0.389   5.391  13.181 -0.8532 -1.8435 -0.3222
17422TIP3   OH273680   1.018   2.903   1.246  0.6027 -0.0701 -0.1883
17422TIP3    H173681   0.966   2.836   1.200  0.9749 -0.3192 -0.2457
17422TIP3    H273682   1.037   2.863   1.331  1.1221 -0.1794 -0.3545
17423TIP3   OH273683   5.807   6.103   0.651  0.0877 -0.2006  0.0024
17423TIP3    H173684   5.715   6.103   0.680  0.0642 -0.6350 -0.0620
17423TIP3    H273685   5.856   6.129   0.728  0.1151 -2.3088  0.7605
17424TIP3   OH273686   3.470   5.895  14.452 -0.2222  0.1768 -0.1636
17424TIP3    H173687   3.479   5.855  14.366 -2.6571 -0.3461 -0.2426
17424TIP3    H273688   3.466   5.822  14.513 -1.6495  0.3705  0.0165
17425TIP3   OH273689   1.404   3.472  12.587 -0.4579 -0.2351 -0.2037
17425TIP3    H173690   1.379   3.419  12.511 -0.7500  1.3912 -1.2935
17425TIP3    H273691   1.417   3.560  12.552 -0.8298  0.6250  1.6744
17426TIP3   OH273692   4.760   2.467  13.671 -0.3914  0.2231 -1.0010
17426TIP3    H173693   4.801   2.541  13.715  0.5076 -0.1323 -1.2340
17426TIP3    H273694   4.666   2.486  13.675 -0.1823  1.2673 -0.8742
17427TIP3   OH273695   3.233   5.279   0.132  0.0721 -0.2352  0.3206
17427TIP3    H173696   3.176   5.223   0.185 -1.5894  1.2238  0.1885
17427TIP3    H273697   3.294   5.219   0.089  0.0014 -1.6704  2.1065
17428TIP3   OH273698   0.631   3.121  17.260  0.3264  0.1106  0.9029
17428TIP3    H173699   0.578   3.200  17.266  0.0987 -0.0367  0.8338
17428TIP3    H273700   0.569   3.052  17.236  1.0373  0.5505 -2.8825
17429TIP3   OH273701   0.777   6.486  14.911  0.0528  0.2677  0.4412
17429TIP3    H173702   0.693   6.457  14.947  0.0187  0.6835  0.6973
17429TIP3    H273703   0.838   6.477  14.984  0.7057 -2.0575 -0.3014
17430TIP3   OH273704   3.656   0.225   0.968  0.4707 -0.5073 -0.4123
17430TIP3    H173705   3.677   0.178   0.887 -1.9756 -3.6659  0.5524
17430TIP3    H273706   3.561   0.213   0.978  0.6802 -0.3174  2.9294
17431TIP3   OH273707   5.344   5.609   5.417 -0.1619 -0.0516  0.0672
17431TIP3    H173708   5.307   5.521   5.420 -1.5916  0.4040 -1.9773
17431TIP3    H273709   5.272   5.667   5.440  0.5389  0.6532  0.5525
17432TIP3   OH273710   4.198   1.315  15.758  0.1733 -0.3915  0.1348
17432TIP3    H173711   4.227   1.321  15.667 -0.9634  3.0037 -0.1486
17432TIP3    H273712   4.267   1.357  15.808  0.8259 -2.3080  0.9415
17433TIP3   OH273713   3.104   0.667   6.779 -0.0333 -0.5467 -0.0261
17433TIP3    H173714   3.061   0.709   6.705 -0.7571  0.1098  0.7361
17433TIP3    H273715   3.188   0.711   6.786  0.2771 -1.0017 -0.7885
17434TIP3   OH273716   1.434   3.551  15.372  0.3193 -0.2690  0.1368
17434TIP3    H173717   1.368   3.482  15.378  0.4386 -0.2983  1.3550
17434TIP3    H273718   1.413   3.610  15.444  0.5300  0.7022 -0.5816
17435TIP3   OH273719   2.736   6.758   2.414  0.0947  0.4035 -0.1030
17435TIP3    H173720   2.711   6.843   2.379  0.3358  0.1012 -1.0352
17435TIP3    H273721   2.768   6.777   2.503 -1.3927  1.0518  0.3123
17436TIP3   OH273722   2.743   4.364  11.842 -0.5158 -0.2418 -0.0464
17436TIP3    H173723   2.702   4.445  11.813 -0.7113 -0.4169 -0.2736
17436TIP3    H273724   2.812   4.348  11.777  0.4232  0.4497  0.7619
17437TIP3   OH273725   2.848   6.021   0.637  0.1265 -0.4527 -0.2340
17437TIP3    H173726   2.882   6.100   0.681 -0.8873  0.1028 -0.4257
17437TIP3    H273727   2.763   6.006   0.677 -0.5849 -0.2475 -1.6184
17438TIP3   OH273728   0.451   1.966   4.470 -0.1713  0.0661  0.0800
17438TIP3    H173729   0.546   1.968   4.458 -0.2573 -0.7809 -0.9505
17438TIP3    H273730   0.438   1.939   4.561  0.5554  1.0766  0.5098
17439TIP3   OH273731   2.288   3.945  16.719  0.0549 -0.4426 -0.4937
17439TIP3    H173732   2.258   4.026  16.760  0.6168 -1.1581  1.4715
17439TIP3    H273733   2.366   3.971  16.669 -0.8627  0.5218 -1.4842
17440TIP3   OH273734   4.816   1.323   5.284  0.0221  0.0233  0.4148
17440TIP3    H173735   4.747   1.367   5.235  0.3814 -0.4837 -0.5864
17440TIP3    H273736   4.816   1.365   5.370 -1.0445  0.5111  0.1864
17441TIP3   OH273737   0.982   2.392   1.979  0.0484 -0.0118  0.2609
17441TIP3    H173738   1.047   2.396   1.909  0.4089  0.0882  0.5976
17441TIP3    H273739   1.006   2.463   2.038  0.1405 -0.5018  0.8222
17442TIP3   OH273740   6.423   2.776   1.209 -0.0615 -0.3538 -0.4899
17442TIP3    H173741   6.373   2.695   1.217 -0.0822 -0.2985  0.0210
17442TIP3    H273742   6.464   2.772   1.123 -1.7568  0.0465 -1.3657
17443TIP3   OH273743   3.110   2.083  11.315  0.0107  0.0425 -0.0199
17443TIP3    H173744   3.046   2.106  11.382 -0.6846  1.9798 -1.2425
17443TIP3    H273745   3.081   2.130  11.237  2.0416 -0.2911 -1.0662
17444TIP3   OH273746   2.819   5.049   1.135 -0.1376  0.3714 -0.5142
17444TIP3    H173747   2.837   5.136   1.100 -1.5571  1.1828  0.6808
17444TIP3    H273748   2.757   5.010   1.073  0.7461  0.0626 -1.2215
17445TIP3   OH273749   6.274   2.076   5.375  0.5101  0.0867  0.3194
17445TIP3    H173750   6.263   2.171   5.384  1.0531 -0.0373  3.1364
17445TIP3    H273751   6.194   2.039   5.413  1.2443 -0.5744  1.2703
17446TIP3   OH273752   3.731   3.084   3.064  0.0899 -0.4178 -0.0611
17446TIP3    H173753   3.679   3.092   2.984  0.4486  1.0212 -0.1662
17446TIP3    H273754   3.782   3.165   3.069  0.7278 -0.8602  1.1709
17447TIP3   OH273755   5.675   2.067   3.292 -0.2611  0.0365  0.2277
17447TIP3    H173756   5.718   2.081   3.377 -1.0803  0.5191  0.5742
17447TIP3    H273757   5.740   2.096   3.228  1.6207 -3.1928  0.4630
17448TIP3   OH273758   3.919   2.335  12.669 -0.3280 -0.0468  0.4870
17448TIP3    H173759   3.988   2.380  12.620  0.6802 -0.8739  1.1158
17448TIP3    H273760   3.921   2.245  12.638 -1.1115 -0.0885  0.5341
17449TIP3   OH273761   5.949   2.352  14.482  0.3250  0.2739  0.0028
17449TIP3    H173762   5.875   2.360  14.421 -0.0348 -2.5143 -0.0721
17449TIP3    H273763   6.011   2.419  14.454  0.0206 -0.6351 -3.2462
17450TIP3   OH273764   1.391   3.541  14.272  0.0956  0.2351 -0.0512
17450TIP3    H173765   1.296   3.536  14.266 -0.0229 -0.3063  1.7625
17450TIP3    H273766   1.423   3.473  14.212 -0.6857 -0.2624  0.0869
17451TIP3   OH273767   4.431   0.233   2.353 -0.3361 -0.3981  0.0080
17451TIP3    H173768   4.468   0.145   2.345  0.2323 -0.2058  0.4692
17451TIP3    H273769   4.431   0.251   2.447  0.0867  0.3154 -0.1197
17452TIP3   OH273770   0.852   6.602   1.926  0.9197 -0.2105  0.7776
17452TIP3    H173771   0.861   6.530   1.864  1.6458 -0.4471  1.1404
17452TIP3    H273772   0.827   6.677   1.872 -0.7821 -0.9279  0.5212
17453TIP3   OH273773   3.879   1.691  16.041 -0.3794 -0.5686  0.0435
17453TIP3    H173774   3.786   1.695  16.018 -0.1269  0.4529 -0.8840
17453TIP3    H273775   3.893   1.601  16.072 -1.7755 -0.5843  0.6963
17454TIP3   OH273776   0.382   4.804   1.743 -0.1804 -0.4731  0.2586
17454TIP3    H173777   0.450   4.809   1.676 -0.9661 -0.4386 -0.5501
17454TIP3    H273778   0.428   4.778   1.822  1.1514  1.7103  0.2755
17455TIP3   OH273779   1.957   4.156   1.860  0.0953  0.0507  0.0371
17455TIP3    H173780   1.889   4.196   1.915 -0.4525 -1.0036  0.1565
17455TIP3    H273781   1.914   4.080   1.821  1.3121 -0.8493  0.3911
17456TIP3   OH273782   3.561   4.223  11.137 -0.0535  0.5949 -0.3599
17456TIP3    H173783   3.566   4.240  11.231  1.5242  0.0228 -0.3175
17456TIP3    H273784   3.489   4.161  11.128  2.1259 -2.3515  0.9761
17457TIP3   OH273785   1.032   3.126   2.817  0.4104 -0.5451 -0.3292
17457TIP3    H173786   1.120   3.134   2.855  0.0859  0.2286  0.2982
17457TIP3    H273787   1.018   3.210   2.772  0.3337 -1.0062 -1.1791
17458TIP3   OH273788   6.245   0.555   0.445  0.0060 -0.0194  0.1370
17458TIP3    H173789   6.246   0.494   0.519  0.2040  0.7962  0.8294
17458TIP3    H273790   6.337   0.579   0.432  0.0709 -0.7804 -0.9191
17459TIP3   OH273791   1.996   3.085  10.651 -0.1337 -0.4902  0.0155
17459TIP3    H173792   1.955   3.021  10.594 -0.5222  1.2829 -1.8338
17459TIP3    H273793   1.923   3.125  10.698 -0.4451  1.3344 -1.8620
17460TIP3   OH273794   2.482   3.994   5.203  0.7151 -0.6099 -0.1515
17460TIP3    H173795   2.564   4.044   5.203  0.9284 -0.8651  1.7462
17460TIP3    H273796   2.509   3.903   5.207  0.3149 -0.8983 -2.6557
17461TIP3   OH273797   1.275   1.213  12.815  0.7639 -0.0144  0.4660
17461TIP3    H173798   1.309   1.131  12.851 -1.9965 -0.8057  1.5049
17461TIP3    H273799   1.251   1.192  12.725  0.8996 -0.0856  0.4469
17462TIP3   OH273800   6.663   1.280   5.684  0.3245 -0.2769 -0.6653
17462TIP3    H173801   6.658   1.366   5.644  2.2216  0.5632  0.7396
17462TIP3    H273802   6.676   1.298   5.777 -0.5195 -2.1072 -0.1459
17463TIP3   OH273803   3.405   5.640  11.042 -0.3702  0.1271  0.0055
17463TIP3    H173804   3.471   5.652  10.974 -0.1764 -1.4433 -0.1248
17463TIP3    H273805   3.322   5.638  10.995 -0.4180  0.9281  0.0413
17464TIP3   OH273806   1.262   1.320   4.217  0.4499  0.4323 -0.2152
17464TIP3    H173807   1.230   1.249   4.161 -0.3554  1.6520 -1.3741
17464TIP3    H273808   1.200   1.323   4.290  0.3100  0.1238 -0.3206
17465TIP3   OH273809   4.122   5.881  14.876  0.6805 -0.6957 -0.0376
17465TIP3    H173810   4.136   5.903  14.784 -1.0883  0.4141 -0.0845
17465TIP3    H273811   4.049   5.819  14.875  1.8049 -2.0842  0.5254
17466TIP3   OH273812   4.311   1.269  14.306 -0.0555 -0.1595  0.0274
17466TIP3    H173813   4.327   1.363  14.312 -0.8480 -0.0214  0.2084
17466TIP3    H273814   4.229   1.262  14.257 -0.9989 -0.6449  1.5917
17467TIP3   OH273815   0.400   6.298   5.388 -0.2654  0.4721 -0.5730
17467TIP3    H173816   0.471   6.331   5.334 -1.0468 -2.1990 -3.5838
17467TIP3    H273817   0.443   6.242   5.453  0.5407  1.8647  0.1392
17468TIP3   OH273818   2.776   5.364   6.580 -0.3661  0.3469 -0.4369
17468TIP3    H173819   2.694   5.315   6.585 -0.7752  1.1078  0.7465
17468TIP3    H273820   2.757   5.436   6.519 -1.1650  1.5020  1.0853
17469TIP3   OH273821   4.797   2.215  13.257  0.3340 -0.1371  0.2104
17469TIP3    H173822   4.829   2.136  13.301 -0.8382 -0.9826 -0.4034
17469TIP3    H273823   4.825   2.205  13.166 -0.0641  0.0199  0.0687
17470TIP3   OH273824   2.618   0.294   5.413 -0.1007 -0.1974 -0.4465
17470TIP3    H173825   2.571   0.366   5.370  0.3218  1.0751  1.1178
17470TIP3    H273826   2.565   0.217   5.394 -1.1717  0.6984 -1.2682
17471TIP3   OH273827   2.936   0.611   0.799 -0.0469  0.1382 -0.6141
17471TIP3    H173828   3.015   0.653   0.765  0.8407 -2.7028 -2.3480
17471TIP3    H273829   2.865   0.653   0.751  0.9308 -1.2724 -3.5347
17472TIP3   OH273830   6.009   3.346   2.847  0.2945 -0.3588  0.4370
17472TIP3    H173831   5.996   3.437   2.821  0.9542 -0.3924 -0.0464
17472TIP3    H273832   6.104   3.334   2.846  0.1717 -1.7072 -1.9351
17473TIP3   OH273833   5.745   2.328   1.137 -0.4539 -0.7163 -0.3033
17473TIP3    H173834   5.725   2.303   1.227 -1.0154 -1.5467 -0.6448
17473TIP3    H273835   5.713   2.417   1.129  1.6614  0.2249  0.9733
17474TIP3   OH273836   4.488   4.705   2.593  0.3228 -0.1810 -0.3425
17474TIP3    H173837   4.549   4.772   2.623  0.2379 -0.4837  0.5151
17474TIP3    H273838   4.458   4.737   2.508 -0.3630  1.2946  0.4150
17475TIP3   OH273839   5.260   4.580  13.361 -0.0070 -0.2198 -0.1100
17475TIP3    H173840   5.216   4.664  13.351 -0.1262 -0.3596 -0.8025
17475TIP3    H273841   5.205   4.531  13.421 -0.1551  0.0477 -0.0266
17476TIP3   OH273842   5.932   4.729   3.460 -0.7538  0.0759 -0.0162
17476TIP3    H173843   5.997   4.795   3.435 -0.7028 -0.3363 -1.0204
17476TIP3    H273844   5.984   4.652   3.482 -0.8450  0.1563  0.4839
17477TIP3   OH273845   6.191   4.751   0.954  0.2414  0.3011  0.9621
17477TIP3    H173846   6.282   4.723   0.959  0.0675 -0.4420  0.2073
17477TIP3    H273847   6.142   4.670   0.938 -0.2725  0.9888 -1.2995
17478TIP3   OH273848   1.627   5.750   3.628 -0.4726 -0.2211  0.2577
17478TIP3    H173849   1.637   5.666   3.582  2.0442 -0.2443  0.7408
17478TIP3    H273850   1.702   5.802   3.600 -2.3671  2.2598 -0.6443
17479TIP3   OH273851   3.839   2.859  14.162  0.0257 -0.7983  0.2260
17479TIP3    H173852   3.926   2.828  14.186  0.2509 -1.4628 -1.3018
17479TIP3    H273853   3.844   2.955  14.170  0.9684 -0.8148 -0.0505
17480TIP3   OH273854   3.733   6.668  14.966  0.3519 -0.2578 -0.1701
17480TIP3    H173855   3.775   6.610  14.903 -1.0068  0.6714 -2.0247
17480TIP3    H273856   3.659   6.618  14.999  0.6284 -0.4767  0.1176
17481TIP3   OH273857   0.596   2.203   5.038 -0.5747  0.7946  0.0450
17481TIP3    H173858   0.558   2.209   4.950 -0.1798  0.9120 -0.1235
17481TIP3    H273859   0.619   2.111   5.048 -4.5488 -0.2196  1.7303
17482TIP3   OH273860   5.196   0.802  12.106  0.4266  0.0406 -0.0503
17482TIP3    H173861   5.105   0.779  12.123  0.0711 -1.8663 -3.5959
17482TIP3    H273862   5.242   0.718  12.104  2.1671  0.9148  0.9289
17483TIP3   OH273863   0.578   4.481  16.252 -0.7895  0.1471 -0.4821
17483TIP3    H173864   0.660   4.468  16.206 -0.1364  2.3467 -0.0508
17483TIP3    H273865   0.512   4.486  16.183 -0.2556  0.4498 -0.9727
17484TIP3   OH273866   3.896   4.158   0.434 -0.1334 -0.1773  0.6179
17484TIP3    H173867   3.923   4.219   0.365  0.5829 -1.4520 -0.2674
17484TIP3    H273868   3.945   4.188   0.511  0.3278  0.2768  0.1646
17485TIP3   OH273869   2.045   3.896  15.626  0.0540 -0.3353 -0.2759
17485TIP3    H173870   2.093   3.906  15.708 -1.3312  1.5346  0.3672
17485TIP3    H273871   2.074   3.971  15.573 -2.2926  1.0354  0.2527
17486TIP3   OH273872   1.997   6.771  13.533 -0.3837  0.2355 -0.2463
17486TIP3    H173873   2.077   6.821  13.548  0.0437 -0.6181  0.4330
17486TIP3    H273874   1.927   6.829  13.562  0.1661  0.0950  1.5343
17487TIP3   OH273875   2.448   3.451  14.613 -0.4597  0.4120  0.3250
17487TIP3    H173876   2.441   3.544  14.591 -1.6052  0.5600  1.1963
17487TIP3    H273877   2.506   3.414  14.546  0.1915  1.7897  0.0950
17488TIP3   OH273878   3.682   3.954  14.907 -0.3168 -0.0093 -0.2071
17488TIP3    H173879   3.649   4.038  14.940 -0.0495  0.1013 -0.2172
17488TIP3    H273880   3.756   3.933  14.963 -0.0058  0.0639 -0.5856
17489TIP3   OH273881   3.647   4.998   4.117  0.0085 -0.0985 -0.1295
17489TIP3    H173882   3.585   5.038   4.055 -0.6961 -0.0342  0.5933
17489TIP3    H273883   3.605   4.917   4.143  1.4812 -1.4216 -1.6522
17490TIP3   OH273884   4.605   6.004   1.711  0.1906  0.0528 -0.2329
17490TIP3    H173885   4.603   6.064   1.786  1.6487  1.7773 -1.5103
17490TIP3    H273886   4.513   5.980   1.698 -0.2141  0.5195  1.4584
17491TIP3   OH273887   1.406   2.207  12.804 -0.0672  0.7557 -0.1032
17491TIP3    H173888   1.346   2.134  12.818  1.8288 -1.2162 -1.6978
17491TIP3    H273889   1.437   2.197  12.714  1.0173  2.9591 -0.0430
17492TIP3   OH273890   5.748   4.419   4.913 -0.3074 -0.4752 -0.3246
17492TIP3    H173891   5.757   4.379   4.827  1.5312 -0.0792 -0.3572
17492TIP3    H273892   5.657   4.448   4.917 -0.0921  0.7056 -2.6943
17493TIP3   OH273893   3.708   5.591  11.001  0.2502  0.0491 -0.2239
17493TIP3    H173894   3.635   5.569  11.058  0.7630  0.0119  0.4370
17493TIP3    H273895   3.671   5.648  10.934 -0.5593 -0.6900 -0.4185
17494TIP3   OH273896   0.133   1.664  14.270  0.0814  0.1773 -0.8228
17494TIP3    H173897   0.070   1.734  14.251 -0.3300 -0.3307 -1.3468
17494TIP3    H273898   0.085   1.583  14.252  0.5004 -0.2522 -0.0564
17495TIP3   OH273899   2.283   1.697  15.710 -0.7179  0.6005  0.0924
17495TIP3    H173900   2.212   1.636  15.728 -1.7243  0.9308 -2.4479
17495TIP3    H273901   2.243   1.784  15.714 -0.3864  0.8181 -0.8950
17496TIP3   OH273902   0.963   3.740   1.384 -0.7669 -0.1326 -0.4547
17496TIP3    H173903   0.960   3.835   1.399  0.0559 -0.2308  0.4292
17496TIP3    H273904   1.017   3.731   1.305 -1.1702  0.1478 -0.7699
17497TIP3   OH273905   3.023   2.051   4.143 -0.0222 -0.0451  0.3923
17497TIP3    H173906   2.934   2.065   4.110 -0.0159 -0.9680 -0.0375
17497TIP3    H273907   3.010   2.025   4.235 -0.1983 -0.2158  0.3198
17498TIP3   OH273908   5.549   0.649  12.931  0.1723 -0.2673 -0.0930
17498TIP3    H173909   5.597   0.583  12.981  0.9444 -0.8156 -1.5076
17498TIP3    H273910   5.598   0.658  12.849 -2.8640 -1.9653 -2.3192
17499TIP3   OH273911   5.890   4.089  10.338  0.5035 -0.5722 -0.2252
17499TIP3    H173912   5.796   4.093  10.320  0.2549  1.0754  1.1862
17499TIP3    H273913   5.915   4.179  10.355  1.9768 -1.2015  1.1818
17500TIP3   OH273914   5.635   5.789  12.241 -0.4314  0.2471 -0.5354
17500TIP3    H173915   5.570   5.844  12.198 -1.8922 -0.9291  0.0754
17500TIP3    H273916   5.593   5.704  12.248  1.1287 -0.5076  0.0565
17501TIP3   OH273917   3.769   1.346   3.400 -0.2232  0.3701  0.0550
17501TIP3    H173918   3.806   1.393   3.325 -1.2317  1.1075 -0.0038
17501TIP3    H273919   3.842   1.336   3.461  0.1132  1.7022 -0.0973
17502TIP3   OH273920   1.742   4.193   2.189  0.7277  0.5064  0.3137
17502TIP3    H173921   1.835   4.186   2.210  0.1769 -1.3614  2.5173
17502TIP3    H273922   1.697   4.149   2.261 -1.8098 -0.2011 -1.5426
17503TIP3   OH273923   0.813   6.052   3.073  0.3881  0.5148 -1.1498
17503TIP3    H173924   0.741   5.999   3.040  1.2164 -1.5576  0.1641
17503TIP3    H273925   0.771   6.117   3.129 -0.5415 -0.0552 -1.1639
17504TIP3   OH273926   0.849   1.826   0.200 -0.5134 -0.9426  0.7858
17504TIP3    H173927   0.925   1.869   0.161 -0.6405 -0.5413  0.9793
17504TIP3    H273928   0.774   1.878   0.171 -0.6492 -0.9101  1.1865
17505TIP3   OH273929   0.841   6.332   4.961 -0.2509  0.4460  0.0772
17505TIP3    H173930   0.756   6.306   4.997  0.4481  1.0960  2.3716
17505TIP3    H273931   0.896   6.254   4.973 -0.3046  0.2809 -0.7023
17506TIP3   OH273932   1.711   6.611   0.009 -0.2883 -0.3341  0.3188
17506TIP3    H173933   1.651   6.621  -0.065 -3.7745  0.8869  3.0161
17506TIP3    H273934   1.765   6.691   0.007 -0.6565 -0.1017 -0.6414
17507TIP3   OH273935   6.721   1.968   5.157  0.3186  0.3331 -0.1835
17507TIP3    H173936   6.747   2.058   5.178 -0.1284  0.1425  1.3793
17507TIP3    H273937   6.639   1.956   5.205 -0.4557 -0.4168 -1.6399
17508TIP3   OH273938   2.692   0.109  11.716 -0.3742  0.6902  0.4643
17508TIP3    H173939   2.625   0.151  11.661  0.0850  1.9306  0.8141
17508TIP3    H273940   2.697   0.019  11.683 -1.9467  0.6699  0.1977
17509TIP3   OH273941   1.366   2.130  13.690  0.0830 -0.0593 -0.3157
17509TIP3    H173942   1.370   2.072  13.766 -0.5125  0.7405  0.3435
17509TIP3    H273943   1.456   2.162  13.680  0.3531 -0.8398 -0.5042
17510TIP3   OH273944   4.182   5.531  13.333 -0.4664  0.1625 -0.2817
17510TIP3    H173945   4.181   5.549  13.427  2.0085 -1.2044  0.0883
17510TIP3    H273946   4.097   5.490  13.316 -1.9119  2.4746  0.8198
17511TIP3   OH273947   6.052   2.480  12.513 -0.5132 -0.0114 -0.1891
17511TIP3    H173948   5.965   2.477  12.553 -0.2175  0.7668  0.5376
17511TIP3    H273949   6.097   2.551  12.558  0.0818  0.4326 -1.4418
17512TIP3   OH273950   6.691   3.451   1.044  0.5231  0.0475 -0.4510
17512TIP3    H173951   6.619   3.429   1.104  1.9091 -0.9306  0.9478
17512TIP3    H273952   6.715   3.540   1.068 -1.3029  1.0827 -2.1412
17513TIP3   OH273953   0.423   1.277   4.521  0.3802 -0.7046 -0.3832
17513TIP3    H173954   0.498   1.283   4.580  0.1939 -1.6880 -0.0181
17513TIP3    H273955   0.349   1.307   4.574  0.5878  0.8862 -0.9437
17514TIP3   OH273956   6.406   1.391  15.383  0.0672  0.4617  0.7433
17514TIP3    H173957   6.406   1.307  15.336  1.5076  0.1138  1.3282
17514TIP3    H273958   6.352   1.448  15.328 -1.6365 -1.0366  0.7453
17515TIP3   OH273959   5.809   3.299   1.731  0.0455  0.3156  0.1030
17515TIP3    H173960   5.800   3.211   1.769  0.3707 -0.2388 -1.0800
17515TIP3    H273961   5.888   3.334   1.772  0.7639 -0.5305 -0.5314
17516TIP3   OH273962   1.004   0.373  13.868 -0.3316  0.2877  0.4038
17516TIP3    H173963   1.038   0.410  13.949  1.4850 -0.7888  0.1919
17516TIP3    H273964   1.004   0.446  13.806 -1.2237  0.9896  1.2047
17517TIP3   OH273965   4.347   0.384   6.136  0.3775 -0.5846  0.2194
17517TIP3    H173966   4.430   0.359   6.177  1.1348  0.9471 -0.2928
17517TIP3    H273967   4.372   0.419   6.051 -0.6480  1.0911  0.5543
17518TIP3   OH273968   3.703   2.167   1.496 -0.0550 -0.4911  0.4338
17518TIP3    H173969   3.686   2.260   1.511  2.5842  0.2607 -0.6340
17518TIP3    H273970   3.758   2.166   1.417 -0.0178 -2.9655  0.4385
17519TIP3   OH273971   5.060   1.067  13.582 -0.1520  0.1818  0.2931
17519TIP3    H173972   5.103   1.093  13.664  0.1056  0.5815  0.0390
17519TIP3    H273973   4.977   1.114  13.583 -0.3501 -0.1757  0.5400
17520TIP3   OH273974   3.178   3.279  11.596 -0.4346  0.2647  0.6834
17520TIP3    H173975   3.174   3.348  11.662 -1.3195 -0.1808  1.1055
17520TIP3    H273976   3.157   3.199  11.643  0.7354 -0.3300  0.2263
17521TIP3   OH273977   5.995   2.245   0.301  0.0599  0.0114  0.6598
17521TIP3    H173978   5.969   2.222   0.212  1.0002  0.5104  0.2443
17521TIP3    H273979   5.930   2.202   0.357 -0.2154 -0.7726 -0.2392
17522TIP3   OH273980   5.498   1.430   3.479 -0.5558 -0.4644 -0.1646
17522TIP3    H173981   5.478   1.356   3.422 -1.3449 -0.6046  0.2737
17522TIP3    H273982   5.587   1.456   3.456 -0.6903 -0.8257 -1.1177
17523TIP3   OH273983   3.360   2.891  11.534  0.8298  0.6661  0.0514
17523TIP3    H173984   3.349   2.954  11.463 -0.7659  0.2250 -0.1304
17523TIP3    H273985   3.404   2.941  11.603  0.3317  1.7554 -0.3884
17524TIP3   OH273986   3.316   2.796   3.401  0.0683 -0.1159 -0.3667
17524TIP3    H173987   3.268   2.851   3.463 -1.9076  0.3548 -2.2297
17524TIP3    H273988   3.329   2.713   3.447  1.9710  1.3610  2.0223
17525TIP3   OH273989   0.996   5.202   6.197 -0.4233 -0.3696  0.0692
17525TIP3    H173990   1.079   5.249   6.208 -1.7109  1.4710  3.4229
17525TIP3    H273991   1.014   5.114   6.228  0.6521 -0.4913 -0.8334
17526TIP3   OH273992   3.207   4.006  14.830 -0.1157 -0.1784  0.7064
17526TIP3    H173993   3.278   3.966  14.881  0.0859 -0.2119  0.4049
17526TIP3    H273994   3.144   3.935  14.817  0.1885 -0.3742  0.2691
17527TIP3   OH273995   4.193   2.472   1.324  0.4474 -0.0497  0.0057
17527TIP3    H173996   4.201   2.552   1.273 -0.0871  0.6587  1.0089
17527TIP3    H273997   4.142   2.413   1.269  0.8478  0.2838 -0.7400
17528TIP3   OH273998   1.483   1.246  10.757  0.3132 -0.2260  0.2314
17528TIP3    H173999   1.503   1.201  10.675 -1.8065  0.1754 -0.5740
17528TIP3    H274000   1.397   1.212  10.783 -0.1801  1.4472  0.9485
17529TIP3   OH274001   6.000   1.840  15.898 -0.1337  0.2672 -0.0987
17529TIP3    H174002   5.918   1.871  15.861 -0.9204  0.6432  1.8274
17529TIP3    H274003   6.023   1.907  15.964 -1.1389 -2.3803  3.2023
17530TIP3   OH274004   1.622   0.531   0.196 -0.5749  0.0415 -0.0444
17530TIP3    H174005   1.531   0.531   0.165 -0.3740  0.4723 -0.6613
17530TIP3    H274006   1.620   0.584   0.276 -1.1850 -1.4607  0.9881
17531TIP3   OH274007   2.466   3.588  16.394  0.2082  0.5759  0.3775
17531TIP3    H174008   2.475   3.555  16.483  0.4336 -1.0407 -0.2008
17531TIP3    H274009   2.379   3.628  16.391  0.3725  1.0305  1.4215
17532TIP3   OH274010   2.002   3.501  12.231  0.9237 -0.2471 -0.0606
17532TIP3    H174011   2.002   3.488  12.136 -2.3453 -0.5316 -0.1347
17532TIP3    H274012   2.053   3.581  12.244  0.4883  0.4384 -2.1932
17533TIP3   OH274013   5.030   3.311   3.944 -0.1647 -0.2484  0.4008
17533TIP3    H174014   5.106   3.310   4.003  0.4911  1.1571 -0.3920
17533TIP3    H274015   4.957   3.339   4.000  0.0610 -0.7723  0.9720
17534TIP3   OH274016   3.553   4.551  15.240 -0.4460 -0.3809 -0.8193
17534TIP3    H174017   3.527   4.482  15.178 -0.8790 -0.4867 -0.5267
17534TIP3    H274018   3.573   4.503  15.321 -2.5938 -0.0476 -0.0101
17535TIP3   OH274019   6.433   0.411  12.111  0.1397 -0.2870 -0.0826
17535TIP3    H174020   6.347   0.422  12.151  0.9703  0.3714  1.6044
17535TIP3    H274021   6.416   0.414  12.016 -2.1270 -3.7465  0.0431
17536TIP3   OH274022   2.842   0.631   0.496 -0.4609 -0.1026  0.0637
17536TIP3    H174023   2.782   0.652   0.568  1.7351  0.4900  1.8419
17536TIP3    H274024   2.799   0.666   0.418 -2.6046 -0.1256  1.1662
17537TIP3   OH274025   2.475   1.351   4.368 -0.0111  0.0010  0.0820
17537TIP3    H174026   2.430   1.402   4.434  0.9476 -2.3128  2.7192
17537TIP3    H274027   2.526   1.415   4.318 -0.7741  1.8367  1.5524
17538TIP3   OH274028   3.206   1.676   3.376  0.3447  0.6157  0.2292
17538TIP3    H174029   3.169   1.602   3.425  1.4503  1.0765  1.8190
17538TIP3    H274030   3.221   1.743   3.442  0.9004  1.6702 -0.9381
17539TIP3   OH274031   4.372   2.721   5.794  0.3942  0.3564  0.1367
17539TIP3    H174032   4.387   2.779   5.720  2.7445  0.1084  0.3637
17539TIP3    H274033   4.322   2.647   5.758  0.1321  0.9856 -0.8154
17540TIP3   OH274034   2.247   3.719  13.189  0.5634  0.1327 -0.2562
17540TIP3    H174035   2.330   3.757  13.220  0.9187  0.0137 -1.0312
17540TIP3    H274036   2.233   3.643  13.245  1.1810 -0.0655 -0.3655
17541TIP3   OH274037   0.878   2.050  13.699  0.0252  1.0580 -0.3269
17541TIP3    H174038   0.944   2.019  13.637 -0.6894 -4.3764  1.0446
17541TIP3    H274039   0.797   2.055  13.647  0.0170 -0.5296 -0.5254
17542TIP3   OH274040   4.427   0.614  12.246 -0.2835 -0.3282  0.0591
17542TIP3    H174041   4.521   0.620  12.228 -0.3971 -0.3971 -0.5831
17542TIP3    H274042   4.393   0.560  12.175 -0.6221 -1.3313  0.9617
17543TIP3   OH274043   0.445   2.223  17.134 -0.4242 -0.3837  0.2092
17543TIP3    H174044   0.517   2.175  17.094 -0.6542 -0.5792  0.0230
17543TIP3    H274045   0.417   2.285  17.066 -1.1354 -1.0515 -0.1228
17544TIP3   OH274046   3.885   2.629   3.155  0.0326  0.4656 -0.5904
17544TIP3    H174047   3.820   2.699   3.151 -0.6066 -0.1691 -1.9163
17544TIP3    H274048   3.959   2.662   3.103  0.9308  1.3056  1.1539
17545TIP3   OH274049   5.127   4.760   1.206 -0.6532  0.0077  0.2826
17545TIP3    H174050   5.147   4.690   1.144  0.4075 -0.3320  0.9791
17545TIP3    H274051   5.190   4.829   1.187 -0.2096 -0.1676  1.0700
17546TIP3   OH274052   4.354   5.346  13.467 -0.5541  0.0319  0.2750
17546TIP3    H174053   4.303   5.355  13.387 -1.9641 -0.4723  1.0775
17546TIP3    H274054   4.424   5.284  13.445  0.3622  1.4666 -1.1153
17547TIP3   OH274055   6.115   5.636  16.854  0.5363  0.1763 -0.1895
17547TIP3    H174056   6.096   5.634  16.760  1.1937  0.3085 -0.3310
17547TIP3    H274057   6.174   5.562  16.868 -0.6238 -0.6836  0.3750
17548TIP3   OH274058   2.846   5.798   2.505 -0.2035 -0.6718  0.5378
17548TIP3    H174059   2.878   5.741   2.574  0.7736 -2.6648 -1.4252
17548TIP3    H274060   2.802   5.739   2.443 -0.4647  0.9116 -0.8646
17549TIP3   OH274061   4.502   6.655  13.753  0.2677 -0.0544  0.1213
17549TIP3    H174062   4.523   6.562  13.742  1.7383  0.1543  0.9608
17549TIP3    H274063   4.428   6.656  13.813 -1.3689 -0.7502 -1.7618
17550TIP3   OH274064   3.369   2.354   1.349 -0.4443  0.7065 -0.0562
17550TIP3    H174065   3.295   2.345   1.289  0.7739 -1.8452 -1.3385
17550TIP3    H274066   3.446   2.355   1.293  0.6109  1.1211  1.3428
17551TIP3   OH274067   4.802   3.654  14.512  0.6296 -0.4936 -0.3807
17551TIP3    H174068   4.872   3.592  14.489  0.3170 -0.8819 -0.3113
17551TIP3    H274069   4.793   3.710  14.435  0.5891 -0.8523 -0.6433
17552TIP3   OH274070   5.289   5.817   1.315  0.2926 -0.1092  0.6238
17552TIP3    H174071   5.315   5.862   1.235 -0.2439 -0.4972  0.2187
17552TIP3    H274072   5.315   5.876   1.386 -0.1118  0.6973  0.1195
17553TIP3   OH274073   4.729   5.229   4.607  0.0289  0.0075 -0.0762
17553TIP3    H174074   4.715   5.180   4.526 -0.0509 -0.0665 -0.0176
17553TIP3    H274075   4.797   5.180   4.653 -0.3074 -0.2503  0.1491
17554TIP3   OH274076   0.838   4.179  15.705 -0.2525  0.2215 -0.0537
17554TIP3    H174077   0.873   4.268  15.703 -1.5327  0.7604  0.4224
17554TIP3    H274078   0.743   4.191  15.716 -0.5336 -1.1813 -0.7040
17555TIP3   OH274079   0.957   4.861   0.557  0.1278 -0.0323  0.2381
17555TIP3    H174080   1.031   4.908   0.597  0.0817 -1.0161  1.5555
17555TIP3    H274081   0.988   4.770   0.549 -0.6417 -0.2818 -0.0089
17556TIP3   OH274082   2.391   2.468  13.498  0.1674 -0.4052 -0.2761
17556TIP3    H174083   2.398   2.386  13.547 -0.6394  0.0635  0.6756
17556TIP3    H274084   2.312   2.458  13.445 -0.0985 -0.1437  0.0642
17557TIP3   OH274085   5.234   0.962  12.655 -0.4614 -0.5649  0.6440
17557TIP3    H174086   5.210   1.008  12.736 -0.3638 -0.7161  0.7584
17557TIP3    H274087   5.317   0.920  12.675 -0.0608  0.0065  0.2277
17558TIP3   OH274088   4.653   0.822  14.531 -0.2697  0.1015  0.3512
17558TIP3    H174089   4.589   0.865  14.587  0.7108 -0.3180  1.8390
17558TIP3    H274090   4.668   0.884  14.459 -3.1093 -0.2368 -0.6568
17559TIP3   OH274091   2.309   5.730  12.718  0.3224 -0.3458  0.0316
17559TIP3    H174092   2.266   5.644  12.720  3.7125 -2.2229 -0.1943
17559TIP3    H274093   2.317   5.755  12.810  0.3615 -0.8664  0.1729
17560TIP3   OH274094   2.394   5.813   3.254 -0.9883 -0.4290 -0.0835
17560TIP3    H174095   2.351   5.831   3.171  1.1754 -1.7493 -1.5887
17560TIP3    H274096   2.476   5.770   3.230  0.6006  0.7961  2.6567
17561TIP3   OH274097   1.957   6.559  14.635  0.3547  0.8798  0.3067
17561TIP3    H174098   1.916   6.507  14.565  0.3212  0.1067  0.8872
17561TIP3    H274099   1.990   6.494  14.696 -1.3096  1.5382  2.0025
17562TIP3   OH274100   1.186   2.785  12.807 -0.2524  0.7471  0.1144
17562TIP3    H174101   1.239   2.862  12.785 -0.9903  0.8325 -1.5459
17562TIP3    H274102   1.112   2.788  12.746 -0.3822 -1.2009  0.0974
17563TIP3   OH274103   3.137   1.811  16.624 -0.1279  0.8686  0.3120
17563TIP3    H174104   3.212   1.845  16.672  2.3972 -1.3991 -1.6853
17563TIP3    H274105   3.118   1.726  16.665  0.3183  0.1388 -0.9284
17564TIP3   OH274106   5.418   0.442   4.500  0.5064 -0.0449 -0.1224
17564TIP3    H174107   5.497   0.458   4.448 -0.3888  0.0991 -1.4935
17564TIP3    H274108   5.413   0.347   4.508  1.7045 -0.0161  1.4440
17565TIP3   OH274109   5.132   1.630  12.482  0.2942 -0.0495 -0.2491
17565TIP3    H174110   5.085   1.550  12.462 -1.5011  0.6053  1.0316
17565TIP3    H274111   5.186   1.608  12.558 -1.6511  0.3581  1.3422
17566TIP3   OH274112   1.147   5.952  14.653  0.0969  0.3731  0.3556
17566TIP3    H174113   1.205   5.876  14.666  0.0828  0.4520  0.9423
17566TIP3    H274114   1.153   5.971  14.560  1.2376  0.5437  0.4402
17567TIP3   OH274115   0.562   6.254   0.270 -0.2409 -0.2731  0.0814
17567TIP3    H174116   0.602   6.246   0.183  0.1902 -1.6900  0.3721
17567TIP3    H274117   0.472   6.226   0.257 -0.8727  1.8155 -0.3481
17568TIP3   OH274118   5.455   2.636   5.460 -0.3589  0.2289 -0.6718
17568TIP3    H174119   5.428   2.633   5.368 -2.2350  1.2895 -0.2117
17568TIP3    H274120   5.503   2.718   5.468  0.2667 -0.1205 -0.8103
17569TIP3   OH274121   2.798   2.513   6.423  0.3472  0.7201 -0.2051
17569TIP3    H174122   2.867   2.536   6.360  2.1864 -2.8660  0.2628
17569TIP3    H274123   2.768   2.426   6.396 -1.1169  0.4459  1.9973
17570TIP3   OH274124   2.031   3.370  16.712 -0.3578  0.1771 -0.2595
17570TIP3    H174125   2.097   3.358  16.644  0.1527 -0.4116  0.3282
17570TIP3    H274126   1.991   3.284  16.724 -1.4754  0.5924 -0.8363
17571TIP3   OH274127   4.501   3.369   3.154 -0.1330  0.1613 -0.0472
17571TIP3    H174128   4.550   3.336   3.079  1.6627  1.9381  0.2620
17571TIP3    H274129   4.495   3.294   3.214  1.6297 -0.2962 -0.3937
17572TIP3   OH274130   0.370   2.612  11.710  1.1700 -0.7644  0.0624
17572TIP3    H174131   0.356   2.523  11.740  2.4059 -1.6768 -1.8665
17572TIP3    H274132   0.465   2.623  11.709  1.0766  1.5565  2.7651
17573TIP3   OH274133   4.551   6.563   4.873 -0.1327  0.2389  0.2770
17573TIP3    H174134   4.604   6.631   4.831 -0.9575  1.1396  0.6394
17573TIP3    H274135   4.465   6.604   4.884 -1.3154 -1.6029 -1.4812
17574TIP3   OH274136   4.487   3.681   4.605  0.0932  0.0754  0.0883
17574TIP3    H174137   4.549   3.737   4.653 -1.5506  1.7772  0.3308
17574TIP3    H274138   4.514   3.690   4.514  0.4494  0.4776  0.2258
17575TIP3   OH274139   3.036   4.656  17.118  0.2874 -0.1986 -0.4309
17575TIP3    H174140   3.035   4.750  17.135 -0.9256 -0.3453  0.3869
17575TIP3    H274141   3.083   4.619  17.194  2.1632 -0.1557 -1.4978
17576TIP3   OH274142   1.592   6.707  14.180  0.1892 -0.1769  0.1985
17576TIP3    H174143   1.628   6.762  14.110 -0.5369 -0.6698 -0.5718
17576TIP3    H274144   1.539   6.642  14.135 -1.6970  0.5243  1.2764
17577TIP3   OH274145   5.558   5.570  17.165  0.0932 -0.4710  0.6406
17577TIP3    H174146   5.514   5.539  17.085  0.9215 -0.7529  0.2861
17577TIP3    H274147   5.615   5.498  17.190  1.7216  0.5732  0.0592
17578TIP3   OH274148   5.111   4.135  16.345 -0.0776  0.5733 -0.0751
17578TIP3    H174149   5.104   4.062  16.284  0.7001 -0.2530  0.8054
17578TIP3    H274150   5.192   4.180  16.321  1.0516 -0.6590  1.2791
17579TIP3   OH274151   6.758   5.592  11.381 -0.4955  0.1417  0.3044
17579TIP3    H174152   6.696   5.654  11.422  0.6495  0.0496  2.2921
17579TIP3    H274153   6.806   5.645  11.318 -0.1757  1.0977  1.3130
17580TIP3   OH274154   0.628   5.306  15.006 -0.7715 -0.2652 -0.0160
17580TIP3    H174155   0.560   5.357  14.964  0.4133  2.0911  0.7812
17580TIP3    H274156   0.709   5.336  14.967 -0.0595 -2.5136 -0.4484
17581TIP3   OH274157   0.728   0.091  13.307  0.0183 -0.6183  0.4296
17581TIP3    H174158   0.717  -0.001  13.330 -2.2568  0.1744  3.2045
17581TIP3    H274159   0.775   0.129  13.382 -2.5187  1.0788  1.3286
17582TIP3   OH274160   5.395   0.184   4.376 -0.4372 -0.6002  0.1930
17582TIP3    H174161   5.477   0.138   4.358 -1.4597 -2.2736 -0.3536
17582TIP3    H274162   5.364   0.212   4.290 -0.3965  0.1428  0.4119
17583TIP3   OH274163   0.790   1.598   1.179 -0.2650  0.0586 -0.0523
17583TIP3    H174164   0.877   1.634   1.194 -0.9209  1.0974  1.4993
17583TIP3    H274165   0.730   1.666   1.207 -1.5787 -1.1235  0.1400
17584TIP3   OH274166   5.054   3.973   1.848  0.3430 -0.0949 -0.4281
17584TIP3    H174167   5.146   3.947   1.855  0.4305  0.1038 -0.7937
17584TIP3    H274168   5.047   4.052   1.902 -0.0761 -1.2144  1.2373
17585TIP3   OH274169   2.193   4.002   0.439 -0.1521 -0.1919 -0.3984
17585TIP3    H174170   2.137   3.936   0.397 -1.6055  1.0231 -0.4749
17585TIP3    H274171   2.161   4.085   0.405  0.3837  0.6654  1.0905
17586TIP3   OH274172   1.104   5.414   1.127 -0.1434  0.1120  0.2409
17586TIP3    H174173   1.197   5.417   1.104 -0.1006  0.0969  0.4104
17586TIP3    H274174   1.098   5.463   1.209  0.2674 -2.6798  2.0517
17587TIP3   OH274175   5.177   5.063   4.649 -0.9624 -0.0823 -0.9018
17587TIP3    H174176   5.111   5.129   4.626 -1.9323  0.4647  2.7328
17587TIP3    H274177   5.127   4.982   4.658 -1.0233  0.0947  0.7367
17588TIP3   OH274178   2.158   1.749  16.488 -0.0033 -0.4733  0.4586
17588TIP3    H174179   2.153   1.825  16.429  0.0932 -2.0151 -1.6372
17588TIP3    H274180   2.248   1.718  16.478 -0.3326 -1.4497  0.5191
17589TIP3   OH274181   0.580   6.245   5.054 -0.9609 -0.4051  0.2264
17589TIP3    H174182   0.601   6.193   5.131 -0.7317  0.1744  0.5602
17589TIP3    H274183   0.507   6.198   5.013  1.2846 -2.8002 -1.3184
17590TIP3   OH274184   3.613   0.126   2.094  0.3433 -0.3388  0.3407
17590TIP3    H174185   3.571   0.096   2.013 -0.9932  1.7770  0.1632
17590TIP3    H274186   3.676   0.192   2.065 -0.9997  1.3125  1.0574
17591TIP3   OH274187   3.965   2.992   5.348  0.2214 -0.1818 -0.2395
17591TIP3    H174188   3.954   2.928   5.418  0.3600  0.5009  0.4103
17591TIP3    H274189   4.055   3.023   5.357 -0.0782  0.6653 -0.0640
17592TIP3   OH274190   0.113   6.592  16.942  0.8029 -0.2154  0.4148
17592TIP3    H174191   0.121   6.497  16.938 -0.9343 -0.3717 -1.9358
17592TIP3    H274192   0.166   6.624  16.869  0.2071  0.4742  0.2697
17593TIP3   OH274193   2.714   2.721  14.095  0.8646  0.1470 -0.3314
17593TIP3    H174194   2.717   2.779  14.019  0.1287  1.5972  0.7163
17593TIP3    H274195   2.795   2.670  14.089  0.6904 -0.0003 -2.2282
17594TIP3   OH274196   6.004   2.098   5.241 -0.1372 -0.4298  0.0840
17594TIP3    H174197   6.000   2.042   5.318 -2.1076 -0.8726 -0.2858
17594TIP3    H274198   5.970   2.182   5.271  0.9476 -0.0004  0.1539
17595TIP3   OH274199   4.563   5.143   5.675 -0.0663  1.1266  0.4194
17595TIP3    H174200   4.547   5.226   5.630 -1.6734 -0.1150 -1.4417
17595TIP3    H274201   4.601   5.086   5.608  0.1387  0.0549  1.4057
17596TIP3   OH274202   3.922   4.822   0.111 -0.2158 -0.7968 -1.3456
17596TIP3    H174203   3.918   4.765   0.188 -2.3001  2.7725  1.5426
17596TIP3    H274204   4.004   4.870   0.121 -1.5551  1.3926  0.2880
17597TIP3   OH274205   3.120   3.801   4.568  0.0817  0.3144 -0.0708
17597TIP3    H174206   3.050   3.765   4.512 -0.1832  1.6686 -0.6572
17597TIP3    H274207   3.161   3.724   4.607 -1.3559 -0.5511 -0.1730
17598TIP3   OH274208   0.840   4.086  15.958 -0.4583 -0.6052  0.0562
17598TIP3    H174209   0.788   4.110  15.881 -1.0032  0.6673  0.7953
17598TIP3    H274210   0.913   4.148  15.959 -0.9496 -0.0177  1.0529
17599TIP3   OH274211   5.140   3.629  15.396 -0.5128  0.1381 -0.1444
17599TIP3    H174212   5.067   3.637  15.335 -1.1855 -0.5535  0.5391
17599TIP3    H274213   5.207   3.689  15.362 -1.0672  0.1536 -1.2483
17600TIP3   OH274214   3.692   1.843   5.934 -0.4131 -0.5787 -0.0083
17600TIP3    H174215   3.753   1.771   5.918 -0.9883 -1.5597  1.8404
17600TIP3    H274216   3.681   1.843   6.029  1.1622  3.3269  0.3423
17601TIP3   OH274217   3.056   2.377   3.850 -0.1452  0.4186  0.1752
17601TIP3    H174218   3.003   2.305   3.818 -2.5699  1.1523  2.2127
17601TIP3    H274219   3.146   2.346   3.843 -0.9608 -1.8696 -1.1333
17602TIP3   OH274220   5.884   0.771  12.917  0.1371  0.6610 -0.0682
17602TIP3    H174221   5.975   0.779  12.890  0.8325 -0.0542  1.8821
17602TIP3    H274222   5.887   0.772  13.013 -2.1606  3.1988  0.1031
17603TIP3   OH274223   1.475   1.107  12.408 -0.0161  0.7069 -0.4325
17603TIP3    H174224   1.519   1.183  12.368  0.9287  0.4291  0.0404
17603TIP3    H274225   1.389   1.140  12.433  0.2326  1.5158 -0.6047
17604TIP3   OH274226   3.234   0.321   6.342 -0.5147 -0.5251 -0.5550
17604TIP3    H174227   3.163   0.359   6.394 -0.2275 -0.9034  0.1294
17604TIP3    H274228   3.313   0.365   6.374 -0.4622  0.0735 -1.4879
17605TIP3   OH274229   0.671   3.292  12.849  0.1817 -0.6128  0.1029
17605TIP3    H174230   0.762   3.266  12.862  0.6322  0.9760  0.2924
17605TIP3    H274231   0.664   3.307  12.754  0.2463 -0.2612  0.1545
17606TIP3   OH274232   1.952   0.241  12.350  0.0976  0.5304 -0.2010
17606TIP3    H174233   1.994   0.161  12.318  0.1399  1.6012 -3.0712
17606TIP3    H274234   2.021   0.288  12.397  0.9741  0.3497 -1.2778
17607TIP3   OH274235   0.481   2.098  14.879  0.2891 -0.5815  0.2766
17607TIP3    H174236   0.573   2.085  14.904  0.5840 -0.1502 -0.5499
17607TIP3    H274237   0.431   2.058  14.950  1.0862  0.9361  1.7663
17608TIP3   OH274238   5.057   2.422   3.293 -0.1482 -0.0061  0.4972
17608TIP3    H174239   4.993   2.364   3.335  0.3930 -1.1964 -0.2603
17608TIP3    H274240   5.142   2.385   3.318  0.1967  0.2159 -0.3268
17609TIP3   OH274241   5.994   1.182  11.303  0.4668 -0.3540  0.0679
17609TIP3    H174242   5.984   1.218  11.391 -0.8437 -0.3448 -0.0601
17609TIP3    H274243   6.031   1.254  11.251 -1.1890  0.5287  0.0410
17610TIP3   OH274244   2.963   5.310  13.858 -0.5494  1.1302  0.2572
17610TIP3    H174245   3.034   5.371  13.838  1.2874 -0.1306  2.4476
17610TIP3    H274246   2.929   5.340  13.942 -0.3556 -0.1677  0.8212
17611TIP3   OH274247   5.135   5.613   1.743 -0.2936  0.1728 -0.2113
17611TIP3    H174248   5.061   5.666   1.773 -0.8813 -1.2647  0.9862
17611TIP3    H274249   5.110   5.523   1.763  1.3296 -0.4400 -0.7761
17612TIP3   OH274250   0.135   3.933  14.874  0.0063 -0.1984 -0.2008
17612TIP3    H174251   0.109   3.906  14.786 -1.1504 -0.6351  0.2526
17612TIP3    H274252   0.052   3.941  14.922  0.6280 -0.1356  0.8924
17613TIP3   OH274253   2.803   2.298  12.924 -0.3917 -0.2944  0.1019
17613TIP3    H174254   2.835   2.220  12.878 -1.1568  1.2653 -3.3180
17613TIP3    H274255   2.708   2.285  12.929 -0.6265  0.7232 -1.2368
17614TIP3   OH274256   6.015   1.911   4.209  0.4529 -0.3283  0.2639
17614TIP3    H174257   6.061   1.839   4.250 -0.2109 -1.3305 -0.6817
17614TIP3    H274258   5.922   1.893   4.225  0.3060  1.4661  1.8472
17615TIP3   OH274259   3.982   0.058   6.305 -0.2528  1.0022  0.1052
17615TIP3    H174260   3.974  -0.014   6.242 -0.7590  1.3702 -0.2577
17615TIP3    H274261   4.066   0.099   6.284  0.7423 -0.3647  1.2617
17616TIP3   OH274262   4.149   2.859   3.866  0.9184  0.4404 -0.0256
17616TIP3    H174263   4.082   2.815   3.813  1.6580 -0.2085 -0.4407
17616TIP3    H274264   4.222   2.797   3.869  0.9038  0.4436  1.7587
17617TIP3   OH274265   3.696   3.021   3.657  0.5345 -0.3145  0.0849
17617TIP3    H174266   3.631   2.987   3.718 -0.0801  1.8096  0.7028
17617TIP3    H274267   3.696   2.959   3.584 -1.9152 -0.5856  0.2447
17618TIP3   OH274268   6.759   5.299  11.363  0.9603  0.0404 -0.0842
17618TIP3    H174269   6.851   5.305  11.337  1.0124  0.2657  0.1518
17618TIP3    H274270   6.716   5.370  11.315  0.5762 -1.1497 -1.5940
17619TIP3   OH274271   0.758   2.579   2.633  0.0795  0.3208 -0.2968
17619TIP3    H174272   0.738   2.492   2.667 -0.6542 -0.2797 -2.1360
17619TIP3    H274273   0.775   2.633   2.711 -1.2593 -1.0051  0.9563
17620TIP3   OH274274   2.564   3.795  12.402 -0.3134  0.5265 -0.3294
17620TIP3    H174275   2.503   3.824  12.469  0.9942  0.7182  0.8196
17620TIP3    H274276   2.601   3.876  12.367 -0.8973  0.4231 -1.2255
17621TIP3   OH274277   1.517   5.374   0.817  0.1968  0.4917  0.2383
17621TIP3    H174278   1.537   5.285   0.786  0.7320  1.0817 -1.2021
17621TIP3    H274279   1.584   5.429   0.777 -1.9151  1.9804 -1.4781
17622TIP3   OH274280   3.645   5.619   4.648 -0.2405 -0.1413  0.0769
17622TIP3    H174281   3.582   5.588   4.583  0.2203 -0.5756 -0.1716
17622TIP3    H274282   3.601   5.691   4.692 -1.0791 -0.7105  0.1965
17623TIP3   OH274283   2.799   1.228  16.725  0.4482 -0.3199 -0.2786
17623TIP3    H174284   2.806   1.286  16.800 -0.2414  1.1047 -1.2536
17623TIP3    H274285   2.780   1.142  16.762  2.0882 -0.0794  1.2411
17624TIP3   OH274286   1.195   6.034   2.162 -0.1867 -0.3721 -0.3295
17624TIP3    H174287   1.139   6.010   2.235  1.7212 -1.6707  0.7882
17624TIP3    H274288   1.165   5.978   2.090 -0.5215 -0.8351  0.1616
17625TIP3   OH274289   4.699   6.307   6.690 -0.3300  0.4537  0.2725
17625TIP3    H174290   4.749   6.297   6.609 -1.6633  1.1453 -0.6768
17625TIP3    H274291   4.641   6.231   6.693 -0.3100  0.4458  0.5723
17626TIP3   OH274292   1.727   3.165  11.363  0.1891 -0.1788  0.1869
17626TIP3    H174293   1.632   3.174  11.359  0.1584  0.7911  1.9002
17626TIP3    H274294   1.742   3.088  11.418  0.3710  0.2585  0.7613
17627TIP3   OH274295   0.934   2.208   4.101  0.8257 -0.1521  0.1840
17627TIP3    H174296   0.919   2.177   4.190  1.4354  0.0578  0.3665
17627TIP3    H274297   1.018   2.169   4.076  1.5430  1.2129  0.3673
17628TIP3   OH274298   4.564   2.854   5.110  0.0688  0.1735  0.0665
17628TIP3    H174299   4.471   2.851   5.131  0.2569 -2.3239  0.8013
17628TIP3    H274300   4.590   2.944   5.133 -2.4331  1.4932 -1.7633
17629TIP3   OH274301   0.132   0.619  11.363 -0.3749  0.1261  0.8085
17629TIP3    H174302   0.098   0.598  11.450  0.1182  0.5014  1.0915
17629TIP3    H274303   0.091   0.702  11.340 -1.8821 -0.8020 -0.0737
17630TIP3   OH274304   5.028   2.747   5.276 -0.0557  0.1366 -0.3261
17630TIP3    H174305   4.979   2.812   5.227 -0.4270  0.9612  1.0653
17630TIP3    H274306   5.022   2.776   5.367 -0.5674 -2.0571  0.4042
17631TIP3   OH274307   4.519   2.640  16.875  0.1098  0.2950 -0.1430
17631TIP3    H174308   4.596   2.618  16.823  0.7948  0.9329  0.5862
17631TIP3    H274309   4.532   2.597  16.959 -1.8200 -2.2046 -0.9975
17632TIP3   OH274310   5.607   2.671  12.353  0.3847  0.2658  0.3689
17632TIP3    H174311   5.535   2.694  12.411 -1.1829 -1.1648 -0.8792
17632TIP3    H274312   5.590   2.579  12.330  0.8625  0.7739 -2.3448
17633TIP3   OH274313   0.029   3.937   4.108 -0.1131  0.0662 -0.2729
17633TIP3    H174314   0.014   3.980   4.192  2.3020  0.6861 -0.0972
17633TIP3    H274315  -0.029   3.983   4.047 -1.8281 -0.3316  0.9761
17634TIP3   OH274316   1.635   4.606   4.357 -0.0590 -0.0890 -0.1715
17634TIP3    H174317   1.598   4.558   4.283  0.8545 -4.3755  1.8489
17634TIP3    H274318   1.559   4.639   4.405 -0.7269  0.8981 -1.8540
17635TIP3   OH274319   6.568   0.686  12.782 -0.5128 -0.1925  0.0994
17635TIP3    H174320   6.638   0.692  12.847  1.3822 -2.0770 -1.6222
17635TIP3    H274321   6.498   0.638  12.827  0.7768 -1.5020  0.7932
17636TIP3   OH274322   1.265   3.395  11.953 -0.0327  0.2838  0.0412
17636TIP3    H174323   1.296   3.434  11.871  0.1766 -0.5137 -0.2765
17636TIP3    H274324   1.311   3.311  11.957 -0.1079  0.2828  0.9388
17637TIP3   OH274325   3.854   3.869   4.206 -0.3019  0.2319 -0.0267
17637TIP3    H174326   3.769   3.828   4.192  0.0496  0.2675 -2.7821
17637TIP3    H274327   3.835   3.963   4.208 -0.5131  0.1832  1.3310
17638TIP3   OH274328   1.843   3.191  13.088 -0.1168 -0.3845 -0.2182
17638TIP3    H174329   1.826   3.105  13.126  0.7554 -0.7513 -0.6378
17638TIP3    H274330   1.906   3.232  13.146  1.6130 -1.1462 -1.4663
17639TIP3   OH274331   6.551   3.581  15.319 -0.0592 -0.0597  0.0918
17639TIP3    H174332   6.637   3.551  15.287  0.3542  0.4234  0.7142
17639TIP3    H274333   6.564   3.674  15.335 -0.2114 -0.2976  1.7539
17640TIP3   OH274334   5.833   2.814   2.067 -0.4052 -0.4924 -0.4138
17640TIP3    H174335   5.924   2.842   2.064 -0.7969  1.3814  2.2123
17640TIP3    H274336   5.795   2.847   1.986  0.3921  2.1693  0.2176
17641TIP3   OH274337   3.946   0.353  17.002 -0.1496  0.1865  0.1756
17641TIP3    H174338   4.023   0.396  17.040 -0.9667  0.0038  2.1382
17641TIP3    H274339   3.938   0.271  17.050 -0.4456 -0.7337 -1.3787
17642TIP3   OH274340   1.198   4.437   4.964  0.0840  0.2818  0.6716
17642TIP3    H174341   1.254   4.452   5.040  0.4046  1.3585  0.2534
17642TIP3    H274342   1.171   4.525   4.936  1.2103  0.0595 -1.3422
17643TIP3   OH274343   5.678   1.578  11.480  0.1711  0.2799 -0.0232
17643TIP3    H174344   5.636   1.601  11.397  0.3054 -0.0001 -0.1702
17643TIP3    H274345   5.699   1.485  11.471  0.5449  0.3456  0.1694
17644TIP3   OH274346   0.037   4.565  11.535 -0.3434  0.2055 -0.0628
17644TIP3    H174347   0.006   4.475  11.519 -2.8384  0.6669  1.6337
17644TIP3    H274348   0.118   4.554  11.585 -0.7071 -1.1133  0.2766
17645TIP3   OH274349   1.670   0.709   3.296  0.1395  0.0665  0.1859
17645TIP3    H174350   1.693   0.801   3.313  0.2523  0.3818 -1.4670
17645TIP3    H274351   1.738   0.679   3.235  0.3400 -1.2611  1.0266
17646TIP3   OH274352   1.168   5.238  11.872  0.9679 -0.9637  0.3033
17646TIP3    H174353   1.124   5.314  11.834  3.0209  0.3926  0.4953
17646TIP3    H274354   1.138   5.164  11.819  0.2066  0.2233 -0.9915
17647TIP3   OH274355   5.089   3.384  15.175 -0.3617  0.7243 -0.0835
17647TIP3    H174356   5.053   3.393  15.087 -1.0155 -0.3846  0.0473
17647TIP3    H274357   5.176   3.423  15.170 -0.6884  1.3708 -1.0152
17648TIP3   OH274358   1.034   4.775  11.293  0.3343 -0.5456 -0.1512
17648TIP3    H174359   1.093   4.724  11.238 -0.2286 -1.2187 -0.1401
17648TIP3    H274360   1.091   4.838  11.338  0.9336 -0.6835 -0.7116
17649TIP3   OH274361   0.256   3.810   2.869  0.5856 -0.2645  0.0154
17649TIP3    H174362   0.239   3.841   2.958  0.4517  1.9206 -0.7076
17649TIP3    H274363   0.348   3.785   2.870  1.0335  1.2889  0.3915
17650TIP3   OH274364   1.002   3.633   5.161  0.0501 -0.3315  0.0718
17650TIP3    H174365   0.928   3.612   5.104 -0.5054  2.7000 -0.4897
17650TIP3    H274366   0.963   3.644   5.248 -0.2673  1.5252 -0.2732
17651TIP3   OH274367   2.088   3.832   3.760  0.0028 -0.9738  0.1633
17651TIP3    H174368   2.082   3.915   3.713 -0.1578 -1.1163 -0.0688
17651TIP3    H274369   2.004   3.825   3.807  0.7596 -0.0757  1.7476
17652TIP3   OH274370   2.483   0.060  13.933  0.8908  0.3501  0.4521
17652TIP3    H174371   2.516   0.148  13.914 -2.0085  0.8662 -3.5831
17652TIP3    H274372   2.536   0.002  13.880  0.2783  0.2161 -0.0272
17653TIP3   OH274373   6.047   1.247  13.052  0.1364  0.0567 -0.2355
17653TIP3    H174374   6.097   1.259  12.971  0.2147 -0.4905 -0.2712
17653TIP3    H274375   6.090   1.174  13.097 -0.2266  0.0150  0.0512
17654TIP3   OH274376   0.528   5.402  14.676 -0.4185 -0.5757 -0.5901
17654TIP3    H174377   0.521   5.447  14.760  0.7853 -2.2620  0.4957
17654TIP3    H274378   0.453   5.342  14.674  0.2388 -1.4369 -0.1037
17655TIP3   OH274379   4.536   1.337  12.162  0.5487 -0.2948 -0.0364
17655TIP3    H174380   4.470   1.269  12.161  0.9293 -0.6770 -1.5741
17655TIP3    H274381   4.489   1.416  12.189 -0.3517 -0.7237 -0.3130
17656TIP3   OH274382   3.818   2.800  15.976  0.2484 -0.1650 -0.4355
17656TIP3    H174383   3.810   2.830  16.067 -0.1823 -0.0959 -0.4939
17656TIP3    H274384   3.910   2.776  15.967  0.1907 -0.6414  0.1669
17657TIP3   OH274385   4.154   4.342  12.572  0.2596 -0.2889  0.7582
17657TIP3    H174386   4.182   4.310  12.486 -2.9557 -1.3244 -0.0614
17657TIP3    H274387   4.199   4.284  12.634  0.0754 -1.7655 -0.4148
17658TIP3   OH274388   6.472   3.742  13.520 -0.6309  0.3566  0.0214
17658TIP3    H174389   6.527   3.787  13.457 -0.7936  1.8788  0.9231
17658TIP3    H274390   6.508   3.653  13.524 -0.0489  0.4927 -1.4963
17659TIP3   OH274391   1.571   1.717   4.026 -0.0745 -0.2349 -0.0978
17659TIP3    H174392   1.481   1.687   4.038  0.6599 -1.9253  1.7493
17659TIP3    H274393   1.568   1.810   4.047 -1.1768 -0.5373  1.2350
17660TIP3   OH274394   2.430   3.945  15.885 -0.0624 -0.2042 -0.5508
17660TIP3    H174395   2.468   3.993  15.958  1.9989 -0.6011 -1.3047
17660TIP3    H274396   2.505   3.907  15.839 -1.3597 -0.7559 -2.3270
17661TIP3   OH274397   6.270   4.458  17.157  0.2199  0.2568  0.2441
17661TIP3    H174398   6.197   4.400  17.135 -1.6200  2.3221  0.5614
17661TIP3    H274399   6.250   4.489  17.246  0.6824  1.9724 -0.2091
17662TIP3   OH274400   6.125   6.233   3.108 -0.5305  0.3130  0.4082
17662TIP3    H174401   6.177   6.304   3.071 -0.3943  0.3200  0.6131
17662TIP3    H274402   6.035   6.253   3.080 -0.3773  0.0903 -0.2668
17663TIP3   OH274403   4.682   5.717  12.751 -0.0004 -0.0767 -0.0673
17663TIP3    H174404   4.593   5.708  12.718  0.2443 -0.3350 -0.6719
17663TIP3    H274405   4.737   5.689  12.678  0.5638 -0.2767  0.4323
17664TIP3   OH274406   4.525   2.536  17.131 -0.6953 -0.0846 -0.0505
17664TIP3    H174407   4.608   2.490  17.143  0.2010  0.9366 -1.9045
17664TIP3    H274408   4.462   2.467  17.111  0.3947 -0.6469 -1.7335
17665TIP3   OH274409   0.087   5.762  13.734  0.2832 -0.0178 -0.3848
17665TIP3    H174410   0.061   5.839  13.683  1.1883  2.2984  2.3615
17665TIP3    H274411   0.107   5.696  13.668 -0.2692  2.1634 -2.9430
17666TIP3   OH274412   1.678   3.166  13.746  0.3477  0.2993 -0.2736
17666TIP3    H174413   1.764   3.175  13.704  1.0519  1.5926  1.3770
17666TIP3    H274414   1.651   3.076  13.724  1.3520  0.3911 -2.1614
17667TIP3   OH274415   0.794   6.589   6.323 -0.2573  0.1722 -0.3379
17667TIP3    H174416   0.859   6.565   6.257 -1.0990  1.1174 -1.5532
17667TIP3    H274417   0.758   6.672   6.292 -1.0156  0.4034  1.0759
17668TIP3   OH274418   4.487   6.620   1.078  0.0212  0.0123 -0.2644
17668TIP3    H174419   4.470   6.542   1.025  1.1230 -0.2540 -0.2457
17668TIP3    H274420   4.548   6.590   1.145  0.5125  0.9114 -0.2977
17669TIP3   OH274421   6.681   5.627  11.765 -0.1332  0.1824 -0.1932
17669TIP3    H174422   6.705   5.549  11.714 -0.6620 -1.4102  1.8385
17669TIP3    H274423   6.585   5.626  11.765 -0.1647 -0.3025  1.3641
17670TIP3   OH274424   4.927   1.894  15.062  0.4493  0.0024  0.6103
17670TIP3    H174425   4.906   1.880  15.154  0.4275 -0.2757  0.5656
17670TIP3    H274426   4.948   1.987  15.056 -0.8585  0.3140  0.6354
17671TIP3   OH274427   3.514   5.125   2.748  0.3602  0.6389  0.2865
17671TIP3    H174428   3.470   5.058   2.696 -0.7952  2.4612 -1.2099
17671TIP3    H274429   3.574   5.076   2.804 -0.6638 -1.6484 -0.4919
17672TIP3   OH274430   1.664   4.240   5.454  0.5185  0.2509  0.4102
17672TIP3    H174431   1.744   4.189   5.462  0.0467 -0.6238 -0.3125
17672TIP3    H274432   1.690   4.329   5.476  1.3503 -0.2964  1.7363
17673TIP3   OH274433   6.348   4.667   2.407 -0.4888  0.5952 -0.2803
17673TIP3    H174434   6.281   4.681   2.474  0.0930  0.6606  0.2974
17673TIP3    H274435   6.356   4.572   2.399 -0.5723  0.5873 -0.2658
17674TIP3   OH274436   1.450   5.555  11.896 -0.1963 -0.1583  0.4614
17674TIP3    H174437   1.355   5.541  11.902  0.0791 -2.0217  1.0268
17674TIP3    H274438   1.463   5.645  11.925 -1.8290  0.2646 -0.0199
17675TIP3   OH274439   1.486   1.393  16.309 -0.0769  0.0594 -0.1983
17675TIP3    H174440   1.570   1.435  16.292 -0.1767 -0.1312 -1.2280
17675TIP3    H274441   1.491   1.309  16.263  0.3319 -1.3758  2.2753
17676TIP3   OH274442   4.037   0.946  16.010 -0.1359 -0.8811  0.0843
17676TIP3    H174443   4.019   0.959  15.916  1.7908  0.9694 -0.1028
17676TIP3    H274444   4.109   0.883  16.012 -1.0596 -1.9466  0.4115
17677TIP3   OH274445   2.362   6.259  11.958  0.5555  0.1879 -0.1490
17677TIP3    H174446   2.382   6.262  12.051  0.1006  0.3984 -0.0610
17677TIP3    H274447   2.269   6.238  11.953  0.6944 -0.3584 -0.5629
17678TIP3   OH274448   1.408   2.720   0.015 -0.3770 -0.2397  0.0771
17678TIP3    H174449   1.474   2.740  -0.052  0.3128  0.2373  0.8785
17678TIP3    H274450   1.383   2.629  -0.002  1.2279 -0.7637  0.3810
17679TIP3   OH274451   4.937   0.386   4.342  0.4013 -0.2396  0.5838
17679TIP3    H174452   5.032   0.389   4.331  0.2320 -0.7489 -1.4657
17679TIP3    H274453   4.907   0.324   4.276 -1.4839  1.0380  0.1487
17680TIP3   OH274454   6.578   3.128   5.120 -0.0172  0.9002 -0.2845
17680TIP3    H174455   6.640   3.069   5.163  0.8447  1.5878 -0.5437
17680TIP3    H274456   6.557   3.194   5.187  1.9848  2.4672 -1.0696
17681TIP3   OH274457   2.354   4.268  13.305  0.0693  0.0313  0.1903
17681TIP3    H174458   2.392   4.249  13.219  1.1959 -0.5763  0.7899
17681TIP3    H274459   2.263   4.238  13.298  0.5874 -1.5487 -0.3030
17682TIP3   OH274460   6.519   2.962  11.914  0.1534  0.1767 -0.0400
17682TIP3    H174461   6.504   3.054  11.937 -2.8023  0.3848 -2.1692
17682TIP3    H274462   6.441   2.916  11.945  0.6745 -1.2616 -0.7447
17683TIP3   OH274463   1.854   1.677   1.481 -0.0992 -0.4279  0.3842
17683TIP3    H174464   1.945   1.703   1.494  0.3210 -0.8320 -1.4820
17683TIP3    H274465   1.847   1.591   1.521  0.3153 -0.3643  0.5969
17684TIP3   OH274466   2.228   4.700   3.289  0.0244 -1.0352  0.2381
17684TIP3    H174467   2.234   4.787   3.327 -0.8564  0.3523 -2.5009
17684TIP3    H274468   2.137   4.674   3.303 -0.0471 -0.9396 -0.0338
17685TIP3   OH274469   6.766   1.889  14.154 -0.7192  0.0931 -0.3371
17685TIP3    H174470   6.749   1.983  14.146 -1.5018  0.1264  1.2708
17685TIP3    H274471   6.777   1.858  14.064  0.1464  1.8153 -0.8716
17686TIP3   OH274472   3.043   0.818  13.160 -0.2558  0.4809 -0.7420
17686TIP3    H174473   2.981   0.887  13.138 -3.1199 -2.0833 -1.3821
17686TIP3    H274474   3.071   0.839  13.249 -2.7427  1.3397 -0.0808
17687TIP3   OH274475   1.966   6.416   2.819  0.4206 -0.3036  0.4223
17687TIP3    H174476   2.017   6.485   2.777  0.4321 -0.6217 -0.0999
17687TIP3    H274477   1.995   6.417   2.911  1.1238 -0.2600  0.2029
17688TIP3   OH274478   2.889   4.075  12.489 -0.6304  0.5164  0.0659
17688TIP3    H174479   2.845   4.151  12.450 -0.7857  0.1168 -0.5551
17688TIP3    H274480   2.887   4.009  12.421 -0.0472  0.1155  0.4275
17689TIP3   OH274481   5.344   3.315  16.201  0.1096  0.4071  0.2837
17689TIP3    H174482   5.272   3.265  16.240  1.4746  0.0161  2.5463
17689TIP3    H274483   5.338   3.402  16.242 -0.4699  1.1655 -1.3500
17690TIP3   OH274484   2.149   2.861   2.084 -0.2420  0.2431  0.3511
17690TIP3    H174485   2.199   2.789   2.123  1.1572  1.1016  0.2437
17690TIP3    H274486   2.210   2.900   2.021 -1.9904 -0.3016 -1.7863
17691TIP3   OH274487   3.118   0.148   6.160  0.6753 -0.6447  0.5522
17691TIP3    H174488   3.023   0.157   6.169  0.3533 -3.5429  0.8129
17691TIP3    H274489   3.154   0.209   6.224 -1.0703 -1.1066  2.0591
17692TIP3   OH274490   5.743   2.956  15.367  0.1664  0.1691 -0.1241
17692TIP3    H174491   5.795   3.029  15.401 -0.8820  0.0498  1.8941
17692TIP3    H274492   5.668   2.997  15.324  0.5886  0.2856 -0.7692
17693TIP3   OH274493   1.364   4.367   5.848 -1.1868  0.0792 -0.4235
17693TIP3    H174494   1.431   4.300   5.864  0.5687  1.5871 -1.1487
17693TIP3    H274495   1.300   4.323   5.791 -0.2075 -1.0398 -0.7017
17694TIP3   OH274496   6.135   2.277   1.154  0.4376  0.4655 -0.2140
17694TIP3    H174497   6.095   2.209   1.100  0.3313  1.0642 -0.9025
17694TIP3    H274498   6.156   2.347   1.093  0.1899  1.2190  0.5472
17695TIP3   OH274499   0.687   3.129  14.785  0.5551  0.2530 -0.4262
17695TIP3    H174500   0.610   3.147  14.838  0.5399 -0.3183 -0.2482
17695TIP3    H274501   0.654   3.117  14.697  0.3086 -1.0255 -0.1714
17696TIP3   OH274502   5.451   0.111   5.558 -0.6056 -0.7522 -0.0261
17696TIP3    H174503   5.520   0.146   5.501  1.7054 -2.6742  1.4178
17696TIP3    H274504   5.457   0.016   5.548 -1.2044 -1.0751  2.1781
17697TIP3   OH274505   0.214   0.099   5.413  0.6089 -0.0485 -0.2273
17697TIP3    H174506   0.146   0.032   5.409 -0.0487  0.5696  0.3877
17697TIP3    H274507   0.240   0.112   5.322  0.1137 -0.5050 -0.4411
17698TIP3   OH274508   1.262   4.013  14.872  0.3521  0.4196  0.0810
17698TIP3    H174509   1.335   3.952  14.865 -1.1489 -1.4312 -0.4906
17698TIP3    H274510   1.229   4.001  14.962 -0.8321 -0.7717 -0.4721
17699TIP3   OH274511   4.522   6.154  11.407 -0.3487 -0.1429 -0.1596
17699TIP3    H174512   4.454   6.102  11.363 -0.5091 -1.1335  1.1801
17699TIP3    H274513   4.474   6.227  11.447 -0.2002  0.7661 -1.5749
17700TIP3   OH274514   1.093   2.587  15.054  0.4083 -0.4960  0.4129
17700TIP3    H174515   1.156   2.572  15.124  0.0825 -1.6542  0.4770
17700TIP3    H274516   1.030   2.648  15.091  0.6568 -0.5130  0.8667
17701TIP3   OH274517   1.669   2.546  12.863 -0.2703 -0.0836  0.3036
17701TIP3    H174518   1.760   2.527  12.844 -0.0371  0.2168  1.0923
17701TIP3    H274519   1.632   2.461  12.890 -0.5357 -0.4537 -1.1647
17702TIP3   OH274520   3.081   5.033   2.634  0.4771 -0.2790  0.0702
17702TIP3    H174521   3.100   5.107   2.577  0.3074 -0.1074  0.2332
17702TIP3    H274522   2.995   5.053   2.671  0.0419 -0.9792 -0.5460
17703TIP3   OH274523   1.229   3.225  13.705 -0.6910  0.2308 -0.1302
17703TIP3    H174524   1.254   3.158  13.769  0.8739 -0.8114 -1.7519
17703TIP3    H274525   1.284   3.301  13.727 -2.2032  0.9471  1.4762
17704TIP3   OH274526   2.111   5.155   5.625  0.1749 -0.3677  0.0826
17704TIP3    H174527   2.205   5.166   5.642  0.4726 -1.3272 -0.8320
17704TIP3    H274528   2.106   5.082   5.565 -1.1945 -0.4637  0.2772
17705TIP3   OH274529   4.158   3.433  17.271  0.9893 -0.3445 -0.0947
17705TIP3    H174530   4.135   3.373  17.201  0.1439  0.3068 -0.3945
17705TIP3    H274531   4.253   3.429  17.276  1.0200 -0.8113 -0.9075
17706TIP3   OH274532   5.839   5.634  13.949 -0.4473  0.3994  0.1493
17706TIP3    H174533   5.901   5.565  13.974  0.5364  0.8715 -0.8420
17706TIP3    H274534   5.797   5.660  14.031  0.7011  0.0827  0.8640
17707TIP3   OH274535   6.118   1.137  14.281 -0.1219  0.1777 -0.2755
17707TIP3    H174536   6.150   1.165  14.367 -1.8344  3.0803 -0.4441
17707TIP3    H274537   6.166   1.191  14.219  1.5080 -2.2813 -1.3246
17708TIP3   OH274538   3.914   1.081  10.625 -0.0851  0.4847 -0.0151
17708TIP3    H174539   3.873   0.995  10.634  1.2730 -0.0821  1.0608
17708TIP3    H274540   3.869   1.136  10.688 -0.4454  0.3655 -0.1655
17709TIP3   OH274541   1.079   5.979  15.173  0.0326  1.1582 -0.4564
17709TIP3    H174542   1.066   6.056  15.118 -0.4369  0.3840 -1.4724
17709TIP3    H274543   1.139   5.924  15.123  2.6562  2.0222  1.4910
17710TIP3   OH274544   3.353   5.770   5.404 -0.3683 -0.1094 -0.1538
17710TIP3    H174545   3.269   5.733   5.376 -1.1958  1.9181 -0.5264
17710TIP3    H274546   3.365   5.847   5.348  1.8258 -0.4291 -0.2081
17711TIP3   OH274547   1.970   5.592  12.356 -0.3682 -0.1415  0.4701
17711TIP3    H174548   2.064   5.575  12.361 -0.4544 -0.3542  1.6086
17711TIP3    H274549   1.949   5.635  12.439 -1.6854 -2.1370  1.2292
17712TIP3   OH274550   6.531   1.446  16.051 -0.3441  0.2915 -0.1826
17712TIP3    H174551   6.562   1.433  16.141 -0.4692  0.5307 -0.1048
17712TIP3    H274552   6.611   1.459  16.000 -0.3524  2.6133  0.2835
17713TIP3   OH274553   4.888   2.702  12.685  0.1653 -0.3606 -0.1291
17713TIP3    H174554   4.910   2.712  12.778  1.4889  2.1124 -0.6237
17713TIP3    H274555   4.817   2.638  12.684  0.0269 -0.3654  2.5932
17714TIP3   OH274556   2.200   4.405   2.517 -0.2160 -0.7011 -0.2865
17714TIP3    H174557   2.126   4.360   2.556 -0.5333 -0.3387 -0.4634
17714TIP3    H274558   2.215   4.481   2.573  0.7686 -1.3910  0.4190
17715TIP3   OH274559   4.442   1.626   3.363 -0.5335 -0.5137  0.7531
17715TIP3    H174560   4.531   1.604   3.336 -0.9875 -2.2510  0.5126
17715TIP3    H274561   4.394   1.637   3.281 -0.6578 -0.0955  0.8801
17716TIP3   OH274562   5.298   6.345   3.884 -0.1547  0.3361 -0.4716
17716TIP3    H174563   5.357   6.376   3.953 -1.4818  1.2228  0.3080
17716TIP3    H274564   5.349   6.280   3.836  1.4339  1.0547  0.1912
17717TIP3   OH274565   0.311   3.423  12.250  0.0059 -0.4343 -0.0982
17717TIP3    H174566   0.217   3.406  12.243  0.2839 -1.6884 -1.0079
17717TIP3    H274567   0.331   3.408  12.343 -0.6122 -0.6020  0.0135
17718TIP3   OH274568   4.393   4.658   4.396 -0.2712 -0.5756 -0.5153
17718TIP3    H174569   4.302   4.655   4.425 -0.5001 -0.2591 -1.1855
17718TIP3    H274570   4.414   4.751   4.392  0.3222 -0.6585  0.3472
17719TIP3   OH274571   1.152   2.248  15.439 -0.6475 -0.6781  0.0001
17719TIP3    H174572   1.086   2.306  15.401 -0.8909 -2.2977 -2.1862
17719TIP3    H274573   1.213   2.230  15.367  0.6292 -1.4514  1.2189
17720TIP3   OH274574   4.270   6.623   4.805 -0.1708  0.5900 -0.1440
17720TIP3    H174575   4.270   6.615   4.901 -0.3240  2.6356  0.0614
17720TIP3    H274576   4.216   6.700   4.787  1.1932  1.2227 -1.7734
17721TIP3   OH274577   3.724   3.860   2.159  0.7077 -0.1005 -0.5885
17721TIP3    H174578   3.670   3.810   2.220  1.5350  0.7757  0.8967
17721TIP3    H274579   3.667   3.931   2.129  1.2073  1.2864  1.5772
17722TIP3   OH274580   2.142   1.457   2.423 -0.3215 -0.4343  0.2699
17722TIP3    H174581   2.180   1.436   2.508 -1.1272 -0.1756  0.7010
17722TIP3    H274582   2.108   1.374   2.390 -2.1319 -0.1425  1.2829
17723TIP3   OH274583   1.869   6.548   2.122 -0.4819  0.7492  0.4347
17723TIP3    H174584   1.837   6.464   2.090  0.7891  0.9579 -1.5450
17723TIP3    H274585   1.959   6.532   2.148  0.2000  1.7168 -1.1757
17724TIP3   OH274586   0.493   3.715  11.744  0.9866  0.3836  0.4041
17724TIP3    H174587   0.525   3.699  11.833  0.7153 -2.0018  0.1463
17724TIP3    H274588   0.556   3.672  11.687  0.9277  1.5217 -0.5481
17725TIP3   OH274589   0.785   6.644   4.833 -0.0958 -0.4161  0.1388
17725TIP3    H174590   0.767   6.619   4.742 -3.5436 -1.0851  0.8318
17725TIP3    H274591   0.759   6.568   4.884  0.3525  0.4776  1.7680
17726TIP3   OH274592   0.821   5.405   2.070  0.3616 -0.4330 -0.1006
17726TIP3    H174593   0.726   5.391   2.081  0.3453 -0.1106  0.1820
17726TIP3    H274594   0.846   5.343   2.002 -0.2420  0.1721 -0.9081
17727TIP3   OH274595   0.877   2.532   4.962  0.4105  0.2844 -0.3866
17727TIP3    H174596   0.856   2.561   5.051  1.5453  1.8666 -0.5984
17727TIP3    H274597   0.924   2.450   4.974  1.5516  1.0493  0.5774
17728TIP3   OH274598   6.768   2.182  14.221 -0.3944  0.0037  0.6265
17728TIP3    H174599   6.797   2.224  14.140 -1.2893 -1.9051 -0.7496
17728TIP3    H274600   6.843   2.191  14.280  1.5113 -1.2413 -1.4350
17729TIP3   OH274601   3.020   1.170  15.900  0.2319 -0.3071  0.1872
17729TIP3    H174602   3.015   1.083  15.861  0.4626  0.4158 -1.5688
17729TIP3    H274603   2.952   1.220  15.854  1.5295  0.9898 -0.3968
17730TIP3   OH274604   4.628   5.849   3.018  0.3868  0.3698 -0.4634
17730TIP3    H174605   4.628   5.801   3.101 -0.9942  0.9869 -0.0640
17730TIP3    H274606   4.674   5.931   3.037  0.0993  0.4968 -0.2927
17731TIP3   OH274607   6.607   4.162  12.783 -0.1763 -0.3543  0.3908
17731TIP3    H174608   6.555   4.243  12.787 -2.0019 -1.4098 -0.4813
17731TIP3    H274609   6.698   4.191  12.793 -0.8760  1.6306  1.5893
17732TIP3   OH274610   5.793   5.826  15.231 -0.0546  0.7906  0.5859
17732TIP3    H174611   5.887   5.834  15.246  0.2427  1.1232 -1.1680
17732TIP3    H274612   5.760   5.916  15.241 -0.0993  0.7528  0.7653
17733TIP3   OH274613   0.766   2.786   3.282  0.3611 -0.0082  0.1241
17733TIP3    H174614   0.842   2.812   3.334  0.8947 -1.0429 -0.1015
17733TIP3    H274615   0.734   2.867   3.243  1.3820  0.4363  0.1829
17734TIP3   OH274616   1.278   0.226   6.048  0.2469 -0.3869  0.5706
17734TIP3    H174617   1.262   0.143   6.002 -0.1729 -0.4861  0.8909
17734TIP3    H274618   1.193   0.268   6.052  0.4154 -0.0478  0.6299
17735TIP3   OH274619   3.545   5.279   4.210  0.9115  0.1489 -0.2475
17735TIP3    H174620   3.487   5.266   4.135  0.0164  0.0745  0.4352
17735TIP3    H274621   3.596   5.198   4.215  0.7243  0.0087 -0.5621
17736TIP3   OH274622   5.243   2.788  13.613  0.7929 -0.0347 -0.1422
17736TIP3    H174623   5.314   2.760  13.555 -0.6512 -1.5835 -1.2557
17736TIP3    H274624   5.164   2.755  13.571 -0.6310  1.7622  0.9776
17737TIP3   OH274625   1.755   0.885   1.014 -0.3227 -0.6475 -0.0618
17737TIP3    H174626   1.851   0.884   1.022 -0.0654  1.4704 -1.6600
17737TIP3    H274627   1.726   0.945   1.082 -0.4690 -0.9338  0.1280
17738TIP3   OH274628   6.696   4.893   5.249 -0.2288 -0.3709 -0.2236
17738TIP3    H174629   6.676   4.981   5.280  0.3492 -0.3519  0.1065
17738TIP3    H274630   6.612   4.846   5.254 -0.1506 -0.3919  1.4451
17739TIP3   OH274631   5.045   4.005  12.610  0.4891  0.0096  0.5577
17739TIP3    H174632   5.004   3.957  12.538  0.3913  2.1656 -0.9191
17739TIP3    H274633   5.116   3.949  12.639  0.7989 -0.7506 -1.5216
17740TIP3   OH274634   1.509   1.786   4.769  0.3910 -0.2846  0.7317
17740TIP3    H174635   1.570   1.713   4.755  1.5985  0.8165  0.0634
17740TIP3    H274636   1.423   1.744   4.775  1.0820 -1.7870  0.6366
17741TIP3   OH274637   0.618   1.580   4.513  0.0170  0.0097 -0.4861
17741TIP3    H174638   0.707   1.547   4.526  0.5243  1.3796 -0.2784
17741TIP3    H274639   0.569   1.546   4.588  0.8492  0.7796  0.4463
17742TIP3   OH274640   2.427   3.629   1.192  0.1423 -0.3444  0.6108
17742TIP3    H174641   2.452   3.623   1.100  0.3929 -1.9299  0.7535
17742TIP3    H274642   2.333   3.607   1.193  0.0693 -0.0291  0.6956
17743TIP3   OH274643   1.102   5.338   1.907 -0.7635 -0.1035  0.3692
17743TIP3    H174644   1.101   5.409   1.971  1.3779 -0.2536  0.6724
17743TIP3    H274645   1.195   5.317   1.897 -1.1853 -1.3622 -1.3934
17744TIP3   OH274646   3.391   1.317  11.027  0.1485 -0.3991 -0.1585
17744TIP3    H174647   3.364   1.247  10.966 -0.4849  0.4285 -0.8522
17744TIP3    H274648   3.483   1.331  11.007  0.6624 -1.9879  0.9549
17745TIP3   OH274649   2.909   6.267   0.718 -0.2089  1.0919  0.3424
17745TIP3    H174650   2.924   6.269   0.812 -1.3240  1.8818  0.5083
17745TIP3    H274651   2.927   6.356   0.688 -1.1740  1.1883  0.0218
17746TIP3   OH274652   3.904   5.590  16.119 -0.7727  0.0104 -0.2754
17746TIP3    H174653   3.839   5.622  16.182  0.7734  1.8755  0.4873
17746TIP3    H274654   3.903   5.495  16.129 -0.6999  0.2072  2.5306
17747TIP3   OH274655   5.796   0.650  16.503 -0.1518  0.4782 -0.3760
17747TIP3    H174656   5.772   0.557  16.497  0.7124  0.2596 -0.6939
17747TIP3    H274657   5.713   0.697  16.500 -0.9516 -0.3891  3.2293
17748TIP3   OH274658   5.053   5.314   4.921 -0.0843 -0.0224 -0.0006
17748TIP3    H174659   5.047   5.394   4.972  0.6833  0.3817 -0.5350
17748TIP3    H274660   4.963   5.279   4.922  0.3569 -1.6350  4.0914
17749TIP3   OH274661   0.102   5.321   0.654 -0.0690 -0.5269  0.1603
17749TIP3    H174662   0.074   5.305   0.745 -0.7253  0.2147  0.1051
17749TIP3    H274663   0.143   5.239   0.627 -1.9827 -1.6154  0.3548
17750TIP3   OH274664   0.153   4.825  12.625  0.3859 -0.7852  0.8510
17750TIP3    H174665   0.088   4.856  12.687 -0.2834 -1.5947  0.5762
17750TIP3    H274666   0.204   4.903  12.602 -0.5617 -0.1172  0.9704
17751TIP3   OH274667   2.296   1.619  17.180 -0.3893 -0.0737  0.1585
17751TIP3    H174668   2.201   1.617  17.167 -0.2146 -1.3552 -1.1805
17751TIP3    H274669   2.318   1.530  17.206  0.5670 -0.0619 -0.5775
17752TIP3   OH274670   4.010   4.996   6.576 -0.3242 -0.0350 -0.1326
17752TIP3    H174671   4.068   4.977   6.650  1.4092 -4.1659 -2.2444
17752TIP3    H274672   4.061   5.055   6.520 -0.9448  1.6873  1.0474
17753TIP3   OH274673   1.987   0.574  16.784 -0.3951 -0.0277 -0.3950
17753TIP3    H174674   1.927   0.644  16.760 -3.4576 -2.6989 -1.4009
17753TIP3    H274675   1.980   0.567  16.879 -0.1572  0.9251 -0.3060
17754TIP3   OH274676   4.004   1.641   5.470  0.1523 -0.3404  0.4764
17754TIP3    H174677   4.060   1.591   5.530 -0.0969 -1.8447 -0.4825
17754TIP3    H274678   4.060   1.656   5.394 -0.2403 -0.4474  0.1679
17755TIP3   OH274679   3.347   5.569   0.791  0.0585  0.0923  0.4130
17755TIP3    H174680   3.325   5.493   0.738  0.3280 -0.2092  0.7302
17755TIP3    H274681   3.361   5.639   0.727  0.1303 -0.2031  0.1004
17756TIP3   OH274682   6.562   6.267   5.515  0.5451  0.8715 -0.7866
17756TIP3    H174683   6.505   6.341   5.538  0.0063  0.1130  0.3842
17756TIP3    H274684   6.503   6.203   5.474 -0.0283 -0.9016  2.4805
17757TIP3   OH274685   1.111   4.447  12.268 -0.0482  0.3086  0.0012
17757TIP3    H174686   1.031   4.396  12.255 -0.6775  0.5410  2.3686
17757TIP3    H274687   1.174   4.384  12.303  1.1207 -0.0393 -2.5500
17758TIP3   OH274688   6.726   5.828   5.442  0.5011  0.2361 -0.4458
17758TIP3    H174689   6.672   5.818   5.520 -0.9204  1.1264 -1.2712
17758TIP3    H274690   6.759   5.917   5.446 -1.2975  1.0338 -1.8422
17759TIP3   OH274691   1.897   4.469   4.110 -0.9035 -0.2854 -0.1608
17759TIP3    H174692   1.807   4.495   4.095 -0.8696 -0.1464 -0.1228
17759TIP3    H274693   1.892   4.379   4.142 -1.1940  0.5498  2.3551
17760TIP3   OH274694   5.408   0.615   1.855  0.0262  0.5170  0.1644
17760TIP3    H174695   5.358   0.687   1.893 -0.0350 -1.3009  3.9062
17760TIP3    H274696   5.341   0.554   1.824  0.0505  0.5454  0.0527
17761TIP3   OH274697   1.936   3.903  16.359  0.4839  0.1714 -0.3065
17761TIP3    H174698   1.914   3.991  16.390 -0.8127 -0.1545 -0.2503
17761TIP3    H274699   1.902   3.900  16.270 -2.5000 -1.3309  0.7769
17762TIP3   OH274700   4.760   4.519   2.211  0.0042 -0.0648  0.1088
17762TIP3    H174701   4.679   4.539   2.165  0.6152  0.1950 -0.8788
17762TIP3    H274702   4.740   4.439   2.261 -1.1563  0.5884  0.7146
17763TIP3   OH274703   0.798   3.608  14.255 -0.2032 -0.5772  0.2087
17763TIP3    H174704   0.816   3.548  14.182 -0.6895 -1.9593  1.1941
17763TIP3    H274705   0.710   3.642  14.236  0.2866  0.2439 -0.6255
17764TIP3   OH274706   1.131   2.620  15.437  0.1528 -0.5273 -0.4584
17764TIP3    H174707   1.210   2.658  15.476 -0.7431 -0.8706  1.8559
17764TIP3    H274708   1.079   2.591  15.512 -2.6853  0.6608 -1.8477
17765TIP3   OH274709   4.679   1.751   3.678  0.5001 -0.1595  0.4516
17765TIP3    H174710   4.650   1.688   3.612 -1.2044 -0.5654  1.5233
17765TIP3    H274711   4.769   1.725   3.698  0.2484 -1.4724 -0.0312
17766TIP3   OH274712   5.339   0.961  14.671 -0.4104 -0.3087  0.3421
17766TIP3    H174713   5.303   0.998  14.752 -3.4339 -0.5568 -0.7585
17766TIP3    H274714   5.351   1.036  14.613  0.6023 -0.2702  0.5845
17767TIP3   OH274715   5.566   3.956  17.119 -0.2055 -0.0632  0.1938
17767TIP3    H174716   5.576   3.869  17.080  1.2460 -0.1063  0.5938
17767TIP3    H274717   5.604   3.947  17.207  2.5903  1.6178 -0.7221
17768TIP3   OH274718   1.900   5.625   3.970 -0.5126 -0.3415 -0.1135
17768TIP3    H174719   1.825   5.569   3.991 -1.6876  1.1081 -0.2530
17768TIP3    H274720   1.918   5.672   4.050  1.7626 -2.2450  0.6103
17769TIP3   OH274721   6.407   2.647   0.597  0.1765 -0.1161  0.5498
17769TIP3    H174722   6.441   2.713   0.536 -0.9897  1.6120  1.6452
17769TIP3    H274723   6.479   2.629   0.656  0.6279 -0.1184  0.0092
17770TIP3   OH274724   0.189   3.956   1.481 -0.2280  0.1983 -0.0991
17770TIP3    H174725   0.222   3.871   1.512  1.7105  0.5787 -0.9684
17770TIP3    H274726   0.148   3.995   1.559 -0.0464 -0.9932  0.6291
17771TIP3   OH274727   3.764   5.773  16.880 -0.1382 -0.0782 -0.1670
17771TIP3    H174728   3.814   5.725  16.947  1.6013  0.0092 -1.3221
17771TIP3    H274729   3.820   5.847  16.858 -2.1419  1.7583  0.5657
17772TIP3   OH274730   1.876   4.659   5.879 -0.0197  0.3933 -0.2463
17772TIP3    H174731   1.938   4.728   5.854  0.9043 -0.6927 -1.0831
17772TIP3    H274732   1.864   4.670   5.973 -0.0601  1.8099 -0.3933
17773TIP3   OH274733   2.619   0.117   3.704 -0.3435  0.0559 -0.2137
17773TIP3    H174734   2.674   0.040   3.718  0.3715  0.4056 -1.0298
17773TIP3    H274735   2.661   0.164   3.633 -1.7089  0.3311 -0.8771
17774TIP3   OH274736   1.796   6.576  13.298  0.3348 -0.1449  0.1541
17774TIP3    H174737   1.737   6.628  13.353  0.2495 -0.9428  0.8415
17774TIP3    H274738   1.845   6.522  13.360  0.1640 -1.1399 -0.5502
17775TIP3   OH274739   2.548   0.461  12.682  0.0175  0.0924  0.1306
17775TIP3    H174740   2.522   0.395  12.618 -0.3708  1.4909 -1.2469
17775TIP3    H274741   2.510   0.433  12.764  0.2537 -1.6070 -0.3055
17776TIP3   OH274742   3.710   6.572   2.820 -0.2494  0.1160  0.7157
17776TIP3    H174743   3.747   6.524   2.894 -1.7445 -2.5545 -0.1155
17776TIP3    H274744   3.759   6.540   2.744 -0.1006  1.2697  0.3097
17777TIP3   OH274745   1.549   3.450   1.643  0.2240  0.1312  0.0908
17777TIP3    H174746   1.494   3.476   1.570  0.1317 -0.8757 -0.2173
17777TIP3    H274747   1.487   3.419   1.709  0.3582  0.1902  0.2448
17778TIP3   OH274748   0.586   4.274   1.393  0.3140 -0.7988  0.4052
17778TIP3    H174749   0.567   4.362   1.425 -1.4028 -1.0739  0.2287
17778TIP3    H274750   0.609   4.223   1.471  0.0147 -0.5166  0.6770
17779TIP3   OH274751   5.429   4.488  12.027  0.2961  0.0900  0.3508
17779TIP3    H174752   5.455   4.525  12.112 -0.4753  0.9363  0.2415
17779TIP3    H274753   5.333   4.484  12.032  0.1555  1.2363 -0.8837
17780TIP3   OH274754   2.920   2.732   3.297  0.6850 -0.0537 -0.7035
17780TIP3    H174755   2.879   2.774   3.220  1.0759  0.5812 -0.5726
17780TIP3    H274756   3.009   2.768   3.299  1.6132 -2.1711 -1.5658
17781TIP3   OH274757   3.366   6.533  15.477 -0.0918 -0.0995  0.4331
17781TIP3    H174758   3.358   6.487  15.561 -1.4897 -1.7420 -0.5042
17781TIP3    H274759   3.397   6.465  15.416 -0.2837  0.7281 -0.6119
17782TIP3   OH274760   4.639   4.052  17.020  0.2001 -0.0408  0.0574
17782TIP3    H174761   4.733   4.072  17.020  0.0630  0.6368  0.1054
17782TIP3    H274762   4.598   4.133  16.987 -0.4668  0.1375  1.2793
17783TIP3   OH274763   0.174   2.158  11.666 -0.3394  0.3367 -0.0913
17783TIP3    H174764   0.097   2.105  11.644 -1.4458  1.2952  1.2753
17783TIP3    H274765   0.247   2.115  11.622 -0.9890 -2.8868  1.6976
17784TIP3   OH274766   0.125   1.881  14.954  0.3123 -0.0894 -0.0744
17784TIP3    H174767   0.095   1.830  15.029 -1.3951 -0.9952 -1.2988
17784TIP3    H274768   0.216   1.901  14.973  1.0229 -3.4234  0.5907
17785TIP3   OH274769   1.042   4.777   6.590 -0.3589  0.7415 -0.4242
17785TIP3    H174770   0.993   4.705   6.550 -1.7453  0.5661  1.4504
17785TIP3    H274771   0.986   4.853   6.581  0.1185  1.1001 -0.4378
17786TIP3   OH274772   5.412   1.703  14.961 -0.4597 -0.0241 -0.1910
17786TIP3    H174773   5.398   1.647  15.037 -2.5985  1.3020  0.4682
17786TIP3    H274774   5.378   1.789  14.987  0.6585  1.0235 -1.9336
17787TIP3   OH274775   3.648   4.878  16.953  0.1318  0.1604 -0.1211
17787TIP3    H174776   3.636   4.932  16.875 -1.7890 -1.4879 -1.0485
17787TIP3    H274777   3.691   4.937  17.016 -1.6161  2.7073 -1.1242
17788TIP3   OH274778   3.867   6.062   0.294 -0.4297 -0.1400  0.3398
17788TIP3    H174779   3.932   6.125   0.326 -0.0773 -0.2535 -0.1406
17788TIP3    H274780   3.916   5.981   0.282 -0.2621  0.1990 -1.6114
17789TIP3   OH274781   1.605   2.194  11.329  0.1077 -0.5037 -0.2623
17789TIP3    H174782   1.604   2.105  11.364  1.1360  0.5292  2.6883
17789TIP3    H274783   1.548   2.243  11.387 -1.7911  0.5396 -2.8380
17790TIP3   OH274784   5.112   1.522  10.888 -0.0558  0.5081  0.0706
17790TIP3    H174785   5.180   1.501  10.823 -0.9075 -1.4753 -0.2295
17790TIP3    H274786   5.148   1.492  10.971  0.1146  1.0051  0.1795
17791TIP3   OH274787   3.005   1.673   4.417 -0.1526 -0.5918 -0.1261
17791TIP3    H174788   2.986   1.765   4.400  0.3529 -0.2367  1.0715
17791TIP3    H274789   2.920   1.629   4.408 -0.1017 -0.3353 -2.4474
17792TIP3   OH274790   0.664   0.645  11.526  0.2258 -0.3494 -0.1467
17792TIP3    H174791   0.622   0.615  11.445  1.9986  0.2385 -1.3231
17792TIP3    H274792   0.595   0.637  11.592 -1.5197 -0.0903 -1.8445
17793TIP3   OH274793   6.386   5.933  16.601  0.4565 -0.0054 -0.1431
17793TIP3    H174794   6.317   5.955  16.538 -0.7695 -0.0854  1.1309
17793TIP3    H274795   6.354   5.967  16.684  0.1303 -3.3539  1.2454
17794TIP3   OH274796   6.272   2.196  10.298 -0.0847 -0.0540  0.1672
17794TIP3    H174797   6.249   2.237  10.382 -1.0617  1.3660 -0.7622
17794TIP3    H274798   6.363   2.222  10.284 -0.4402  1.1915 -0.0144
17795TIP3   OH274799   0.411   4.531  16.023 -0.0265 -0.4293 -0.5323
17795TIP3    H174800   0.361   4.451  16.040  0.2126 -0.2212  1.3225
17795TIP3    H274801   0.377   4.563  15.940  0.3502 -2.8205 -1.7089
17796TIP3   OH274802   1.775   0.018   2.801  0.1697 -0.1120 -0.5898
17796TIP3    H174803   1.767  -0.036   2.723 -0.0152 -0.7015 -0.1706
17796TIP3    H274804   1.740  -0.037   2.872  0.0873  0.5118 -0.1400
17797TIP3   OH274805   3.628   1.924  15.682  0.0653  0.0229  0.2351
17797TIP3    H174806   3.670   1.856  15.629  2.4608  0.2657  1.6617
17797TIP3    H274807   3.555   1.954  15.629 -0.1526 -2.5835 -1.1077
17798TIP3   OH274808   5.457   3.595   5.060  0.0809 -0.4452  0.0499
17798TIP3    H174809   5.365   3.573   5.077 -1.3479  2.6966 -2.5916
17798TIP3    H274810   5.474   3.671   5.115  0.1856  0.6341 -1.4358
17799TIP3   OH274811   5.545   6.075  13.794 -0.1572 -0.1047  0.1743
17799TIP3    H174812   5.604   6.008  13.830  0.1672 -0.1950 -0.5076
17799TIP3    H274813   5.603   6.147  13.769 -0.4819  0.3462  0.7028
17800TIP3   OH274814   3.855   0.485   4.384  0.0354  0.0930 -0.0810
17800TIP3    H174815   3.851   0.397   4.347 -0.8909  0.5746 -1.1700
17800TIP3    H274816   3.934   0.484   4.439  1.7724 -0.5028 -2.4314
17801TIP3   OH274817   2.974   0.776   6.546  0.0178  0.0828  0.6220
17801TIP3    H174818   3.020   0.860   6.535  0.5068 -0.3878 -1.0848
17801TIP3    H274819   2.887   0.792   6.510  1.0615 -0.9508 -2.6236
17802TIP3   OH274820   4.418   0.243  14.924  0.0181  0.0230  0.3296
17802TIP3    H174821   4.426   0.339  14.916 -0.7484 -0.0317 -1.7492
17802TIP3    H274822   4.353   0.230  14.993 -0.4277  1.0406  0.1221
17803TIP3   OH274823   4.907   4.917  15.078 -0.0836  0.0485  0.0987
17803TIP3    H174824   4.875   4.884  14.994 -1.6930 -1.8621  1.3601
17803TIP3    H274825   4.855   4.996  15.094 -1.5643 -0.9479  0.3843
17804TIP3   OH274826   5.288   1.932   1.196 -0.6910 -0.4109 -0.3941
17804TIP3    H174827   5.382   1.914   1.191 -0.4828  0.6607 -0.5675
17804TIP3    H274828   5.251   1.852   1.232  0.1141 -1.3840 -1.5987
17805TIP3   OH274829   2.307   3.730  10.842  0.5506 -0.1937  0.0876
17805TIP3    H174830   2.357   3.811  10.828 -0.1884  0.2006 -0.3472
17805TIP3    H274831   2.225   3.745  10.796 -0.5186 -0.3017  1.8742
17806TIP3   OH274832   4.107   1.497  14.018 -0.6254 -0.4690 -0.3692
17806TIP3    H174833   4.035   1.469  14.074  0.2298  0.2046  1.1607
17806TIP3    H274834   4.181   1.507  14.078  0.4607 -0.0982 -1.7093
17807TIP3   OH274835   0.348   5.353  16.422 -0.4010 -0.1774  0.2268
17807TIP3    H174836   0.328   5.260  16.425  1.4734 -0.5891  1.6208
17807TIP3    H274837   0.328   5.385  16.510 -0.0752  0.5026  0.0633
17808TIP3   OH274838   4.718   4.188  13.098 -0.4213 -0.0028 -0.1439
17808TIP3    H174839   4.812   4.174  13.106 -0.7920 -2.8491 -0.0271
17808TIP3    H274840   4.696   4.246  13.171  1.0316 -0.2795  0.5456
17809TIP3   OH274841   3.597   5.444  15.813  0.7594  0.0483  0.0768
17809TIP3    H174842   3.582   5.512  15.748 -0.1572  0.5866  0.8290
17809TIP3    H274843   3.682   5.407  15.789 -0.1016 -0.6719 -2.2183
17810TIP3   OH274844   0.298   1.479   0.274 -0.8545  0.0175  0.3939
17810TIP3    H174845   0.233   1.461   0.206 -0.4436  1.3965 -0.3993
17810TIP3    H274846   0.378   1.501   0.225 -0.2981  0.1421  1.3394
17811TIP3   OH274847   6.350   6.734   4.022 -0.4492  0.0884 -0.4913
17811TIP3    H174848   6.255   6.724   4.016 -0.4046 -1.0097  0.4218
17811TIP3    H274849   6.370   6.807   3.963 -1.6635 -0.6996 -1.9335
17812TIP3   OH274850   0.752   0.757   1.369 -0.7117  0.1780 -0.1832
17812TIP3    H174851   0.839   0.796   1.368 -0.8115  0.6693  2.4075
17812TIP3    H274852   0.751   0.696   1.295  2.3605 -0.9429  0.5615
17813TIP3   OH274853   6.128   4.456   5.233  0.2693  0.1282 -0.1008
17813TIP3    H174854   6.160   4.395   5.166  1.2929 -0.5269  0.9225
17813TIP3    H274855   6.074   4.519   5.185 -1.7596 -2.1787 -1.0732
17814TIP3   OH274856   3.906   6.474  15.774  0.2925 -0.2506 -0.0732
17814TIP3    H174857   3.870   6.396  15.733 -0.5490 -0.0646  0.2833
17814TIP3    H274858   4.000   6.466  15.763  0.1765 -1.0073 -0.5856
17815TIP3   OH274859   2.406   1.052   0.490 -0.6929 -0.0720  0.1418
17815TIP3    H174860   2.442   1.022   0.574 -3.1636 -2.3541  0.5243
17815TIP3    H274861   2.338   1.115   0.515 -1.5994 -0.9380 -0.0865
17816TIP3   OH274862   4.780   4.212   1.724 -0.1951 -0.1695 -0.2092
17816TIP3    H174863   4.699   4.255   1.696  1.1267  1.8701 -1.0926
17816TIP3    H274864   4.788   4.234   1.817 -0.4033  0.0154 -0.2341
17817TIP3   OH274865   0.239   4.170  17.279  0.7233  0.0385 -0.0307
17817TIP3    H174866   0.252   4.187  17.372  0.2602  0.3957 -0.0299
17817TIP3    H274867   0.292   4.092  17.261  0.0217 -0.6378  0.7635
17818TIP3   OH274868   0.088   3.117  12.074  0.0647  0.6325 -0.2379
17818TIP3    H174869   0.042   3.143  11.994  0.9280  0.0618 -0.9519
17818TIP3    H274870   0.102   3.022  12.064 -0.6157  0.3862  1.0239
17819TIP3   OH274871   2.128   3.735  16.969 -0.0113  0.3602 -0.2007
17819TIP3    H174872   2.160   3.697  17.052 -0.8702 -2.0998 -0.8973
17819TIP3    H274873   2.141   3.829  16.979  2.1582 -0.0424  1.7635
17820TIP3   OH274874   5.375   2.925  15.761  0.3869 -0.6106  0.0467
17820TIP3    H174875   5.466   2.953  15.769  0.1994 -0.1328  0.6418
17820TIP3    H274876   5.368   2.886  15.674  0.4951  1.9062 -1.1749
17821TIP3   OH274877   4.035   2.185  17.174  0.0478 -0.6915  0.5527
17821TIP3    H174878   4.103   2.131  17.213 -0.0759  0.0176  1.8288
17821TIP3    H274879   3.979   2.124  17.126  2.4458 -1.0997 -1.9176
17822TIP3   OH274880   3.451   1.416   2.410 -0.1508 -0.0687 -0.0326
17822TIP3    H174881   3.529   1.440   2.361 -0.4513 -0.4523 -0.7097
17822TIP3    H274882   3.395   1.372   2.347 -1.2183  0.8036  0.2662
17823TIP3   OH274883   1.805   6.152   4.970 -0.2976 -0.3340  0.3832
17823TIP3    H174884   1.811   6.240   4.933 -1.1289 -0.8660 -1.1296
17823TIP3    H274885   1.868   6.101   4.919  0.3517 -0.5729  1.4083
17824TIP3   OH274886   2.626   4.069  16.047  0.4777 -0.7850  0.0345
17824TIP3    H174887   2.571   4.137  16.010  0.9067  0.2655  1.2396
17824TIP3    H274888   2.625   4.086  16.142  1.8669 -1.4647  0.2080
17825TIP3   OH274889   4.780   6.628  13.801  0.5532  0.6920  0.4151
17825TIP3    H174890   4.811   6.703  13.852  1.7652 -0.7530  1.9247
17825TIP3    H274891   4.688   6.648  13.782  0.5719  2.1026  1.6473
17826TIP3   OH274892   4.463   3.376   4.947  0.0751  0.2077 -0.5806
17826TIP3    H174893   4.510   3.433   4.886  0.3009  1.5284  0.7665
17826TIP3    H274894   4.376   3.366   4.909  0.0493  1.4253 -0.8855
17827TIP3   OH274895   5.690   5.808   4.163  0.1889  0.2428 -0.2671
17827TIP3    H174896   5.743   5.737   4.198 -1.6377 -0.8514  0.3881
17827TIP3    H274897   5.694   5.797   4.068  1.1151  0.1844 -0.2293
17828TIP3   OH274898   1.615   1.720   1.980  0.0552 -0.3171 -0.2947
17828TIP3    H174899   1.687   1.660   1.964  0.4083 -0.0539  0.2520
17828TIP3    H274900   1.649   1.806   1.955  0.6604  0.1228  1.7971
17829TIP3   OH274901   4.562   0.188  13.969 -0.0506 -0.5396  0.5160
17829TIP3    H174902   4.591   0.279  13.981  0.1313 -0.5273 -0.0014
17829TIP3    H274903   4.615   0.138  14.030  1.0357 -0.5110 -0.3693
17830TIP3   OH274904   0.495   6.410   3.324  0.2599  0.1717 -0.0082
17830TIP3    H174905   0.407   6.390   3.293  0.1870 -1.2145  0.9700
17830TIP3    H274906   0.552   6.395   3.249 -0.0109 -2.1379  0.1756
17831TIP3   OH274907   1.682   5.619   1.426 -0.1984  0.3843 -0.2827
17831TIP3    H174908   1.729   5.701   1.409  1.2355 -0.4837 -0.6532
17831TIP3    H274909   1.629   5.605   1.348 -0.1429  0.7493 -0.3874
17832TIP3   OH274910   1.922   2.106  11.623 -0.1182  0.2438  0.8936
17832TIP3    H174911   1.946   2.105  11.716  2.0120  1.9345  0.4379
17832TIP3    H274912   1.892   2.196  11.607  0.4776  0.2534 -0.2496
17833TIP3   OH274913   5.867   3.884   3.728  0.3602  0.7662 -0.0129
17833TIP3    H174914   5.935   3.821   3.706  1.0157  1.0866  0.9902
17833TIP3    H274915   5.788   3.849   3.689  1.0340  0.2155 -0.9362
17834TIP3   OH274916   3.676   3.390   5.880 -0.3480  0.0623 -0.3294
17834TIP3    H174917   3.744   3.438   5.833 -0.3226  0.0307 -0.3252
17834TIP3    H274918   3.722   3.352   5.955 -0.7900  1.7821  0.8649
17835TIP3   OH274919   1.940   5.482   2.324  0.0644 -0.6892  0.2183
17835TIP3    H174920   1.920   5.389   2.322  2.8426 -1.3700 -1.1232
17835TIP3    H274921   1.940   5.508   2.231 -1.7384  0.9874  0.6037
17836TIP3   OH274922   6.223   3.792  13.003 -0.0410 -0.5415  0.1253
17836TIP3    H174923   6.280   3.718  12.982 -1.6933 -1.8233  0.0172
17836TIP3    H274924   6.273   3.869  12.975  1.8533 -1.5599  0.5521
17837TIP3   OH274925   5.769   2.190   4.708 -0.0799 -0.0925 -0.3689
17837TIP3    H174926   5.768   2.285   4.718 -0.2348 -0.0670 -0.6326
17837TIP3    H274927   5.724   2.157   4.786 -0.6691  0.0801 -0.6331
17838TIP3   OH274928   5.028   2.988   3.750  0.3565 -0.3144 -0.6850
17838TIP3    H174929   4.957   2.951   3.802  1.3255  0.6433  1.4339
17838TIP3    H274930   4.992   2.994   3.661 -0.8508 -3.4199 -0.5420
17839TIP3   OH274931   3.750   5.849   2.924  0.2280 -0.0534  0.0388
17839TIP3    H174932   3.696   5.908   2.871 -0.8353 -0.8486  0.1928
17839TIP3    H274933   3.687   5.804   2.981  1.4179  1.6453  2.9217
17840TIP3   OH274934   4.683   1.303  13.704 -0.1202  0.4659 -0.1940
17840TIP3    H174935   4.727   1.384  13.677  2.3525 -0.9985 -0.9165
17840TIP3    H274936   4.709   1.291  13.795 -1.6392  1.1426  0.3626
17841TIP3   OH274937   1.073   4.431  14.589  1.0009 -0.8127 -0.2701
17841TIP3    H174938   1.117   4.357  14.630  2.6160  0.1058 -0.2782
17841TIP3    H274939   1.143   4.492  14.566 -0.3481  1.6884  1.6436
17842TIP3   OH274940   3.945   4.044  12.220  0.2588  0.1433  0.0009
17842TIP3    H174941   3.949   4.032  12.315  3.0134 -0.0141 -0.0581
17842TIP3    H274942   3.923   4.136  12.209  1.3758  0.5351  0.8400
17843TIP3   OH274943   5.940   1.203   4.556  0.4231  0.1280 -0.2152
17843TIP3    H174944   6.021   1.164   4.589 -0.9146 -1.5280  1.3001
17843TIP3    H274945   5.878   1.195   4.628 -1.6633 -0.4830 -1.9699
17844TIP3   OH274946   2.073   1.551   4.773 -0.1685 -0.5794  0.5031
17844TIP3    H174947   2.098   1.606   4.699 -0.2233 -1.0303  0.1480
17844TIP3    H274948   2.084   1.608   4.850  0.3955 -0.2785  0.2032
17845TIP3   OH274949   3.375   5.753  16.546  0.1509 -0.0126  0.1372
17845TIP3    H174950   3.403   5.740  16.456  1.4223  1.4219  0.3045
17845TIP3    H274951   3.446   5.717  16.599 -0.2111 -0.0967  0.5752
17846TIP3   OH274952   1.093   2.942  10.772 -0.3405  0.0005  1.2240
17846TIP3    H174953   1.184   2.920  10.754  0.0338  1.4229  1.2983
17846TIP3    H274954   1.062   2.870  10.827  0.4266 -1.0011  0.3859
17847TIP3   OH274955   2.850   0.686  10.945 -0.0358 -0.5734 -0.2268
17847TIP3    H174956   2.874   0.681  10.852 -0.7611 -1.1301 -0.3992
17847TIP3    H274957   2.878   0.601  10.981  0.8766 -0.0923  0.2321
17848TIP3   OH274958   1.967   0.486   6.328 -0.2364  0.2815 -0.1114
17848TIP3    H174959   2.033   0.456   6.391 -0.0407 -0.1126 -0.4980
17848TIP3    H274960   1.897   0.422   6.334 -0.5248  0.6139  0.1830
17849TIP3   OH274961   0.754   2.326  11.698 -0.2480 -0.5613 -0.3167
17849TIP3    H174962   0.836   2.293  11.663 -0.2909 -1.7288  0.6391
17849TIP3    H274963   0.728   2.263  11.766 -1.1526  0.5862  0.4644
17850TIP3   OH274964   3.879   6.300   4.063  0.1828 -0.2306 -0.1680
17850TIP3    H174965   3.949   6.237   4.046  1.1120 -0.2607  3.0797
17850TIP3    H274966   3.899   6.375   4.007  2.9533 -0.1857  0.7425
17851TIP3   OH274967   2.205   1.985   5.974 -0.2091 -0.2619  0.2744
17851TIP3    H174968   2.247   2.011   5.892  0.1249  2.8405  1.3293
17851TIP3    H274969   2.273   1.993   6.040 -1.0934 -0.4072  1.2339
17852TIP3   OH274970   4.938   6.481   1.951  0.3184 -0.1274  0.0796
17852TIP3    H174971   4.992   6.403   1.959 -0.3679 -0.6201 -0.0090
17852TIP3    H274972   4.993   6.543   1.903  0.8608 -0.5562  0.1331
17853TIP3   OH274973   1.800   3.368   0.485 -0.2222 -0.2064 -0.1862
17853TIP3    H174974   1.812   3.294   0.426 -1.2926 -0.6295  0.0914
17853TIP3    H274975   1.714   3.352   0.525  0.1414  0.4740  0.8986
17854TIP3   OH274976   1.475   3.209   2.855  0.4574 -0.0779 -0.5727
17854TIP3    H174977   1.387   3.181   2.882  0.0344 -0.4500 -2.2265
17854TIP3    H274978   1.522   3.127   2.839  0.0540  0.0657 -2.8395
17855TIP3   OH274979   2.454   4.380   2.170  0.4227  0.2532 -0.4898
17855TIP3    H174980   2.494   4.360   2.085 -0.6943  2.3716 -1.5820
17855TIP3    H274981   2.365   4.345   2.164 -0.0049  1.3212 -0.6277
17856TIP3   OH274982   3.037   2.054  10.626  0.3653  0.5319 -0.2333
17856TIP3    H174983   3.097   2.007  10.569 -0.2917 -0.7912  0.1066
17856TIP3    H274984   2.950   2.028  10.595 -0.0383  1.8760 -0.2921
17857TIP3   OH274985   2.270   4.131   1.391 -0.6953 -0.4613  0.5285
17857TIP3    H174986   2.184   4.108   1.355 -0.3420  0.0435 -0.7059
17857TIP3    H274987   2.332   4.077   1.341 -0.1308  0.7683 -0.1470
17858TIP3   OH274988   3.860   1.762  12.767 -0.1336 -0.3291  0.5443
17858TIP3    H174989   3.877   1.836  12.826  0.7601 -0.5010  0.5256
17858TIP3    H274990   3.821   1.802  12.689 -1.4662 -0.1184  1.2924
17859TIP3   OH274991   2.099   1.614  12.362 -0.2219  0.4120 -0.3980
17859TIP3    H174992   2.050   1.639  12.284  1.1633  2.0228 -0.8202
17859TIP3    H274993   2.189   1.605  12.332  0.2339  0.4130  0.8839
17860TIP3   OH274994   2.170   0.480  11.551  0.3971 -0.2267  0.1760
17860TIP3    H174995   2.194   0.551  11.491 -0.3833  0.0034  0.1227
17860TIP3    H274996   2.127   0.416  11.495 -1.1865  0.4068  0.6086
17861TIP3   OH274997   2.120   2.859  15.510 -0.1170 -0.7232 -0.2541
17861TIP3    H174998   2.211   2.859  15.539 -0.3085  0.8244  0.4146
17861TIP3    H274999   2.087   2.946  15.532 -2.0181 -1.5351  0.3011
17862TIP3   OH275000   6.065   0.674   2.344  0.2080 -0.1261 -0.0147
17862TIP3    H175001   6.054   0.756   2.393  2.0634 -0.1788  0.5652
17862TIP3    H275002   6.033   0.694   2.256  1.1498  1.4313 -0.0471
17863TIP3   OH275003   0.242   6.049  11.773 -0.8662  0.3361  0.2570
17863TIP3    H175004   0.289   5.979  11.817 -1.6355 -0.6916 -0.5060
17863TIP3    H275005   0.167   6.067  11.830 -1.5267 -0.5707 -0.2945
17864TIP3   OH275006   1.186   3.972   6.312  0.5810 -0.0529 -0.3232
17864TIP3    H175007   1.228   3.996   6.395 -0.3117  0.0563  0.1034
17864TIP3    H275008   1.123   4.042   6.295 -0.1609 -0.7285 -0.4249
17865TIP3   OH275009   0.175   3.714  10.984 -0.8076 -0.0942  0.6403
17865TIP3    H175010   0.251   3.744  10.934 -0.0421 -2.3992  0.2907
17865TIP3    H275011   0.100   3.733  10.927 -0.0106 -2.0517 -1.1737
17866TIP3   OH275012   2.765   0.239  15.136  0.3725  0.1412  0.4623
17866TIP3    H175013   2.814   0.222  15.217  1.3229 -0.4708 -0.2227
17866TIP3    H275014   2.809   0.314  15.096  1.2199 -0.8315 -0.4938
17867TIP3   OH275015   3.927   6.023   3.439 -0.6579 -0.6696  0.1192
17867TIP3    H175016   3.972   6.068   3.511 -0.0750 -1.1877  0.0868
17867TIP3    H275017   3.981   6.041   3.362 -0.3627 -1.5029  0.1270
17868TIP3   OH275018   1.379   0.073  13.426  0.6156 -0.0410  0.0262
17868TIP3    H175019   1.367   0.164  13.398 -0.0852  0.7982  2.7495
17868TIP3    H275020   1.290   0.040  13.435  0.8559 -0.6699  0.0820
17869TIP3   OH275021   6.085   1.219   4.869 -0.0683  0.4355  0.2353
17869TIP3    H175022   6.104   1.152   4.935  0.1768 -0.7500 -1.0110
17869TIP3    H275023   5.991   1.210   4.853 -0.0308  0.3700  0.0513
17870TIP3   OH275024   5.820   1.320   5.055 -0.7580 -1.1604  0.4416
17870TIP3    H175025   5.820   1.330   4.960  0.1441 -0.1541  0.5309
17870TIP3    H275026   5.803   1.408   5.089  1.8642 -0.8425  1.2120
17871TIP3   OH275027   0.938   3.489   0.804  0.5151  0.0315 -0.0351
17871TIP3    H175028   0.845   3.471   0.790  0.7262 -0.4196 -0.9108
17871TIP3    H275029   0.978   3.402   0.811  0.8314  0.2265  0.6788
17872TIP3   OH275030   5.768   5.029   1.182 -0.4996  0.1309 -0.2514
17872TIP3    H175031   5.827   5.061   1.113  0.3251 -0.5936  0.0990
17872TIP3    H275032   5.776   4.933   1.178  0.2176  0.0878  1.3998
17873TIP3   OH275033   0.203   4.597   5.588 -0.0265  0.2934  0.1224
17873TIP3    H175034   0.174   4.514   5.626  1.9443 -0.8402 -0.6953
17873TIP3    H275035   0.227   4.651   5.663  0.8461 -0.7492  0.6132
17874TIP3   OH275036   4.577   5.253  13.345 -1.0205 -0.2857 -0.2128
17874TIP3    H175037   4.647   5.307  13.384  0.9792 -0.4979 -3.1900
17874TIP3    H275038   4.609   5.163  13.353 -2.3862 -0.7104  0.9495
17875TIP3   OH275039   3.027   2.368  16.229  0.4207  0.4902 -0.0208
17875TIP3    H175040   3.107   2.396  16.273  0.4379 -0.1371  0.3563
17875TIP3    H275041   2.988   2.304  16.289  0.4346 -0.3615 -0.8962
17876TIP3   OH275042   0.589   4.188   5.241 -1.0499  0.1497  0.3569
17876TIP3    H175043   0.573   4.246   5.167  0.1416  1.2207  0.9014
17876TIP3    H275044   0.684   4.178   5.245 -1.0881  0.1480  1.7550
17877TIP3   OH275045   2.311   0.647  13.620  0.2080  0.3206 -0.0953
17877TIP3    H175046   2.399   0.624  13.651 -0.3646 -1.6537  0.1909
17877TIP3    H275047   2.304   0.606  13.534  0.0456  1.6747 -0.7575
17878TIP3   OH275048   5.148   4.823  11.659  0.2882  0.2091  0.2550
17878TIP3    H175049   5.159   4.750  11.598  0.2446  1.4796 -1.3510
17878TIP3    H275050   5.066   4.865  11.631  1.1622  1.8480  0.0628
17879TIP3   OH275051   3.192   4.319  17.216  0.2646 -0.2436  0.6873
17879TIP3    H175052   3.164   4.348  17.303 -1.5322 -0.0015  0.0778
17879TIP3    H275053   3.110   4.311  17.167  1.1723 -1.3033 -0.7029
17880TIP3   OH275054   6.574   4.829  16.082 -0.0827 -0.7030  0.2900
17880TIP3    H175055   6.483   4.835  16.109  0.2679 -2.3399  2.1156
17880TIP3    H275056   6.579   4.746  16.034  0.2181  0.0292 -1.0098
17881TIP3   OH275057   0.056   3.907   0.724  0.1900 -0.3279 -0.5100
17881TIP3    H175058  -0.039   3.901   0.722 -0.0300  1.9198  0.2642
17881TIP3    H275059   0.077   3.982   0.668  1.2967  0.4808  0.8829
17882TIP3   OH275060   4.301   6.683   3.384 -0.3751 -0.3857 -0.4585
17882TIP3    H175061   4.345   6.665   3.301 -1.3719 -0.7011 -0.9238
17882TIP3    H275062   4.223   6.732   3.360 -1.6818 -2.1011  0.0888
17883TIP3   OH275063   5.875   3.157  15.488 -0.1171 -0.2835  0.2314
17883TIP3    H175064   5.885   3.210  15.409 -0.5032 -1.2433 -0.4891
17883TIP3    H275065   5.849   3.219  15.556 -0.7049  0.4176 -0.6168
17884TIP3   OH275066   0.722   6.162  14.711 -0.0221 -0.2940 -0.4993
17884TIP3    H175067   0.743   6.234  14.771 -0.2122 -0.0332 -0.7396
17884TIP3    H275068   0.772   6.182  14.632  1.5082 -1.4900  0.1147
17885TIP3   OH275069   3.650   5.203  17.087 -0.0880 -0.1072 -0.4970
17885TIP3    H175070   3.645   5.223  16.994 -0.9055  2.0214 -0.0471
17885TIP3    H275071   3.744   5.194  17.105  0.4069  3.0519 -0.9132
17886TIP3   OH275072   5.511   3.769   1.623  0.5781  0.3548 -0.2676
17886TIP3    H175073   5.539   3.771   1.715 -0.6409 -1.0511  0.1734
17886TIP3    H275074   5.518   3.676   1.598 -3.6133 -0.1798 -0.0766
17887TIP3   OH275075   2.874   6.311   1.661 -0.1079  0.3288  0.4962
17887TIP3    H175076   2.890   6.396   1.620 -1.1495 -0.1147 -0.9274
17887TIP3    H275077   2.919   6.316   1.745  0.4403  2.0254  0.1465
17888TIP3   OH275078   0.933   4.900   1.278  0.7658 -0.3778 -0.2351
17888TIP3    H175079   0.973   4.828   1.326  2.5177  1.8885  2.0096
17888TIP3    H275080   0.947   4.976   1.334 -2.9416  1.3973 -1.3966
17889TIP3   OH275081   2.798   0.097   3.372  0.6647 -0.2126  0.2830
17889TIP3    H175082   2.766   0.028   3.432  0.7153  0.2391  0.8397
17889TIP3    H275083   2.892   0.082   3.366  0.7218 -0.0158  0.6419
17890TIP3   OH275084   4.751   1.887  14.821 -0.1381  0.0837 -0.5486
17890TIP3    H175085   4.793   1.915  14.902 -2.4491  0.2698  0.6618
17890TIP3    H275086   4.796   1.937  14.752  0.7626  1.1698  0.7717
17891TIP3   OH275087   5.090   0.258  15.262  0.0397 -0.2298  0.1791
17891TIP3    H175088   5.181   0.281  15.243 -0.1669 -0.7630 -1.6534
17891TIP3    H275089   5.076   0.177  15.212 -1.4769 -0.0577  0.3070
17892TIP3   OH275090   3.382   3.294  13.114  0.3908  0.0477  0.1169
17892TIP3    H175091   3.475   3.290  13.091  0.4019 -0.0510  0.1780
17892TIP3    H275092   3.356   3.202  13.123  0.3316  0.0794  0.2782
17893TIP3   OH275093   6.581   0.022   3.725 -0.5557 -0.2156  0.8576
17893TIP3    H175094   6.672  -0.007   3.736 -0.5959 -1.1988 -0.9054
17893TIP3    H275095   6.529  -0.043   3.771 -0.3662  0.9159  2.7636
17894TIP3   OH275096   3.959   5.727   3.820 -0.3786  0.6978  0.3739
17894TIP3    H175097   4.016   5.779   3.876 -0.3564 -0.3765  1.4029
17894TIP3    H275098   3.895   5.689   3.880 -0.0392 -0.9110 -0.2264
17895TIP3   OH275099   1.442   0.368   4.596  0.1756 -0.4194 -0.2305
17895TIP3    H175100   1.468   0.421   4.671 -0.8436  0.6929 -0.6236
17895TIP3    H275101   1.518   0.314   4.577  1.1832  0.7583  0.3182
17896TIP3   OH275102   4.446   1.927   1.031  0.3140 -0.2437  0.3107
17896TIP3    H175103   4.513   1.996   1.031  1.0694 -0.9576  0.3429
17896TIP3    H275104   4.365   1.972   1.053  0.9036  0.5268  0.9673
17897TIP3   OH275105   2.777   2.518   1.784  0.2383  0.4566  1.1177
17897TIP3    H175106   2.815   2.436   1.817  0.6261  0.9297  1.8753
17897TIP3    H275107   2.691   2.523   1.826 -0.3846 -0.2518 -0.0306
17898TIP3   OH275108   5.470   0.476  16.342  0.0461  0.2393 -0.1961
17898TIP3    H175109   5.566   0.470  16.342  0.2408  2.4278 -1.4064
17898TIP3    H275110   5.447   0.492  16.434  1.1360  2.4150 -0.2266
17899TIP3   OH275111   2.155   1.781   3.734  0.3426  0.0961 -0.2782
17899TIP3    H175112   2.139   1.695   3.773  2.1049 -0.1412 -0.0048
17899TIP3    H275113   2.138   1.843   3.805 -2.2204  0.1446 -0.8208
17900TIP3   OH275114   4.273   3.942  16.748 -0.0497 -0.6571 -0.7480
17900TIP3    H175115   4.364   3.961  16.766 -0.1333 -1.3214  0.4222
17900TIP3    H275116   4.232   4.028  16.736  0.3179 -0.2558  0.7602
17901TIP3   OH275117   4.622   3.299  16.554  0.7431 -0.2508 -0.6549
17901TIP3    H175118   4.689   3.368  16.551  0.4429  0.1956  1.4359
17901TIP3    H275119   4.639   3.253  16.636 -1.5304 -0.0698 -0.0279
17902TIP3   OH275120   4.349   2.174  12.811  0.2249  0.3348 -0.2511
17902TIP3    H175121   4.389   2.132  12.887  0.7844  0.5550 -0.4229
17902TIP3    H275122   4.265   2.206  12.843  0.0564 -0.3746  0.0387
17903TIP3   OH275123   2.753   6.532  14.645 -0.0646  0.1241  0.2736
17903TIP3    H175124   2.768   6.549  14.737  1.8373  0.2453 -0.0277
17903TIP3    H275125   2.716   6.444  14.642  2.0112 -0.8376  1.0409
17904TIP3   OH275126   3.718   3.282   4.863  0.3630  0.3513 -0.0706
17904TIP3    H175127   3.679   3.231   4.934 -0.0804 -0.4138 -0.8416
17904TIP3    H275128   3.650   3.286   4.796  1.5483 -1.0011 -1.4505
17905TIP3   OH275129   4.285   0.764  10.526 -0.0888  0.2189 -0.2791
17905TIP3    H175130   4.248   0.842  10.485 -0.6933 -0.6548 -1.4531
17905TIP3    H275131   4.211   0.705  10.538  0.2846 -0.0197  1.0123
17906TIP3   OH275132   3.034   3.719   6.109  0.7712 -0.0565 -0.3729
17906TIP3    H175133   2.940   3.737   6.116  0.8189  0.8919 -1.6792
17906TIP3    H275134   3.065   3.717   6.199 -0.5664 -0.7498  0.0945
17907TIP3   OH275135   3.323   6.488   4.996 -0.2254 -0.3964 -0.4777
17907TIP3    H175136   3.307   6.437   5.075  0.2085 -0.9312 -0.7249
17907TIP3    H275137   3.404   6.536   5.014  0.9236 -1.9393 -1.2535
17908TIP3   OH275138   4.409   1.113  14.879  0.7502 -0.0636  0.8470
17908TIP3    H175139   4.399   1.067  14.796 -0.5516  0.9340  0.4070
17908TIP3    H275140   4.450   1.050  14.938  0.8117 -1.0995 -0.2903
17909TIP3   OH275141   4.195   5.976   4.803 -0.0850  0.8323  0.5140
17909TIP3    H175142   4.136   6.010   4.870 -1.8348  1.4685 -1.2264
17909TIP3    H275143   4.226   6.054   4.757  3.4920  0.6576  2.3314
17910TIP3   OH275144   5.636   3.260  12.572 -0.0566  1.0399  0.3696
17910TIP3    H175145   5.633   3.243  12.666  0.0880 -0.5613  0.1182
17910TIP3    H275146   5.545   3.249  12.543 -0.6311  4.1820  0.6859
17911TIP3   OH275147   5.478   4.603   2.910  0.2001  0.0142 -0.1067
17911TIP3    H175148   5.444   4.692   2.905 -0.4338 -0.0182  2.2985
17911TIP3    H275149   5.405   4.548   2.883  0.5572  0.1894 -1.4895
17912TIP3   OH275150   4.707   1.375   0.290  0.3888  0.5834  0.3272
17912TIP3    H175151   4.767   1.425   0.235  1.0815  0.1244  0.6544
17912TIP3    H275152   4.679   1.302   0.235 -0.4444  1.1914 -0.0725
17913TIP3   OH275153   1.675   4.760   1.671 -0.3395  0.3414 -0.0388
17913TIP3    H175154   1.718   4.844   1.657  0.5515  0.6042  3.3781
17913TIP3    H275155   1.727   4.697   1.620  0.5255  1.4733 -0.5951
17914TIP3   OH275156   0.659   5.710  16.631 -0.2088  0.0809  0.3601
17914TIP3    H175157   0.745   5.675  16.607  0.5832 -0.1046  3.1326
17914TIP3    H275158   0.614   5.637  16.673 -0.9998  0.6858  0.5946
17915TIP3   OH275159   1.734   1.116   2.427  0.2388 -0.0612  0.5403
17915TIP3    H175160   1.800   1.054   2.396 -1.5105 -0.9863 -1.6194
17915TIP3    H275161   1.658   1.062   2.448 -1.3330  1.2349 -1.3890
17916TIP3   OH275162   5.680   0.924  17.079 -0.3813  0.0769  0.1774
17916TIP3    H175163   5.620   0.997  17.098  0.6617  0.3155  2.9565
17916TIP3    H275164   5.635   0.847  17.114 -0.1800 -0.1497 -0.0639
17917TIP3   OH275165   4.047   0.149  13.224  0.0549 -0.0077 -0.1663
17917TIP3    H175166   4.012   0.214  13.162 -1.2635  1.1389  1.6528
17917TIP3    H275167   3.973   0.129  13.281  1.3789 -0.5183  1.4446
17918TIP3   OH275168   0.395   6.617   2.077  0.0278  0.0531  0.3053
17918TIP3    H175169   0.476   6.622   2.128  0.7649  1.6718 -0.9446
17918TIP3    H275170   0.421   6.641   1.988 -1.2530 -2.4293 -0.8422
17919TIP3   OH275171   2.282   0.829  15.037  0.2741 -0.0882  0.5325
17919TIP3    H175172   2.365   0.820  15.084 -0.7060  0.2784  2.4021
17919TIP3    H275173   2.227   0.758  15.072  0.3588 -1.5537 -2.0576
17920TIP3   OH275174   4.484   2.941  12.099  0.0866  0.6272 -0.5244
17920TIP3    H175175   4.470   2.869  12.038 -0.1336  0.3005 -0.0951
17920TIP3    H275176   4.466   3.020  12.047  1.7597  0.4763 -1.4142
17921TIP3   OH275177   3.584   1.401   1.977  0.4563 -0.9216  0.4065
17921TIP3    H175178   3.547   1.323   2.018  0.2046 -2.0022 -1.7542
17921TIP3    H275179   3.678   1.385   1.976  0.4880 -0.7686  0.7855
17922TIP3   OH275180   2.646   0.587   4.362 -0.0077  0.4413 -0.6902
17922TIP3    H175181   2.599   0.556   4.285 -1.1635  1.5432 -0.4719
17922TIP3    H275182   2.607   0.539   4.435  0.4033  0.1120 -0.6857
17923TIP3   OH275183   1.859   6.166   5.340 -0.0678  0.2467  0.2053
17923TIP3    H175184   1.862   6.083   5.293  1.5104  0.2874  0.2115
17923TIP3    H275185   1.931   6.162   5.402 -0.6690  1.1700  0.9887
17924TIP3   OH275186   3.313   5.928  12.881  0.1302 -0.3653 -0.0782
17924TIP3    H175187   3.395   5.953  12.923 -1.0716  0.3603  2.0228
17924TIP3    H275188   3.301   5.836  12.904 -0.8359  0.1905  1.8890
17925TIP3   OH275189   4.337   4.107   5.201 -1.3499 -0.0762 -0.3747
17925TIP3    H175190   4.402   4.050   5.242 -1.3182  0.2889  0.0932
17925TIP3    H275191   4.256   4.056   5.202 -0.9314 -0.8095 -1.6007
17926TIP3   OH275192   5.124   6.673   6.308 -0.6657 -0.0371 -0.3685
17926TIP3    H175193   5.162   6.744   6.256  0.6429 -1.2367 -1.1281
17926TIP3    H275194   5.053   6.715   6.357 -0.9337  1.4754 -1.9308
17927TIP3   OH275195   6.601   4.981   6.577 -0.1952  0.1099 -0.4371
17927TIP3    H175196   6.697   4.985   6.573 -0.1117 -1.5589 -0.8517
17927TIP3    H275197   6.580   5.016   6.664  0.7078  1.3409 -0.6847
17928TIP3   OH275198   1.205   4.558  16.746 -0.4551 -0.0034 -0.1094
17928TIP3    H175199   1.124   4.508  16.743  0.5666 -1.8182  0.8981
17928TIP3    H275200   1.274   4.492  16.755  1.3194  1.3583 -2.5854
17929TIP3   OH275201   1.538   0.324   6.011 -0.3993  0.5757  0.0497
17929TIP3    H175202   1.445   0.309   5.997 -0.6037 -0.2686  1.9659
17929TIP3    H275203   1.573   0.238   6.033  0.9873  0.7608 -1.2810
17930TIP3   OH275204   5.592   4.637  10.741  0.6093 -0.0597  0.3728
17930TIP3    H175205   5.662   4.647  10.676  0.3594  2.9143  0.4211
17930TIP3    H275206   5.575   4.726  10.772 -1.1633 -1.0523  2.5596
17931TIP3   OH275207   4.636   5.174   5.153 -1.4290  0.0500 -0.6532
17931TIP3    H175208   4.677   5.140   5.232 -0.9600  0.8894 -0.5265
17931TIP3    H275209   4.695   5.149   5.082  0.1032  2.4385 -0.3321
17932TIP3   OH275210   4.900   2.454  13.351  0.2314 -0.4475  0.0358
17932TIP3    H175211   4.849   2.383  13.312  0.1158 -0.3864  0.0751
17932TIP3    H275212   4.844   2.488  13.421 -1.2570  1.9875 -2.1511
17933TIP3   OH275213   1.092   0.462   0.215  0.2310  0.0658  0.0285
17933TIP3    H175214   1.123   0.373   0.232  0.9706  0.4553  0.8402
17933TIP3    H275215   1.108   0.509   0.297 -1.9972  0.4644  0.2907
17934TIP3   OH275216   3.748   3.598  12.765  0.3637  0.0475 -0.2905
17934TIP3    H175217   3.780   3.527  12.711 -1.6918 -1.0941 -0.1087
17934TIP3    H275218   3.763   3.569  12.855 -0.7205 -0.3063 -0.2118
17935TIP3   OH275219   6.293   6.138  16.117 -0.0537 -0.3689  0.3074
17935TIP3    H175220   6.313   6.054  16.159  0.5719 -0.6881 -0.5963
17935TIP3    H275221   6.326   6.204  16.178 -0.1908 -0.7950  0.8464
17936TIP3   OH275222   1.748   0.228  17.121  0.4283  0.2074  0.2288
17936TIP3    H175223   1.809   0.181  17.178 -0.3017  2.0038  2.6230
17936TIP3    H275224   1.795   0.308  17.096 -0.4914  1.1118  1.2558
17937TIP3   OH275225   2.987   4.269   1.913 -0.0559 -0.3557  0.5729
17937TIP3    H175226   2.987   4.174   1.925 -1.5253 -0.3462  0.8527
17937TIP3    H275227   2.912   4.285   1.856  2.1438  0.3437 -2.3499
17938TIP3   OH275228   0.150   3.909   3.872  0.3111  0.2887 -0.1419
17938TIP3    H175229   0.081   3.930   3.809 -0.7110  0.8544  1.1031
17938TIP3    H275230   0.104   3.905   3.956  1.7445  0.2962  0.6698
17939TIP3   OH275231   0.806   0.251   2.815 -0.5947  0.0010 -0.4344
17939TIP3    H175232   0.900   0.259   2.795 -0.7498 -2.1768 -2.4991
17939TIP3    H275233   0.804   0.217   2.904  0.5739  0.2523 -0.2899
17940TIP3   OH275234   5.315   5.623   2.859  0.0340  0.2353 -0.0225
17940TIP3    H175235   5.382   5.684   2.891  1.0013 -1.1877  0.7853
17940TIP3    H275236   5.332   5.616   2.765  0.1846  0.8688 -0.0475
17941TIP3   OH275237   0.229   2.555  12.536  0.5758  0.1991 -0.3844
17941TIP3    H175238   0.231   2.478  12.479 -0.5964 -0.3500  0.2790
17941TIP3    H275239   0.285   2.619  12.491 -0.0684 -0.3051 -2.0021
17942TIP3   OH275240   4.459   1.208  11.429  0.6012  0.6284 -0.0933
17942TIP3    H175241   4.524   1.233  11.493 -0.2082  1.3599  0.4655
17942TIP3    H275242   4.377   1.248  11.460 -0.1044 -0.2115 -0.7962
17943TIP3   OH275243   2.008   0.289   3.860  0.1450  0.1009 -0.1950
17943TIP3    H175244   1.981   0.336   3.781  0.2826 -0.9662 -0.9034
17943TIP3    H275245   2.057   0.213   3.827  1.3441  0.3253  0.9521
17944TIP3   OH275246   0.360   2.338   4.392 -0.1368  0.1494  0.3545
17944TIP3    H175247   0.401   2.414   4.352  0.3810 -0.5682 -0.5321
17944TIP3    H275248   0.433   2.277   4.408 -0.9322 -1.9244 -2.9665
17945TIP3   OH275249   5.346   2.108  11.698  0.1533 -0.1910  0.0112
17945TIP3    H175250   5.386   2.116  11.785 -0.0404  1.9909 -0.0401
17945TIP3    H275251   5.409   2.148  11.639 -0.3872 -0.2741 -0.6354
17946TIP3   OH275252   6.196   1.006   1.389 -0.2963  0.1096  0.2809
17946TIP3    H175253   6.182   1.094   1.353  1.0738 -0.4038 -1.6585
17946TIP3    H275254   6.289   1.005   1.414 -0.2353 -0.8701  0.0484
17947TIP3   OH275255   1.324   1.880  14.651 -0.1662  0.3449  0.8651
17947TIP3    H175256   1.256   1.897  14.716 -3.0811  0.4962 -1.9704
17947TIP3    H275257   1.325   1.785  14.641 -0.4799  0.3793  0.4535
17948TIP3   OH275258   1.409   1.753   0.979  0.0467  0.0227  0.3325
17948TIP3    H175259   1.351   1.772   1.053  0.7578 -2.2602  1.5658
17948TIP3    H275260   1.452   1.671   1.002  0.8890 -0.3868 -2.2958
17949TIP3   OH275261   4.770   6.127   4.000 -0.3786  0.1515 -0.0945
17949TIP3    H175262   4.802   6.181   3.928  1.1271 -2.1392 -1.2606
17949TIP3    H275263   4.696   6.080   3.964 -0.4907  0.0240  0.2965
17950TIP3   OH275264   5.835   1.417   4.759  0.2166  0.3354  0.4133
17950TIP3    H175265   5.841   1.511   4.745  0.2793  0.0099 -2.3824
17950TIP3    H275266   5.742   1.397   4.749  0.6065 -0.3885 -4.4562
17951TIP3   OH275267   6.180   4.584   6.168  0.1393  0.5308  0.1093
17951TIP3    H175268   6.271   4.558   6.180  0.4189  0.7088 -1.3746
17951TIP3    H275269   6.145   4.592   6.256  1.5189  0.3226  0.6998
17952TIP3   OH275270   5.882   2.604  16.283  0.6401  0.2682 -0.2309
17952TIP3    H175271   5.797   2.591  16.241  0.1033 -0.8641  1.1348
17952TIP3    H275272   5.871   2.683  16.335  0.1712 -0.2922  0.5316
17953TIP3   OH275273   4.260   2.379  14.070  0.2864 -0.0412  0.1093
17953TIP3    H175274   4.274   2.444  14.002 -1.4680 -1.2310 -1.5009
17953TIP3    H275275   4.227   2.428  14.145  2.6949  1.3592  0.3473
17954TIP3   OH275276   4.131   2.271  13.828  0.1816 -0.1269 -0.0345
17954TIP3    H175277   4.079   2.313  13.759 -0.1532 -0.1250  0.2165
17954TIP3    H275278   4.118   2.325  13.905  2.5240  1.2927 -0.5367
17955TIP3   OH275279   3.911   1.140   6.113 -0.1803  0.3060  0.1307
17955TIP3    H175280   3.918   1.132   6.018 -3.1401  2.1863 -0.3895
17955TIP3    H275281   3.912   1.234   6.129 -0.8282  0.0538  1.8364
17956TIP3   OH275282   1.143   4.615  10.474  0.4934  0.3109  0.4872
17956TIP3    H175283   1.111   4.695  10.515 -1.4566  1.4968 -2.9044
17956TIP3    H275284   1.139   4.549  10.543  0.1529  2.6510  2.8542
17957TIP3   OH275285   5.814   3.731  11.259 -0.1582 -0.6623 -0.6188
17957TIP3    H175286   5.765   3.682  11.326 -0.5503 -0.5186 -0.7947
17957TIP3    H275287   5.781   3.696  11.176 -1.7079  1.0509 -0.8038
17958TIP3   OH275288   5.015   4.389  16.724 -0.0309 -0.4912  0.1374
17958TIP3    H175289   4.985   4.398  16.815  1.7078 -1.9361  0.9038
17958TIP3    H275290   5.081   4.320  16.727  1.4712  0.7559 -1.9038
17959TIP3   OH275291   4.073   0.848   1.122  0.3945 -0.2616 -0.2978
17959TIP3    H175292   4.092   0.905   1.048 -0.8572 -0.3664 -0.7329
17959TIP3    H275293   3.982   0.867   1.144  0.2708 -1.3368  0.2137
17960TIP3   OH275294   4.338   2.040   3.466 -0.2657  0.0051  0.5207
17960TIP3    H175295   4.411   2.022   3.407  2.0217  1.2727  2.8166
17960TIP3    H275296   4.275   1.970   3.447  0.3433  0.2512 -3.2415
17961TIP3   OH275297   1.151   0.516  10.494 -0.1153 -0.0407 -0.2035
17961TIP3    H175298   1.208   0.561  10.431 -2.0766  1.7181 -0.8659
17961TIP3    H275299   1.164   0.423  10.476  2.5162  0.2453 -0.2754
17962TIP3   OH275300   6.004   5.615   0.651 -0.2309 -0.0904 -0.1696
17962TIP3    H175301   5.938   5.568   0.599  2.3692 -2.5668 -1.4776
17962TIP3    H275302   6.007   5.567   0.734  0.0188 -0.0425 -0.1519
17963TIP3   OH275303   6.580   1.618  15.232  0.4745 -0.2728 -0.6840
17963TIP3    H175304   6.554   1.529  15.208  0.8252 -0.2036 -1.3359
17963TIP3    H275305   6.510   1.649  15.289  0.5464 -1.1163 -0.1072
17964TIP3   OH275306   0.121   6.068  12.482  0.1323 -0.1103  0.3542
17964TIP3    H175307   0.028   6.066  12.506  0.0484  0.0178  0.0553
17964TIP3    H275308   0.126   6.137  12.415  0.5209  0.1964  0.6907
17965TIP3   OH275309   0.030   3.737   3.313  0.3582  0.8545  0.0691
17965TIP3    H175310   0.100   3.697   3.364 -0.6745 -1.7689 -0.4300
17965TIP3    H275311   0.076   3.795   3.252  1.9881  0.1821  0.5973
17966TIP3   OH275312   6.193   0.037   0.434 -0.0503 -0.0331 -0.4728
17966TIP3    H175313   6.281   0.074   0.428  1.1720 -2.4908  0.9158
17966TIP3    H275314   6.182   0.015   0.526 -2.7402  1.4430 -0.3349
17967TIP3   OH275315   2.932   6.109  12.161 -0.6263  0.3616 -0.5556
17967TIP3    H175316   2.973   6.169  12.099  0.0891  1.7896  1.1900
17967TIP3    H275317   2.869   6.164  12.208 -0.0904 -0.2752  0.9709
17968TIP3   OH275318   5.275   5.630  17.016 -0.1977 -0.0223  0.3193
17968TIP3    H175319   5.275   5.670  17.103 -1.4718  1.3189 -0.2505
17968TIP3    H275320   5.215   5.556  17.025 -2.3567  1.5881  0.0256
17969TIP3   OH275321   3.909   4.182  11.229  0.0123  0.9396 -0.5220
17969TIP3    H175322   3.874   4.107  11.181 -0.9692  1.2049 -0.2440
17969TIP3    H275323   3.986   4.147  11.275 -1.3682 -0.3539  0.9509
17970TIP3   OH275324   3.610   3.788   3.582  0.7258  0.3520 -0.1751
17970TIP3    H175325   3.571   3.861   3.630  1.7305 -0.0006  1.2386
17970TIP3    H275326   3.537   3.749   3.534  0.3092  2.7877 -1.6956
17971TIP3   OH275327   6.180   6.417   3.878 -0.1723 -0.2192  0.3884
17971TIP3    H175328   6.119   6.360   3.925  0.1885 -1.3390 -0.4455
17971TIP3    H275329   6.150   6.506   3.897 -3.9471 -0.6656 -2.3839
17972TIP3   OH275330   3.175   4.408  11.246  0.0579 -0.4501 -0.8700
17972TIP3    H175331   3.189   4.425  11.153 -0.0264 -3.0886 -1.4588
17972TIP3    H275332   3.087   4.442  11.264  0.8000  1.7896 -1.2277
17973TIP3   OH275333   4.132   6.400  16.603 -0.0652 -0.9013  0.4778
17973TIP3    H175334   4.226   6.386  16.613  0.4605  1.5496 -0.5137
17973TIP3    H275335   4.115   6.387  16.510 -0.1978  1.0861  0.1800
17974TIP3   OH275336   0.580   2.888   0.339  0.0029 -0.1646 -0.0387
17974TIP3    H175337   0.523   2.825   0.382 -1.4118  0.4892 -0.8840
17974TIP3    H275338   0.553   2.973   0.374  0.4343  0.1649 -0.4898
17975TIP3   OH275339   4.028   3.441  15.465 -0.7110  0.3748 -0.3343
17975TIP3    H175340   4.111   3.425  15.510 -0.7165 -0.4215 -0.5835
17975TIP3    H275341   4.022   3.536  15.459  0.5492  0.4304 -0.9905
17976TIP3   OH275342   4.307   6.613  17.285  0.4773  0.2556 -0.8133
17976TIP3    H175343   4.245   6.541  17.283  0.2229  0.1920  2.9444
17976TIP3    H275344   4.393   6.571  17.277  0.3149 -0.5039  0.9930
17977TIP3   OH275345   2.764   6.118  11.144  0.2651  0.5831  0.1581
17977TIP3    H175346   2.723   6.032  11.148 -0.6261  1.0510  1.5761
17977TIP3    H275347   2.759   6.142  11.051 -2.2125  0.3976  0.1885
17978TIP3   OH275348   2.885   2.317   0.693  0.1017  0.0641  0.8132
17978TIP3    H175349   2.978   2.303   0.675 -0.0864 -0.6658  0.4091
17978TIP3    H275350   2.875   2.412   0.689  0.5312  0.0743 -0.6668
17979TIP3   OH275351   5.801   1.798  16.541 -0.0757  0.3128 -0.0332
17979TIP3    H175352   5.891   1.820  16.567  0.5782 -3.1382  1.1013
17979TIP3    H275353   5.763   1.757  16.619 -0.7031 -3.3377 -2.0701
17980TIP3   OH275354   1.782   0.210  13.348  0.3033 -0.1354 -0.0596
17980TIP3    H175355   1.764   0.296  13.386  0.9791 -0.5120  1.1909
17980TIP3    H275356   1.701   0.161  13.360 -0.2444  0.4505 -1.2113
17981TIP3   OH275357   2.828   3.060   0.364 -0.1647 -0.5904  0.6565
17981TIP3    H175358   2.844   3.132   0.302 -1.4230  0.0858  1.0851
17981TIP3    H275359   2.782   2.994   0.312 -1.9614  0.3197  1.0112
17982TIP3   OH275360   3.872   1.502  14.192 -0.2263  0.3621  0.0320
17982TIP3    H175361   3.815   1.534  14.123 -1.3968  0.8761  1.1858
17982TIP3    H275362   3.913   1.580  14.229  1.2978  0.0032 -0.7955
17983TIP3   OH275363   1.688   0.903  15.157 -0.3798  0.5563  0.0595
17983TIP3    H175364   1.708   0.968  15.090  0.1885  1.3144  0.9425
17983TIP3    H275365   1.674   0.822  15.109  1.3141  0.7865 -0.8873
17984TIP3   OH275366   1.375   5.457   1.035  0.0369 -0.0119 -0.8550
17984TIP3    H175367   1.413   5.404   0.964 -0.1132 -0.7958 -0.3675
17984TIP3    H275368   1.449   5.472   1.095  0.2306  0.8964 -1.3187
17985TIP3   OH275369   3.722   0.829  13.510 -0.2016 -0.0730  0.2019
17985TIP3    H175370   3.780   0.770  13.464  2.2642  2.1349  0.2358
17985TIP3    H275371   3.660   0.859  13.443 -0.3836 -1.3048 -0.2050
17986TIP3   OH275372   5.582   0.796  16.361 -0.4271  0.4184 -0.0725
17986TIP3    H175373   5.538   0.760  16.438 -0.0668  1.3181  0.5729
17986TIP3    H275374   5.646   0.857  16.397  0.8920 -0.3478 -1.0076
17987TIP3   OH275375   5.619   2.955   2.366  0.2361 -0.7096 -0.0458
17987TIP3    H175376   5.580   2.916   2.288 -0.5364 -1.6900  0.8001
17987TIP3    H275377   5.545   2.988   2.417  0.8181  1.3447 -0.4181
17988TIP3   OH275378   1.806   4.920   2.853  0.1469 -0.3707  0.1241
17988TIP3    H175379   1.868   4.945   2.922 -0.9510 -1.8227  1.7059
17988TIP3    H275380   1.785   5.003   2.809  0.0583  0.8239  2.2561
17989TIP3   OH275381   3.915   0.797  11.056 -0.2150  0.3265  0.2883
17989TIP3    H175382   3.855   0.839  10.994 -1.3998 -1.6612 -0.0369
17989TIP3    H275383   3.995   0.782  11.005  0.0643  1.7263  0.2911
17990TIP3   OH275384   4.396   3.015   1.562 -0.0711  0.8981  0.6363
17990TIP3    H175385   4.406   2.996   1.656  1.3923  1.2626  0.5659
17990TIP3    H275386   4.324   2.958   1.535  0.4745 -0.3416  1.6652
17991TIP3   OH275387   5.016   4.270   0.226  0.4830  1.0321  0.0534
17991TIP3    H175388   5.064   4.197   0.264  0.2590  0.9733  0.2344
17991TIP3    H275389   5.045   4.346   0.276 -0.2583  0.8650  0.7728
17992TIP3   OH275390   0.497   1.304  12.522  0.1432  0.2728  0.2703
17992TIP3    H175391   0.483   1.232  12.584  0.6188  0.2241  0.3240
17992TIP3    H275392   0.418   1.304  12.467 -0.6149  0.7744  1.3231
17993TIP3   OH275393   5.706   2.341   3.329 -0.0833 -0.2407 -0.7503
17993TIP3    H175394   5.698   2.359   3.236 -0.2004  1.6506 -0.3971
17993TIP3    H275395   5.799   2.351   3.348 -0.2270  0.6124 -0.4459
17994TIP3   OH275396   2.383   1.084  10.989  0.1000  0.3276  0.3043
17994TIP3    H175397   2.457   1.075  11.049 -0.3409 -1.5785  0.6089
17994TIP3    H275398   2.337   1.162  11.019  0.5693  0.0945  1.6850
17995TIP3   OH275399   2.191   6.004  14.326 -0.1617  0.1017 -0.0370
17995TIP3    H175400   2.143   5.943  14.382  0.6683 -1.0710 -0.5497
17995TIP3    H275401   2.138   6.083  14.325 -1.7975 -0.9447 -0.1260
17996TIP3   OH275402   5.708   0.221  13.419 -0.2116 -0.1983  0.0083
17996TIP3    H175403   5.752   0.161  13.480  1.0807 -0.2382 -0.9108
17996TIP3    H275404   5.627   0.176  13.396 -0.6408 -0.2690  1.5193
17997TIP3   OH275405   4.729   5.553   1.910  0.0703 -0.0555  0.6242
17997TIP3    H175406   4.652   5.496   1.914  0.4603 -0.6989 -0.5515
17997TIP3    H275407   4.694   5.639   1.886 -0.4327  0.0148  1.5747
17998TIP3   OH275408   4.854   2.802  17.059 -0.6524 -0.0781 -0.2882
17998TIP3    H175409   4.873   2.770  16.971 -1.2861  0.9439 -0.8153
17998TIP3    H275410   4.936   2.844  17.087 -0.6128  0.0505 -0.5940
17999TIP3   OH275411   5.672   4.792   1.744  0.1498 -0.4312  0.1367
17999TIP3    H175412   5.679   4.869   1.688  2.6414  0.1361  1.1032
17999TIP3    H275413   5.649   4.720   1.684 -0.2525  0.6804 -1.0850
18000TIP3   OH275414   0.156   5.171  17.209  0.0087  0.3948  0.1564
18000TIP3    H175415   0.216   5.215  17.149  0.3580  0.4614  0.5494
18000TIP3    H275416   0.074   5.220  17.202  0.2227  0.7553  0.1645
18001TIP3   OH275417   5.878   4.577  11.753 -0.3717  0.3399  0.3021
18001TIP3    H175418   5.787   4.573  11.723  0.0933 -0.4673 -1.1105
18001TIP3    H275419   5.913   4.489  11.735  1.3255  1.2931 -1.3333
18002TIP3   OH275420   4.267   1.659  13.791  0.4061  0.7301  0.3622
18002TIP3    H175421   4.234   1.631  13.705 -0.4379  1.4875  0.4241
18002TIP3    H275422   4.282   1.577  13.839 -0.2009  0.3310 -0.1146
18003TIP3   OH275423   4.669   6.770   0.354  0.3715 -0.3018 -0.1607
18003TIP3    H175424   4.756   6.738   0.333  1.0543  1.0740  0.4370
18003TIP3    H275425   4.634   6.802   0.271  0.8223 -0.0002 -0.2372
18004TIP3   OH275426   3.734   1.504   3.971  0.0581 -0.3189  0.3592
18004TIP3    H175427   3.664   1.477   4.029  0.3781 -0.7304  0.5546
18004TIP3    H275428   3.814   1.493   4.022  0.2867 -0.0727  0.0598
18005TIP3   OH275429   0.842   2.577   0.165  0.6624 -0.6664  0.4978
18005TIP3    H175430   0.863   2.582   0.258  0.1401 -0.1938  0.5946
18005TIP3    H275431   0.749   2.601   0.160  0.5590 -1.1652 -0.0906
18006TIP3   OH275432   2.122   5.180   6.032 -0.1970  0.0002 -0.5398
18006TIP3    H175433   2.099   5.265   5.994  2.6269  0.5991 -1.1461
18006TIP3    H275434   2.044   5.155   6.082 -1.2445  2.8248 -0.5285
18007TIP3   OH275435   4.954   6.060   2.356  0.5672 -0.1136  0.2652
18007TIP3    H175436   5.025   6.027   2.412  1.5484 -0.0866 -0.9156
18007TIP3    H275437   4.990   6.141   2.319 -0.3909  0.3082  0.2473
18008TIP3   OH275438   0.033   4.366  13.691 -0.7047  0.3744  0.0492
18008TIP3    H175439   0.032   4.335  13.600  0.9546 -1.5939  0.6361
18008TIP3    H275440   0.045   4.460  13.684  2.0464  0.0094 -1.8167
18009TIP3   OH275441   2.663   4.199   2.294  0.1722 -0.3162  0.5685
18009TIP3    H175442   2.657   4.111   2.329 -0.0968  0.2391  1.9972
18009TIP3    H275443   2.573   4.226   2.278  0.3207 -0.9529 -1.6984
18010TIP3   OH275444   3.640   3.129  14.763 -0.3511 -0.1403 -0.3566
18010TIP3    H175445   3.667   3.059  14.822 -0.0472  1.0702  0.9953
18010TIP3    H275446   3.714   3.190  14.763 -0.6637  0.2637 -1.4078
18011TIP3   OH275447   4.343   1.324   0.532  0.0221 -0.4720 -0.1030
18011TIP3    H175448   4.327   1.231   0.549  2.4029 -0.8808  0.3467
18011TIP3    H275449   4.321   1.368   0.613 -0.0911 -0.8058  0.0460
18012TIP3   OH275450   1.222   1.687   2.457  0.1805 -0.3390 -0.0900
18012TIP3    H175451   1.221   1.775   2.494  1.2236  0.2444 -1.3626
18012TIP3    H275452   1.300   1.646   2.494  0.2480 -0.3717 -0.2673
18013TIP3   OH275453   4.754   3.190   1.490  0.0120 -0.1086  0.1484
18013TIP3    H175454   4.676   3.135   1.476  1.8528 -2.4658 -1.6717
18013TIP3    H275455   4.810   3.137   1.547  0.2759  1.6535  1.6128
18014TIP3   OH275456   6.305   3.089  13.546  0.0350 -0.2697 -0.1572
18014TIP3    H175457   6.365   3.130  13.484  0.8990 -0.7712  0.3341
18014TIP3    H275458   6.314   2.995  13.529 -0.7237 -0.3483 -0.1704
18015TIP3   OH275459   5.526   3.947   2.883 -0.2220 -0.0425  0.1368
18015TIP3    H175460   5.448   3.987   2.844 -0.5755  0.7030  1.5532
18015TIP3    H275461   5.578   4.021   2.913  0.4903 -0.5789  0.2377
18016TIP3   OH275462   5.023   3.966  12.213  0.1597 -0.0422 -0.1392
18016TIP3    H175463   5.037   4.033  12.280  2.7097 -0.3519 -0.2701
18016TIP3    H275464   5.063   4.002  12.134  0.4700 -1.2032 -0.5273
18017TIP3   OH275465   1.223   2.339   6.074  0.2508  0.2332  0.0590
18017TIP3    H175466   1.137   2.299   6.089 -0.0621  0.5371 -0.8350
18017TIP3    H275467   1.285   2.277   6.112 -0.4289  0.7714  2.1672
18018TIP3   OH275468   6.178   5.312  10.429 -0.0095  0.1314 -0.2049
18018TIP3    H175469   6.123   5.278  10.358 -1.7642  1.9702  0.1789
18018TIP3    H275470   6.234   5.377  10.386  0.0734  0.0922 -0.1569
18019TIP3   OH275471   5.427   2.728  13.424  1.0021 -0.0529  0.6056
18019TIP3    H175472   5.416   2.736  13.330  0.4158 -1.6391  0.5154
18019TIP3    H275473   5.510   2.772  13.442  1.6412 -0.6210 -0.7984
18020TIP3   OH275474   3.708   6.183  13.289  0.1805 -0.5625  0.6139
18020TIP3    H175475   3.765   6.242  13.338 -0.7758 -0.0872  1.1721
18020TIP3    H275476   3.642   6.155  13.352  1.5276 -3.6111  0.8718
18021TIP3   OH275477   4.457   1.375  13.197 -0.2704 -0.0083 -0.2822
18021TIP3    H175478   4.373   1.336  13.220  0.6680 -0.6207  2.5034
18021TIP3    H275479   4.497   1.314  13.136 -1.3833 -0.2668 -0.7587
18022TIP3   OH275480   3.342   6.124   2.852  0.4442  0.5189  0.6868
18022TIP3    H175481   3.312   6.086   2.934 -1.0019  1.9872  0.8901
18022TIP3    H275482   3.263   6.135   2.800  1.2702  0.1443 -0.6953
18023TIP3   OH275483   2.217   0.911  13.635 -0.4890  0.1540 -0.8693
18023TIP3    H175484   2.248   0.822  13.619  2.3714  0.6134  1.3756
18023TIP3    H275485   2.130   0.899  13.674 -0.4364 -1.5884 -1.2073
18024TIP3   OH275486   2.571   1.104  15.844  0.0824  0.2667  0.2222
18024TIP3    H175487   2.606   1.098  15.933  0.9246  1.8296  0.0242
18024TIP3    H275488   2.481   1.135  15.855 -1.4090 -3.6185  0.7224
18025TIP3   OH275489   3.124   1.271   3.175  0.2623 -0.1820  0.2019
18025TIP3    H175490   3.090   1.190   3.139 -0.5588  0.5465 -0.7171
18025TIP3    H275491   3.181   1.306   3.107  0.1097  0.3286  0.3322
18026TIP3   OH275492   2.546   4.740  11.388 -0.1891 -0.1677  0.1428
18026TIP3    H175493   2.503   4.654  11.384 -0.8213  0.1608 -0.1132
18026TIP3    H275494   2.639   4.720  11.373 -0.4502 -0.7046 -0.8915
18027TIP3   OH275495   3.441   3.308  12.389 -0.2596  0.5397  0.1229
18027TIP3    H175496   3.506   3.352  12.334  1.7672  0.5232  2.3325
18027TIP3    H275497   3.452   3.215  12.369  0.1202  0.5650  0.2036
18028TIP3   OH275498   1.714   0.870  13.642  0.2189 -0.0417  0.0892
18028TIP3    H175499   1.732   0.960  13.616 -0.1529 -0.4498 -1.6502
18028TIP3    H275500   1.764   0.816  13.580 -2.1748 -1.0815 -1.0665
18029TIP3   OH275501   4.580   5.294   1.946  0.0575 -0.0706  0.1381
18029TIP3    H175502   4.567   5.324   1.855  1.8182 -1.8726 -0.8007
18029TIP3    H275503   4.512   5.229   1.960  0.5032 -0.6685 -0.3713
18030TIP3   OH275504   2.484   3.270   4.863 -0.2901  0.3432 -0.0417
18030TIP3    H175505   2.573   3.300   4.880  0.8612 -1.6484 -2.0256
18030TIP3    H275506   2.495   3.183   4.825 -3.0501  0.3934 -1.1924
18031TIP3   OH275507   1.661   0.707  16.993 -0.5540 -0.0957  0.4000
18031TIP3    H175508   1.668   0.796  16.958  1.1254 -0.7788 -1.1137
18031TIP3    H275509   1.699   0.713  17.081  0.3757  0.4965 -0.0359
18032TIP3   OH275510   4.783   6.389   2.422 -0.1773 -0.2864  0.0417
18032TIP3    H175511   4.765   6.296   2.409  0.0436 -0.6878  2.2839
18032TIP3    H275512   4.835   6.393   2.502  0.7870  1.6990 -0.6008
18033TIP3   OH275513   2.129   1.270  14.341 -0.1358 -0.0327 -0.1976
18033TIP3    H175514   2.059   1.273  14.275  0.2480 -0.4013 -0.6342
18033TIP3    H275515   2.142   1.177  14.357 -0.3394  0.0595  0.5363
18034TIP3   OH275516   0.129   2.295   1.071 -0.0505  0.1826 -0.1602
18034TIP3    H175517   0.194   2.238   1.030  1.9046  1.8729  0.4284
18034TIP3    H275518   0.117   2.258   1.158  0.8092  0.3342  0.0328
18035TIP3   OH275519   1.885   5.609   6.552 -0.0868  0.1914 -0.4787
18035TIP3    H175520   1.977   5.615   6.575  0.1574 -0.4318 -1.2589
18035TIP3    H275521   1.875   5.666   6.475 -0.3974  0.3931 -0.2957
18036TIP3   OH275522   0.981   0.379   2.221 -0.3137  0.4536  0.1156
18036TIP3    H175523   0.988   0.316   2.293  1.2654  1.3668  0.8211
18036TIP3    H275524   0.934   0.453   2.258 -2.4184 -0.3492 -0.7945
18037TIP3   OH275525   3.461   2.745   0.354 -0.3419 -0.1601 -0.0548
18037TIP3    H175526   3.442   2.805   0.426  1.7306  0.6058 -0.0808
18037TIP3    H275527   3.390   2.760   0.291  0.7556  3.3711 -0.6988
18038TIP3   OH275528   5.137   0.535  14.623 -0.0356  0.1927  0.0477
18038TIP3    H175529   5.212   0.547  14.680  1.0603 -0.5642 -1.1660
18038TIP3    H275530   5.108   0.445  14.640 -1.3184  0.7959  1.2208
18039TIP3   OH275531   2.952   5.206  17.275  0.0659 -0.5071  0.5083
18039TIP3    H175532   2.902   5.266  17.330 -0.6491 -1.5693  1.0421
18039TIP3    H275533   2.911   5.213  17.189  1.4099  1.4264 -0.0454
18040TIP3   OH275534   6.229   4.766  11.686 -0.1003 -0.6105 -0.0496
18040TIP3    H175535   6.266   4.728  11.765 -0.3249  2.0158  1.4521
18040TIP3    H275536   6.305   4.804  11.640 -0.2168 -0.2774  0.0292
18041TIP3   OH275537   0.066   6.765   2.649  0.0933 -0.6299 -0.2465
18041TIP3    H175538   0.152   6.803   2.632  0.3936 -1.5113 -0.7831
18041TIP3    H275539   0.020   6.769   2.565 -0.4747  0.0394  0.0916
18042TIP3   OH275540   0.782   0.522  13.700  0.4598 -0.1783 -0.3134
18042TIP3    H175541   0.726   0.474  13.762  0.0335  1.8641  1.0107
18042TIP3    H275542   0.735   0.518  13.617 -0.2926 -0.8194  0.1309
18043TIP3   OH275543   4.870   4.418   0.043 -0.1630 -0.3195 -0.1897
18043TIP3    H175544   4.791   4.404   0.096 -0.6819 -2.3841 -1.3822
18043TIP3    H275545   4.936   4.361   0.083 -0.3062 -1.2050 -1.1492
18044TIP3   OH275546   4.361   5.642   6.013 -0.6419 -0.4948 -0.1640
18044TIP3    H175547   4.296   5.587   6.056  1.2385 -0.1190  3.5796
18044TIP3    H275548   4.445   5.611   6.047  1.0299  0.4121 -3.1295
18045TIP3   OH275549   1.154   1.949   4.070  0.4380 -0.3200  0.3068
18045TIP3    H175550   1.177   1.909   4.154 -1.3571 -3.2671 -0.4537
18045TIP3    H275551   1.064   1.921   4.054  0.0630  1.7457 -1.7565
18046TIP3   OH275552   0.109   1.146   0.220  0.4621  0.1625 -0.0143
18046TIP3    H175553   0.112   1.078   0.152 -0.7949 -0.5350  0.5813
18046TIP3    H275554   0.119   1.228   0.172 -1.2088 -0.2534 -1.1778
18047TIP3   OH275555   6.120   5.530  10.952 -0.1183 -0.0243 -0.1973
18047TIP3    H175556   6.100   5.610  10.903 -3.0380 -0.3581  0.2823
18047TIP3    H275557   6.196   5.553  11.006 -1.2183  2.6475  0.3715
18048TIP3   OH275558   4.914   1.168   4.027  0.0425  0.5527  0.2879
18048TIP3    H175559   4.981   1.222   3.985 -1.0509  0.8329 -1.1821
18048TIP3    H275560   4.919   1.084   3.981  0.9236 -0.2402  1.7505
18049TIP3   OH275561   1.838   6.539  13.930  0.1555  0.6858 -0.8834
18049TIP3    H175562   1.802   6.626  13.947 -0.6269  0.1297  0.4651
18049TIP3    H275563   1.846   6.499  14.017  1.1156 -0.3550 -1.4284
18050TIP3   OH275564   1.872   4.060  14.467 -0.4204  0.1033  0.0986
18050TIP3    H175565   1.808   4.024  14.405  0.5094  1.2537 -1.5938
18050TIP3    H275566   1.939   3.992  14.475 -0.2181  0.2069 -0.6854
18051TIP3   OH275567   3.118   5.144   3.491  0.1314  0.4561  0.0400
18051TIP3    H175568   3.029   5.174   3.507  0.1537  0.6084 -0.1235
18051TIP3    H275569   3.117   5.052   3.517 -0.1393  0.3868 -0.2135
18052TIP3   OH275570   4.070   0.263  15.015 -0.0646  0.4013 -0.2714
18052TIP3    H175571   4.134   0.288  15.081  0.8383  0.4318 -1.1246
18052TIP3    H275572   4.055   0.170  15.030  1.4167  0.0009 -1.0353
18053TIP3   OH275573   2.538   6.735  11.924 -0.2093 -0.0671 -0.2873
18053TIP3    H175574   2.494   6.740  11.839  0.2297 -0.0221 -0.5151
18053TIP3    H275575   2.502   6.656  11.965 -2.3899  1.3111  0.6129
18054TIP3   OH275576   6.487   6.322  13.627 -0.0265  0.2979  0.0173
18054TIP3    H175577   6.486   6.298  13.719 -1.3076 -2.0627 -0.5276
18054TIP3    H275578   6.577   6.304  13.599 -0.0726 -0.6776  0.4467
18055TIP3   OH275579   2.105   0.199   0.088  0.1005 -0.4837  0.3705
18055TIP3    H175580   2.168   0.145   0.040 -0.3217 -0.3382 -0.3716
18055TIP3    H275581   2.133   0.289   0.072  0.8879 -0.4586  1.7241
18056TIP3   OH275582   0.362   6.679   2.803 -0.5484 -0.3701 -0.3840
18056TIP3    H175583   0.347   6.591   2.837  1.3098 -0.9990 -1.0928
18056TIP3    H275584   0.428   6.716   2.860 -1.9217  0.9378  0.4338
18057TIP3   OH275585   0.582   4.878   3.793  0.1998  0.3001 -0.1360
18057TIP3    H175586   0.623   4.921   3.868  1.0676  0.1621 -0.5245
18057TIP3    H275587   0.489   4.877   3.814  0.5228 -0.5091  1.3301
18058TIP3   OH275588   0.676   4.217   3.942 -0.4045 -0.1154 -0.0971
18058TIP3    H175589   0.697   4.187   4.031  1.7403 -0.1170 -0.5582
18058TIP3    H275590   0.660   4.136   3.893  0.1590 -0.2299 -0.1030
18059TIP3   OH275591   3.474   2.799  12.929 -0.5181  0.3814 -0.3073
18059TIP3    H175592   3.422   2.719  12.931 -0.1796  0.1085 -1.4763
18059TIP3    H275593   3.557   2.776  12.970  0.2488 -0.4078 -2.1844
18060TIP3   OH275594   1.500   3.726  15.573 -0.1517 -0.9076 -0.0396
18060TIP3    H175595   1.588   3.756  15.595 -0.1829 -1.1058  0.3700
18060TIP3    H275596   1.442   3.778  15.629 -0.3041 -0.7076 -0.3782
18061TIP3   OH275597   0.791   4.021  16.215 -0.4118  0.0180 -0.7655
18061TIP3    H175598   0.812   4.048  16.126  1.2118  0.5075 -0.2777
18061TIP3    H275599   0.819   4.094  16.270 -0.4275 -0.6811  0.2135
18062TIP3   OH275600   3.074   4.475  13.643  0.1559  0.3069 -0.0466
18062TIP3    H175601   3.115   4.393  13.668 -0.1741 -0.2312 -1.1821
18062TIP3    H275602   2.993   4.449  13.598  0.6158  1.1826 -1.4539
18063TIP3   OH275603   6.584   3.858  16.795 -0.2212 -0.2879  0.2512
18063TIP3    H175604   6.593   3.773  16.753  0.1609  0.0341 -0.3197
18063TIP3    H275605   6.669   3.874  16.835  0.6072  0.9994 -1.8689
18064TIP3   OH275606   3.452   4.171   5.342 -0.3083  0.8306  0.0986
18064TIP3    H175607   3.489   4.188   5.428  0.8546  1.7919 -0.5587
18064TIP3    H275608   3.526   4.137   5.291 -0.8965  0.6044 -0.6231
18065TIP3   OH275609   5.385   0.087   4.972 -0.7246 -0.5006 -0.1965
18065TIP3    H175610   5.413   0.127   5.054 -1.7526 -1.0961  0.4695
18065TIP3    H275611   5.295   0.058   4.988 -0.5053 -1.8114 -1.0860
18066TIP3   OH275612   3.386   4.152  11.850 -1.0206  0.0180 -0.0735
18066TIP3    H175613   3.366   4.114  11.936  2.1590 -0.5397  0.5665
18066TIP3    H275614   3.371   4.246  11.862  0.4074  0.1020  1.5329
18067TIP3   OH275615   3.925   4.997   1.224 -0.7086 -0.3676 -0.0600
18067TIP3    H175616   3.893   5.087   1.226  2.2813  0.8601  2.2529
18067TIP3    H275617   3.857   4.946   1.268 -1.8853  1.0174 -0.2041
18068TIP3   OH275618   5.935   6.678   0.768 -0.0413  0.1777 -0.0622
18068TIP3    H175619   5.921   6.647   0.857 -1.3564  0.0836 -0.2675
18068TIP3    H275620   5.861   6.642   0.719  0.8022  0.0170 -1.2452
18069TIP3   OH275621   5.594   3.408  13.325  0.0538  0.0268  0.6518
18069TIP3    H175622   5.668   3.371  13.373  0.3688 -1.4185 -0.8804
18069TIP3    H275623   5.631   3.437  13.242 -0.7298  1.2706  0.7050
18070TIP3   OH275624   1.322   2.993   0.150 -0.1347  0.4822  0.8221
18070TIP3    H175625   1.351   3.059   0.086 -0.6689  0.2185  0.2993
18070TIP3    H275626   1.340   2.909   0.108 -3.4221  0.2631 -0.4318
18071TIP3   OH275627   6.386   6.306   4.015  0.4241 -0.7351 -0.2404
18071TIP3    H175628   6.321   6.346   3.957  0.8166 -0.3286 -0.4084
18071TIP3    H275629   6.465   6.300   3.961  0.3983 -1.6548 -0.1826
18072TIP3   OH275630   6.608   1.835   1.244  0.1673  0.2522  0.3103
18072TIP3    H175631   6.559   1.876   1.315  1.5871  1.6470  0.5381
18072TIP3    H275632   6.541   1.803   1.184 -1.0232  1.5670  0.8872
18073TIP3   OH275633   4.296   2.109   1.647  0.1070 -0.2112 -0.0965
18073TIP3    H175634   4.293   2.204   1.632 -1.5282  0.2155  2.2955
18073TIP3    H275635   4.262   2.071   1.567 -1.1221  1.3742 -0.3856
18074TIP3   OH275636   6.443   2.655  16.122 -0.0350  0.1735  0.2869
18074TIP3    H175637   6.441   2.626  16.031  1.7202 -2.0970  0.8743
18074TIP3    H275638   6.536   2.660  16.143 -0.4093  0.4084  2.0386
18075TIP3   OH275639   6.282   3.043  15.784  0.2088 -0.0982 -0.1261
18075TIP3    H175640   6.267   2.992  15.864 -2.7691  0.0742 -0.4922
18075TIP3    H275641   6.339   3.115  15.813  0.8836 -1.1666  1.3558
18076TIP3   OH275642   3.458   6.061  10.981  0.6462  0.4134  0.1511
18076TIP3    H175643   3.500   5.982  11.016 -3.4014 -4.4194 -4.1524
18076TIP3    H275644   3.505   6.079  10.899 -0.1190  0.6570 -0.2446
18077TIP3   OH275645   3.727   2.119  17.286  0.1108  0.2440 -0.5656
18077TIP3    H175646   3.787   2.045  17.296  0.1418  0.3675  0.2155
18077TIP3    H275647   3.640   2.080  17.294  0.1405  0.5095  1.6711
18078TIP3   OH275648   5.403   4.585  12.285 -0.0546  0.0984  0.0060
18078TIP3    H175649   5.310   4.605  12.296 -0.1004  0.1883 -0.5426
18078TIP3    H275650   5.448   4.665  12.313 -0.1803  0.4014 -0.6371
18079TIP3   OH275651   3.113   1.006   6.540 -0.3044 -0.3960 -0.3956
18079TIP3    H175652   3.201   1.031   6.567  0.1253 -0.9233 -1.2385
18079TIP3    H275653   3.059   1.083   6.558  0.0136 -0.5687  1.4911
18080TIP3   OH275654   6.593   5.149   6.800 -0.3022  0.0383 -0.0764
18080TIP3    H175655   6.531   5.216   6.772  0.0509 -0.6398 -2.7642
18080TIP3    H275656   6.675   5.197   6.813 -0.8955  0.6505  1.7511
18081TIP3   OH275657   4.050   6.210   2.182  0.1086 -0.1928 -0.9846
18081TIP3    H175658   4.112   6.139   2.200  0.7004  0.8680  1.5521
18081TIP3    H275659   4.104   6.278   2.142 -0.0610 -0.4009 -1.5796
18082TIP3   OH275660   4.197   2.267  11.530  0.1279  0.5027  0.0401
18082TIP3    H175661   4.120   2.224  11.565  0.8199 -1.5673 -0.8045
18082TIP3    H275662   4.232   2.318  11.603 -1.2993  0.4336  0.8015
18083TIP3   OH275663   3.370   0.234  11.983  0.6072  0.7359 -0.0178
18083TIP3    H175664   3.296   0.236  11.921  0.3869 -1.8894  0.0419
18083TIP3    H275665   3.414   0.151  11.965  1.4005  0.5575  2.3614
18084TIP3   OH275666   2.868   3.235   0.159  0.4953 -0.1887 -0.0062
18084TIP3    H175667   2.895   3.310   0.211 -1.2192  0.9015 -0.6217
18084TIP3    H275668   2.932   3.231   0.087  1.5021 -0.3036  0.8734
18085TIP3   OH275669   4.051   3.447   0.276  0.4237 -0.7888 -0.6727
18085TIP3    H175670   4.026   3.354   0.277  0.3358 -0.8103 -2.4468
18085TIP3    H275671   4.094   3.460   0.360  0.6717 -2.5067 -0.4822
18086TIP3   OH275672   6.379   5.839  12.454  0.3409 -0.1646  0.1510
18086TIP3    H175673   6.384   5.931  12.428 -0.4735  0.4218  1.8716
18086TIP3    H275674   6.361   5.842  12.548  0.1350 -2.0958  0.2163
18087TIP3   OH275675   1.552   0.196   3.494 -0.4514  0.2260 -0.7669
18087TIP3    H175676   1.521   0.279   3.459  0.3800  1.5164  1.4033
18087TIP3    H275677   1.645   0.192   3.471 -0.6778 -0.5568 -1.6241
18088TIP3   OH275678   2.121   6.160   2.453  0.7540 -0.3155 -0.1507
18088TIP3    H175679   2.141   6.076   2.496 -0.1027 -0.4181  0.0517
18088TIP3    H275680   2.042   6.191   2.496 -0.3559 -0.5882 -1.8703
18089TIP3   OH275681   6.478   2.199  10.595 -0.2868 -0.1228 -0.1964
18089TIP3    H175682   6.507   2.108  10.599 -1.0445 -0.6249 -3.5762
18089TIP3    H275683   6.530   2.238  10.525 -1.0066  1.6365  0.1932
18090TIP3   OH275684   3.472   3.621  13.150 -0.2645 -0.5375  0.0640
18090TIP3    H175685   3.532   3.547  13.155  0.9882  0.2781 -1.8497
18090TIP3    H275686   3.502   3.681  13.217 -0.0989 -0.9288  0.3438
18091TIP3   OH275687   5.992   5.026  14.709 -0.6189 -0.0898  0.4379
18091TIP3    H175688   5.963   5.009  14.798 -1.2961 -0.4805  0.1555
18091TIP3    H275689   6.040   4.947  14.684  1.3628  0.8247  1.1415
18092TIP3   OH275690   3.731   0.112   5.250  0.4195 -0.0746 -0.1343
18092TIP3    H175691   3.676   0.163   5.191 -1.0946  0.5208  1.6915
18092TIP3    H275692   3.803   0.171   5.273 -1.1654  1.2803  1.7408
18093TIP3   OH275693   0.978   0.047   5.740  0.4206  0.0073 -0.1091
18093TIP3    H175694   1.002   0.051   5.647  1.9777 -0.9125  0.2015
18093TIP3    H275695   1.060   0.022   5.784 -0.7535 -1.6124  1.2784
18094TIP3   OH275696   0.833   4.656   5.668  0.2573  0.2923 -0.2971
18094TIP3    H175697   0.893   4.729   5.685  0.9639 -0.1087 -1.0234
18094TIP3    H275698   0.845   4.637   5.575 -2.1312  1.2195 -0.8643
18095TIP3   OH275699   5.079   3.550  16.916 -0.1946  0.0439  0.0041
18095TIP3    H175700   5.021   3.597  16.975  1.2197  1.9632 -0.0192
18095TIP3    H275701   5.157   3.533  16.968  0.1948 -0.2493 -0.6576
18096TIP3   OH275702   3.120   4.897  15.643  0.3133 -0.4254 -0.6169
18096TIP3    H175703   3.193   4.925  15.588  1.0488  0.6909  0.8668
18096TIP3    H275704   3.144   4.923  15.732 -1.3376 -1.1591  0.1069
18097TIP3   OH275705   6.365   3.200   0.234 -0.4781  0.3188 -0.4048
18097TIP3    H175706   6.323   3.279   0.269  0.7373 -0.2248  2.6024
18097TIP3    H275707   6.295   3.135   0.232 -0.9337  0.8049 -0.4565
18098TIP3   OH275708   2.251   1.041  16.319 -0.6313  0.1586  0.0138
18098TIP3    H175709   2.167   1.049  16.362 -0.7768  0.6334 -0.3450
18098TIP3    H275710   2.286   1.130  16.317 -0.2321  0.0051 -0.0604
18099TIP3   OH275711   3.842   4.112  15.445 -0.0823  0.3765  0.6246
18099TIP3    H175712   3.774   4.163  15.489 -1.0376  0.3248 -0.7270
18099TIP3    H275713   3.795   4.036  15.409  0.9093 -0.2633  0.6598
18100TIP3   OH275714   0.508   3.677   0.300 -0.0009 -0.1843  0.2946
18100TIP3    H175715   0.454   3.681   0.379  0.8837 -0.0721  0.9133
18100TIP3    H275716   0.526   3.583   0.289 -1.0610 -0.3177 -0.4458
18101TIP3   OH275717   6.270   6.510  14.525 -0.1603  0.3538  0.3645
18101TIP3    H175718   6.280   6.571  14.598 -0.3951  2.0804 -0.9683
18101TIP3    H275719   6.306   6.427  14.557 -0.0007  1.1235  2.3103
18102TIP3   OH275720   0.589   3.867   3.472  0.1424  0.2327 -0.2299
18102TIP3    H175721   0.661   3.896   3.529 -0.3629  0.8089  0.1195
18102TIP3    H275722   0.513   3.861   3.530 -0.6460  1.8936 -1.0202
18103TIP3   OH275723   3.374   5.687  11.897  0.1970  0.3597  0.5051
18103TIP3    H175724   3.393   5.703  11.990 -0.7959  1.3863  0.5427
18103TIP3    H275725   3.312   5.614  11.898 -0.0112  0.5371  0.6642
18104TIP3   OH275726   3.321   1.202   6.792  0.0785  0.1769 -0.1394
18104TIP3    H175727   3.239   1.167   6.829  0.5723 -2.2040 -1.0942
18104TIP3    H275728   3.306   1.201   6.697  1.7144 -1.9307 -0.4570
18105TIP3   OH275729   5.077   3.731  14.033  0.1278 -0.3280  0.5473
18105TIP3    H175730   5.035   3.659  14.080 -0.3884 -1.2493 -1.1946
18105TIP3    H275731   5.075   3.702  13.941  0.7123  1.5338 -0.0816
18106TIP3   OH275732   2.750   6.136   3.139 -0.0925  0.2108 -0.4187
18106TIP3    H175733   2.745   6.093   3.053 -0.8102 -0.3944 -0.0854
18106TIP3    H275734   2.810   6.209   3.125  1.1691 -0.8914 -1.0041
18107TIP3   OH275735   0.475   6.355  11.478  0.4357  0.8137  0.0859
18107TIP3    H175736   0.555   6.301  11.471  0.9230  1.4677  0.4691
18107TIP3    H275737   0.495   6.434  11.428 -0.7283  0.1618 -1.4825
18108TIP3   OH275738   3.960   4.327   0.214  0.1282  0.0392  0.1997
18108TIP3    H175739   3.987   4.398   0.156  0.5071 -0.0491  0.2620
18108TIP3    H275740   3.906   4.270   0.159 -0.8286  0.7672  0.3488
18109TIP3   OH275741   5.532   2.467  15.414 -0.0882  0.0473  0.1594
18109TIP3    H175742   5.464   2.445  15.351  0.1623  2.9483 -1.2990
18109TIP3    H275743   5.614   2.462  15.363  0.2089  1.5094  0.4333
18110TIP3   OH275744   1.455   5.636   4.142 -0.1768  0.2818 -0.1456
18110TIP3    H175745   1.470   5.647   4.048  0.7184 -1.2834 -0.2202
18110TIP3    H275746   1.367   5.671   4.156 -0.4736  0.2125 -1.6237
18111TIP3   OH275747   1.515   4.960  12.017 -0.1853  0.7229 -0.5014
18111TIP3    H175748   1.541   4.903  12.090 -0.2600 -0.4450 -1.3628
18111TIP3    H275749   1.594   5.007  11.993  0.0315  0.5175 -0.1957
18112TIP3   OH275750   2.396   0.611   3.800  0.2061 -0.7481 -0.5578
18112TIP3    H175751   2.436   0.597   3.714  1.9346 -0.6771  0.1744
18112TIP3    H275752   2.470   0.633   3.857 -0.9720 -0.1505  0.8147
18113TIP3   OH275753   4.369   4.675   1.929  0.2681 -0.4086  1.1840
18113TIP3    H175754   4.280   4.693   1.899  1.3010 -1.6880 -3.2871
18113TIP3    H275755   4.420   4.750   1.900  1.0019 -0.6243  1.8897
18114TIP3   OH275756   3.238   1.510   4.444  0.0820 -0.0495  0.1899
18114TIP3    H175757   3.273   1.561   4.518 -2.5705  0.5934  1.1266
18114TIP3    H275758   3.159   1.558   4.419 -1.6863 -2.8449  0.0847
18115TIP3   OH275759   0.900   1.930   5.338  0.6409 -0.2239  0.1652
18115TIP3    H175760   0.856   1.879   5.406  1.5240 -0.0025  0.9180
18115TIP3    H275761   0.921   1.865   5.270 -0.8097 -0.3334 -0.2122
18116TIP3   OH275762   2.343   1.150  11.528 -0.4136 -0.6851 -0.1452
18116TIP3    H175763   2.295   1.232  11.516 -0.7859 -1.0669 -1.4806
18116TIP3    H275764   2.433   1.171  11.504 -0.2115 -0.3469  0.8602
18117TIP3   OH275765   3.735   3.244  16.120  0.2444 -0.5489 -0.4376
18117TIP3    H175766   3.776   3.274  16.040 -1.8213 -1.9139 -2.1353
18117TIP3    H275767   3.655   3.296  16.127  0.2222 -0.6944  0.5261
18118TIP3   OH275768   3.234   6.391   6.831 -0.4363 -0.4860  0.2187
18118TIP3    H175769   3.253   6.416   6.740  1.2980  1.8130  1.1189
18118TIP3    H275770   3.217   6.296   6.827  0.4839 -0.6114 -2.3558
18119TIP3   OH275771   3.457   3.354  13.394 -0.4820 -0.2404 -0.3696
18119TIP3    H175772   3.416   3.357  13.480  1.2140  1.7187  0.4445
18119TIP3    H275773   3.384   3.356  13.332 -1.6921  1.3380  1.0197
18120TIP3   OH275774   0.023   6.130  11.967 -0.9257  0.3696 -0.3215
18120TIP3    H175775  -0.060   6.084  11.975 -1.2304  1.0597  0.6757
18120TIP3    H275776  -0.002   6.221  11.951 -0.3685  0.6317  0.2812
18121TIP3   OH275777   1.155   4.846  12.071  0.9967  0.0864 -0.3718
18121TIP3    H175778   1.201   4.871  11.991  0.3619  0.0954 -0.7391
18121TIP3    H275779   1.070   4.889  12.064 -0.2834 -2.4004 -1.1768
18122TIP3   OH275780   5.754   1.031   3.357  0.3531 -0.0081  0.1147
18122TIP3    H175781   5.817   1.078   3.302 -0.8458  2.0414  0.3942
18122TIP3    H275782   5.786   1.045   3.446  1.4074 -1.9922  0.1197
18123TIP3   OH275783   5.998   4.641   6.662  0.0589 -0.1624  0.1022
18123TIP3    H175784   5.947   4.575   6.710  2.2354 -1.2427  1.0973
18123TIP3    H275785   5.968   4.725   6.698  0.1783 -0.8450  1.9150
18124TIP3   OH275786   0.719   1.883  13.951  0.1947 -0.8736 -0.1145
18124TIP3    H175787   0.671   1.893  14.033 -3.5378 -1.0392 -2.0565
18124TIP3    H275788   0.746   1.972  13.928  1.5852 -0.8697  1.3703
18125TIP3   OH275789   5.052   0.299  14.730 -0.3994 -0.6542  0.5483
18125TIP3    H175790   5.128   0.252  14.696  0.6505  1.0092  0.5072
18125TIP3    H275791   4.978   0.241  14.712  0.2248 -0.4452 -3.5074
18126TIP3   OH275792   5.441   5.536   2.144 -0.3357  0.1671 -0.0811
18126TIP3    H175793   5.394   5.618   2.163  0.3855  0.8773 -1.1984
18126TIP3    H275794   5.453   5.538   2.049  1.0012 -0.5073  0.0594
18127TIP3   OH275795   2.941   5.369   5.966 -0.5482 -0.0695  0.1095
18127TIP3    H175796   2.894   5.420   6.032  1.2810  2.2791 -0.2710
18127TIP3    H275797   2.952   5.429   5.892  1.9765 -0.8211 -0.2427
18128TIP3   OH275798   1.351   3.392   3.073 -0.0756 -0.8196 -0.1055
18128TIP3    H175799   1.420   3.328   3.093  2.0327  1.3724  0.1143
18128TIP3    H275800   1.344   3.446   3.151 -0.5786  0.2520 -0.8617
18129TIP3   OH275801   3.236   0.902   5.859  0.3519  0.0445 -0.1852
18129TIP3    H175802   3.153   0.871   5.823  0.1675  0.1970  0.1076
18129TIP3    H275803   3.301   0.844   5.821 -0.0872 -1.3541  1.1320
18130TIP3   OH275804   1.324   1.753   6.384 -0.0879  0.0513 -0.0400
18130TIP3    H175805   1.379   1.708   6.448 -0.5177 -0.5122 -0.0518
18130TIP3    H275806   1.366   1.838   6.370 -0.3571  0.4546  1.4917
18131TIP3   OH275807   2.845   5.457  11.505 -0.2621  0.1570  0.0411
18131TIP3    H175808   2.881   5.391  11.445 -1.2598  0.7676 -1.2996
18131TIP3    H275809   2.856   5.420  11.592 -1.5801 -2.2176 -0.7115
18132TIP3   OH275810   5.545   4.957   1.517 -0.0767  0.4862  0.3330
18132TIP3    H175811   5.519   5.008   1.440 -3.3517  0.2293  1.1145
18132TIP3    H275812   5.538   4.865   1.489  0.8654  0.3886  0.3667
18133TIP3   OH275813   4.355   0.700   4.649  0.3979  0.1986  0.1536
18133TIP3    H175814   4.347   0.786   4.606  1.1607  0.5037  0.6052
18133TIP3    H275815   4.316   0.639   4.587  1.2415  0.6684 -0.8642
18134TIP3   OH275816   4.271   1.718   3.135  0.3314 -0.5036 -0.2291
18134TIP3    H175817   4.289   1.737   3.043  0.0987 -0.9100 -0.3597
18134TIP3    H275818   4.270   1.804   3.177 -1.8946 -0.0757 -1.0229
18135TIP3   OH275819   5.742   1.543  12.174  0.5185  0.3698 -0.1160
18135TIP3    H175820   5.741   1.550  12.078 -0.8832 -0.2314 -0.1739
18135TIP3    H275821   5.697   1.621  12.204  1.3815  0.7995  0.0941
18136TIP3   OH275822   1.011   1.978   3.556  0.2926 -1.2317 -0.5480
18136TIP3    H175823   0.995   1.921   3.482 -1.3798 -1.7240  0.1515
18136TIP3    H275824   0.927   1.984   3.601  1.1352 -0.5547  1.0327
18137TIP3   OH275825   2.289   2.451   3.796 -0.3520 -0.0151  0.0048
18137TIP3    H175826   2.321   2.419   3.712 -2.5282 -0.1303 -0.8459
18137TIP3    H275827   2.203   2.409   3.807 -0.4783  0.6382  1.8941
18138TIP3   OH275828   4.791   3.758   3.938 -0.0669 -0.5806  0.0176
18138TIP3    H175829   4.797   3.702   3.861  1.4443  1.7359 -1.6761
18138TIP3    H275830   4.875   3.746   3.983 -0.1300 -0.4065  0.1827
18139TIP3   OH275831   5.840   6.684   5.392  0.0155 -0.0679  0.1120
18139TIP3    H175832   5.910   6.749   5.382  1.5120 -1.4336  1.2451
18139TIP3    H275833   5.866   6.611   5.336  0.7602 -1.5425  2.2504
18140TIP3   OH275834   2.218   5.669  17.227 -0.2341  0.5509  0.7569
18140TIP3    H175835   2.230   5.642  17.317  0.3744 -3.2681 -0.2966
18140TIP3    H275836   2.302   5.706  17.202  0.3739 -0.5211  1.1522
18141TIP3   OH275837   2.092   0.984  14.038 -0.1464  0.0593 -0.7564
18141TIP3    H175838   2.134   1.053  13.986 -0.2049  1.4013  0.8672
18141TIP3    H275839   2.144   0.979  14.118 -1.4707 -0.1637  0.1317
18142TIP3   OH275840   2.061   2.222   1.191 -0.1363 -0.1975 -0.0969
18142TIP3    H175841   2.102   2.249   1.273 -0.1675  0.9475 -0.4512
18142TIP3    H275842   2.119   2.153   1.157  0.8862  0.6134 -0.0292
18143TIP3   OH275843   6.642   4.084   0.881 -0.0082  0.0150 -0.1263
18143TIP3    H175844   6.638   4.115   0.790 -1.2050  0.0885 -0.0625
18143TIP3    H275845   6.550   4.079   0.908  0.3312 -0.2955  0.9853
18144TIP3   OH275846   5.682   2.961   5.015  0.0229  0.1800 -0.5120
18144TIP3    H175847   5.653   2.944   5.105  1.1377 -0.1172 -0.1968
18144TIP3    H275848   5.747   2.893   4.997 -0.4355  0.0181 -1.6792
18145TIP3   OH275849   6.309   2.118   4.612  0.0298 -0.2280 -0.2056
18145TIP3    H175850   6.237   2.138   4.673  0.4188 -0.5614  0.3720
18145TIP3    H275851   6.265   2.079   4.536 -0.3972 -0.5360  0.1888
18146TIP3   OH275852   3.722   5.633  13.662  0.9434  0.0120 -0.1102
18146TIP3    H175853   3.787   5.700  13.683  1.5700  0.0409 -1.9588
18146TIP3    H275854   3.708   5.642  13.568 -1.3717 -0.3546  0.1502
18147TIP3   OH275855   3.394   6.178  16.829 -0.1491  0.8867 -0.1106
18147TIP3    H175856   3.482   6.142  16.825 -0.3551  0.4635 -1.5960
18147TIP3    H275857   3.390   6.241  16.757 -1.0194  0.9812  0.0007
18148TIP3   OH275858   6.650   0.812   0.329 -0.3104  0.5689  0.0367
18148TIP3    H175859   6.621   0.734   0.283  1.0997 -0.4090  0.7464
18148TIP3    H275860   6.730   0.838   0.284  0.5176  0.1997  1.2544
18149TIP3   OH275861   3.029   0.334   3.391  0.1197  0.0819  0.2806
18149TIP3    H175862   2.988   0.398   3.333  2.7172  0.1581 -1.6369
18149TIP3    H275863   3.086   0.283   3.334  2.3795 -0.2533  2.6659
18150TIP3   OH275864   0.680   0.204  11.053  0.3683 -0.6215 -0.2572
18150TIP3    H175865   0.717   0.165  11.132  0.3107 -1.8140 -0.7954
18150TIP3    H275866   0.691   0.136  10.986 -0.2800  0.0756 -1.0836
18151TIP3   OH275867   4.168   1.591  13.482  0.1082  0.0384 -0.1623
18151TIP3    H175868   4.132   1.543  13.407 -0.4692 -0.9267  0.7052
18151TIP3    H275869   4.247   1.543  13.505  1.7152  1.7821 -1.6602
18152TIP3   OH275870   2.316   2.491  16.179 -0.6492 -0.0382 -0.5693
18152TIP3    H175871   2.347   2.506  16.090  0.2092 -0.0959 -0.2886
18152TIP3    H275872   2.227   2.459  16.169 -0.8555  0.7463 -1.3751
18153TIP3   OH275873   2.351   0.014  12.205 -0.6560  0.5353  0.6700
18153TIP3    H175874   2.338  -0.034  12.286 -0.0322 -0.4117  0.2239
18153TIP3    H275875   2.435   0.059  12.216  0.8983 -1.8769 -0.4880
18154TIP3   OH275876   4.874   4.306  11.614 -0.0109  0.0120  0.2085
18154TIP3    H175877   4.886   4.212  11.607  0.1160 -0.0632  1.2605
18154TIP3    H275878   4.843   4.333  11.527 -0.4301 -1.0448  0.0131
18155TIP3   OH275879   0.447   4.266   2.290 -0.0950  0.4764  0.2495
18155TIP3    H175880   0.433   4.266   2.385 -0.6201 -2.9276  0.3163
18155TIP3    H275881   0.368   4.225   2.255 -0.3804  2.5835 -1.8488
18156TIP3   OH275882   5.618   2.794  13.832  0.6335 -0.0414  0.0040
18156TIP3    H175883   5.580   2.712  13.801 -1.3795  1.2649 -1.2864
18156TIP3    H275884   5.609   2.854  13.757 -0.0963  1.9634  1.5877
18157TIP3   OH275885   5.931   5.659   3.031 -0.6719 -0.0501 -0.1568
18157TIP3    H175886   5.969   5.682   3.116  0.6254  0.1172 -0.7467
18157TIP3    H275887   6.000   5.682   2.968 -2.1045  1.1402 -1.3824
18158TIP3   OH275888   5.978   3.276   0.135 -0.3950 -0.2028 -0.3488
18158TIP3    H175889   5.890   3.313   0.141  0.2521  1.5522 -1.0168
18158TIP3    H275890   5.993   3.238   0.222 -0.9742  1.4787  0.5420
18159TIP3   OH275891   3.371   2.155  17.193 -0.4593  0.3080  0.1729
18159TIP3    H175892   3.347   2.102  17.117 -0.9717  1.6037 -0.6048
18159TIP3    H275893   3.425   2.225  17.157  1.2139 -0.3123  1.3533
18160TIP3   OH275894   1.646   6.366  15.890  0.0248 -0.4946  0.3497
18160TIP3    H175895   1.599   6.286  15.910  0.0378 -0.5979 -0.0233
18160TIP3    H275896   1.579   6.427  15.860  0.1122 -0.6214 -0.1213
18161TIP3   OH275897   0.046   6.351   5.134 -0.2256  0.3242  0.2838
18161TIP3    H175898   0.067   6.261   5.159 -0.2934 -0.0194 -0.8385
18161TIP3    H275899   0.118   6.378   5.077 -0.8935  0.5026 -0.4817
18162TIP3   OH275900   3.129   6.331  11.341 -0.1497 -0.2173  0.3260
18162TIP3    H175901   3.154   6.288  11.422 -0.5350 -0.0381  0.5447
18162TIP3    H275902   3.153   6.269  11.272 -0.6821 -0.7714  0.6339
18163TIP3   OH275903   2.005   1.073  15.869 -0.2409 -0.1746 -0.4316
18163TIP3    H175904   2.014   0.994  15.922  1.4261 -0.8714 -1.6405
18163TIP3    H275905   1.944   1.128  15.917  0.5963 -1.0855  1.8138
18164TIP3   OH275906   2.414   6.308   4.817  0.0508 -0.3318 -0.2510
18164TIP3    H175907   2.501   6.349   4.812  0.3524 -0.9641 -0.2496
18164TIP3    H275908   2.355   6.381   4.837  0.3992  0.3237 -1.4989
18165TIP3   OH275909   5.072   1.819   3.473 -0.1092  0.3274  0.1599
18165TIP3    H175910   5.055   1.872   3.551 -0.5207  0.5427 -0.0718
18165TIP3    H275911   5.143   1.761   3.499  0.0555  0.6974  0.5571
18166TIP3   OH275912   0.355   5.233  14.187  0.1957 -0.2532  0.4222
18166TIP3    H175913   0.279   5.267  14.234  0.6762 -0.2449  1.2177
18166TIP3    H275914   0.349   5.272  14.100 -0.7003 -0.2474  0.4752
18167TIP3   OH275915   6.403   0.932  13.649 -0.5622 -0.2435  0.3713
18167TIP3    H175916   6.312   0.909  13.668 -0.5212 -1.0772 -0.3632
18167TIP3    H275917   6.448   0.847  13.642  0.5185  0.1728  1.8438
18168TIP3   OH275918   1.963   4.564   3.244  0.3110 -0.2809  0.4142
18168TIP3    H175919   1.935   4.495   3.184  1.4157 -0.2381 -0.1658
18168TIP3    H275920   1.977   4.519   3.328 -1.8494 -0.2324  0.8545
18169TIP3   OH275921   3.158   0.176  15.630 -0.1786  0.1436 -0.1423
18169TIP3    H175922   3.203   0.116  15.689  0.7073 -0.7285 -1.6613
18169TIP3    H275923   3.065   0.151  15.637 -0.0326 -0.2310  0.5422
18170TIP3   OH275924   6.090   0.387  16.428  0.0407 -0.4600 -0.5692
18170TIP3    H175925   6.091   0.482  16.443 -1.8792 -0.5011  0.1660
18170TIP3    H275926   6.150   0.373  16.354 -0.3999  1.4523 -1.3437
18171TIP3   OH275927   5.982   0.137   5.454 -0.1617 -0.1990  0.2945
18171TIP3    H175928   5.985   0.200   5.383  2.2072 -0.1597  0.3425
18171TIP3    H275929   6.043   0.172   5.520  1.3426 -2.5350  0.2688
18172TIP3   OH275930   1.130   4.824   6.843 -0.6049 -0.5761 -0.2063
18172TIP3    H175931   1.141   4.729   6.849 -1.6834 -0.6618  0.7337
18172TIP3    H275932   1.112   4.841   6.751  0.4212 -1.1849 -0.5239
18173TIP3   OH275933   0.809   1.974   0.880  0.2084 -0.2649  0.1711
18173TIP3    H175934   0.807   1.900   0.820  0.6729  1.1490 -1.7025
18173TIP3    H275935   0.727   2.020   0.863  1.7573  1.9870 -1.9902
18174TIP3   OH275936   1.135   1.434  15.631  0.2374 -0.4254  0.7457
18174TIP3    H175937   1.143   1.498  15.560  0.7841 -0.2016  1.0057
18174TIP3    H275938   1.197   1.463  15.697  1.5803 -2.0190  0.2598
18175TIP3   OH275939   1.562   6.334  11.907  0.0278  0.0513 -0.2929
18175TIP3    H175940   1.606   6.379  11.836  1.1040  3.2103  2.1349
18175TIP3    H275941   1.614   6.254  11.921  1.3608  0.6998 -1.3352
18176TIP3   OH275942   1.898   5.971  13.006 -0.5258 -0.3634 -1.0326
18176TIP3    H175943   1.813   6.016  13.013 -1.7812 -2.7116 -0.2995
18176TIP3    H275944   1.914   5.964  12.912 -0.6557  0.8877 -1.1695
18177TIP3   OH275945   5.108   1.409   1.920  0.4092  0.6641 -0.5221
18177TIP3    H175946   5.055   1.329   1.921 -1.1586  1.6399  1.4044
18177TIP3    H275947   5.154   1.406   1.836 -0.4917 -1.6631 -1.0134
18178TIP3   OH275948   3.730   4.344   0.639 -0.0815 -0.4179 -0.2379
18178TIP3    H175949   3.731   4.388   0.554  1.4063 -0.6299 -0.3526
18178TIP3    H275950   3.691   4.408   0.698 -0.5290 -0.0197 -0.9485
18179TIP3   OH275951   5.293   5.330  15.353  0.1735 -0.5589 -0.0823
18179TIP3    H175952   5.230   5.318  15.425 -1.0902  0.5449 -0.9487
18179TIP3    H275953   5.370   5.281  15.380 -0.0743  0.2243  2.2640
18180TIP3   OH275954   1.308   4.371   2.750  0.5381 -0.6534  0.0088
18180TIP3    H175955   1.265   4.457   2.751  0.2431 -0.7943 -0.1671
18180TIP3    H275956   1.359   4.368   2.831  1.0963 -0.0400 -0.3083
18181TIP3   OH275957   4.655   2.745   6.269 -0.1758  0.1943 -0.4163
18181TIP3    H175958   4.701   2.826   6.249  0.1558 -0.1360 -1.0184
18181TIP3    H275959   4.633   2.708   6.184 -0.5891 -0.1960 -0.1435
18182TIP3   OH275960   3.015   2.465  10.957 -0.0004 -0.6563  0.2836
18182TIP3    H175961   2.935   2.427  10.921 -0.4552 -0.2108  0.8016
18182TIP3    H275962   3.085   2.428  10.904 -0.6125 -0.4367 -0.7021
18183TIP3   OH275963   4.629   3.244   0.662 -0.2589  0.7413  0.3520
18183TIP3    H175964   4.540   3.263   0.691 -0.4801 -0.2578  0.3786
18183TIP3    H275965   4.683   3.314   0.699 -1.1586  1.8956 -0.4443
18184TIP3   OH275966   3.103   4.650  11.474  0.2559 -0.0477  0.3522
18184TIP3    H175967   3.141   4.594  11.541 -0.3933  0.9875  1.6229
18184TIP3    H275968   3.113   4.739  11.508 -2.0999  0.3694  0.1580
18185TIP3   OH275969   1.816   4.984   1.243 -0.3164 -0.2481 -0.1962
18185TIP3    H175970   1.886   4.983   1.178 -0.6492 -1.4922 -0.5577
18185TIP3    H275971   1.735   4.991   1.191 -0.5283 -0.1148  0.1475
18186TIP3   OH275972   2.084   2.323  16.198 -0.4094 -0.3792  0.0097
18186TIP3    H175973   2.054   2.310  16.288 -1.1668  0.2822 -0.1346
18186TIP3    H275974   2.005   2.349  16.150  0.0263 -0.5150 -0.8045
18187TIP3   OH275975   3.726   2.993   4.256  0.0036 -0.0474 -0.6586
18187TIP3    H175976   3.818   2.968   4.244  0.1457  0.2328 -0.1717
18187TIP3    H275977   3.697   3.020   4.169  0.9287  1.6374 -0.4867
18188TIP3   OH275978   4.029   3.899   0.583 -0.0432 -0.3128  0.4653
18188TIP3    H175979   4.047   3.986   0.618 -0.9976  0.0499  0.0869
18188TIP3    H275980   4.061   3.902   0.493 -0.1211 -0.3361  0.4365
18189TIP3   OH275981   1.787   0.233  14.518 -0.4206 -0.3541  0.2872
18189TIP3    H175982   1.722   0.292  14.480  0.5237 -1.1378 -2.7885
18189TIP3    H275983   1.762   0.146  14.486  1.2864 -0.8753  0.2980
18190TIP3   OH275984   3.960   6.750   2.637 -0.0555 -0.2488 -0.6587
18190TIP3    H175985   3.952   6.657   2.656 -0.2439 -1.0999 -4.1833
18190TIP3    H275986   4.041   6.777   2.682 -0.5561 -1.7636  1.2990
18191TIP3   OH275987   0.197   2.625  16.133 -0.3277 -0.1036 -0.2364
18191TIP3    H175988   0.219   2.719  16.128 -0.3886 -0.1536 -3.2625
18191TIP3    H275989   0.256   2.591  16.201  0.5964  1.8988  0.0611
18192TIP3   OH275990   0.838   3.284   5.764  0.6297 -0.3540  0.2643
18192TIP3    H175991   0.796   3.219   5.820 -0.0675 -1.6215 -1.6057
18192TIP3    H275992   0.842   3.364   5.817 -1.3201 -1.0724  1.5806
18193TIP3   OH275993   4.286   4.741  11.601  0.2741 -0.4902 -0.0542
18193TIP3    H175994   4.230   4.711  11.674  4.1624 -2.8361  2.3514
18193TIP3    H275995   4.320   4.825  11.630 -0.7768  0.2324 -0.8444
18194TIP3   OH275996   0.933   1.895   2.931 -0.3827 -0.1296 -0.1783
18194TIP3    H175997   0.912   1.918   2.841  1.9291 -0.2154 -0.7861
18194TIP3    H275998   0.964   1.977   2.970 -1.2818 -0.1131  0.5495
18195TIP3   OH275999   0.702   1.452   2.451 -0.4183  0.2631  0.2194
18195TIP3    H176000   0.684   1.369   2.495  0.7552  0.0374  0.3163
18195TIP3    H276001   0.794   1.470   2.471  0.0701  0.3297 -1.8365
18196TIP3   OH276002   1.217   1.981  11.520  0.3984  0.8109 -0.1821
18196TIP3    H176003   1.150   1.926  11.560  0.3222 -1.0267 -2.5813
18196TIP3    H276004   1.248   2.037  11.591 -2.5226  0.6290  1.4089
18197TIP3   OH276005   0.859   3.154   2.345 -0.2376 -0.7185  0.0969
18197TIP3    H176006   0.912   3.190   2.416 -0.3226 -0.0629 -0.1736
18197TIP3    H276007   0.912   3.168   2.266  0.4425 -2.5922  0.1550
18198TIP3   OH276008   3.690   5.473  14.833 -0.0907 -0.5976  0.1661
18198TIP3    H176009   3.750   5.545  14.850  1.5495 -1.9296  0.3344
18198TIP3    H276010   3.733   5.421  14.765 -1.5123 -1.1157 -0.3808
18199TIP3   OH276011   5.792   5.702  17.113  0.0173 -0.0639 -0.4904
18199TIP3    H176012   5.795   5.645  17.036 -0.9782 -1.0504  0.1540
18199TIP3    H276013   5.701   5.695  17.143  0.4199  0.1847  0.8464
18200TIP3   OH276014   4.618   5.571  16.711  0.2899 -0.3855  0.1145
18200TIP3    H176015   4.595   5.522  16.790 -0.0848 -0.2946  0.0618
18200TIP3    H276016   4.689   5.629  16.739  0.2424 -0.4408  0.3533
18201TIP3   OH276017   2.794   5.142  16.334 -0.4727 -0.5153 -0.2709
18201TIP3    H176018   2.747   5.219  16.304 -1.9032 -1.5920 -0.8877
18201TIP3    H276019   2.868   5.134  16.274 -0.9999 -0.3028 -0.9646
18202TIP3   OH276020   2.567   4.688   0.059 -0.5008 -0.4837 -0.0736
18202TIP3    H176021   2.628   4.654   0.125  0.2310  0.9947  0.0556
18202TIP3    H276022   2.608   4.665  -0.024  0.5581  0.9507  0.0081
18203TIP3   OH276023   5.534   0.696  14.132 -0.5114  0.3671 -0.1327
18203TIP3    H176024   5.481   0.628  14.091  0.6907 -1.7099  1.5668
18203TIP3    H276025   5.606   0.649  14.173  1.4977  2.8763 -0.5322
18204TIP3   OH276026   0.297   3.774  11.241  0.1538 -0.2990 -0.7665
18204TIP3    H176027   0.243   3.776  11.163  0.7148 -0.4063 -1.1662
18204TIP3    H276028   0.383   3.745  11.210  1.0164  1.7911 -0.5110
18205TIP3   OH276029   1.948   2.522  12.813 -0.2076  0.0091  0.0876
18205TIP3    H176030   2.029   2.474  12.796  1.0515  1.7500  0.8041
18205TIP3    H276031   1.975   2.614  12.813 -2.0197  0.5869  1.2535
18206TIP3   OH276032   2.797   6.242   1.259  0.3048  0.1931  0.2186
18206TIP3    H176033   2.722   6.299   1.276 -0.4717 -0.9696  0.8122
18206TIP3    H276034   2.819   6.205   1.345 -0.0783 -1.4326 -0.3509
18207TIP3   OH276035   3.478   5.436  17.141 -0.7708 -0.4891 -0.0799
18207TIP3    H176036   3.411   5.381  17.182 -0.1703 -0.0599  1.5838
18207TIP3    H276037   3.560   5.389  17.156 -0.5762 -0.4991 -1.1515
18208TIP3   OH276038   4.130   0.342  11.383 -0.3179 -0.0939  0.7355
18208TIP3    H176039   4.197   0.393  11.429 -1.7982  1.7876  0.9593
18208TIP3    H276040   4.118   0.387  11.300 -1.1303 -0.5375  0.5984
18209TIP3   OH276041   4.505   0.560  13.709  0.4402  0.4922 -0.2873
18209TIP3    H176042   4.453   0.536  13.785 -0.9243  1.6406 -0.7978
18209TIP3    H276043   4.471   0.646  13.683  0.2675 -0.2009 -2.6505
18210TIP3   OH276044   5.441   4.142  13.220 -0.4127  0.0652 -0.3582
18210TIP3    H176045   5.375   4.191  13.171 -2.1069  1.2230  2.7754
18210TIP3    H276046   5.452   4.192  13.301  3.1954 -0.9891 -0.0283
18211TIP3   OH276047   5.752   5.956   5.039  0.1801  0.2616  0.2730
18211TIP3    H176048   5.782   5.876   4.997 -1.8214  0.1512 -1.0939
18211TIP3    H276049   5.670   5.931   5.082 -0.3747  1.5170 -0.0078
18212TIP3   OH276050   1.716   2.905   4.876  0.9968  0.6437 -0.0656
18212TIP3    H176051   1.683   2.969   4.939 -0.6893  0.8104 -1.0405
18212TIP3    H276052   1.808   2.892   4.900  0.8346  1.9023  1.3953
18213TIP3   OH276053   4.191   0.593  16.195  0.2187 -0.3327 -0.0167
18213TIP3    H176054   4.257   0.552  16.139  1.4656  1.1212  0.3511
18213TIP3    H276055   4.205   0.687  16.184 -0.4359 -0.0190  1.6566
18214TIP3   OH276056   4.789   1.149   0.582 -0.0726  0.4653 -0.2469
18214TIP3    H176057   4.879   1.183   0.578 -0.4103  1.6870  1.4255
18214TIP3    H276058   4.741   1.215   0.632 -1.2377 -1.5549  1.4218
18215TIP3   OH276059   0.683   4.913  13.713 -0.5750  0.0567  0.0754
18215TIP3    H176060   0.736   4.970  13.768  0.1689 -1.0108  0.5000
18215TIP3    H276061   0.625   4.868  13.774 -0.1524 -0.6969 -0.0670
18216TIP3   OH276062   3.355   1.738  11.665  0.2306  0.0799 -0.1597
18216TIP3    H176063   3.403   1.724  11.583  1.2334 -0.9612  0.5832
18216TIP3    H276064   3.330   1.830  11.662  1.2053  0.3354 -1.1458
18217TIP3   OH276065   1.347   1.228  12.002  0.0804 -0.0587  0.7321
18217TIP3    H176066   1.419   1.213  12.062  0.0597  0.7594  0.9639
18217TIP3    H276067   1.294   1.295  12.044  0.9417  1.7517 -0.9376
18218TIP3   OH276068   3.131   2.779  12.762  0.0242 -0.0358  0.4508
18218TIP3    H176069   3.076   2.714  12.717  0.5090  0.4755 -0.9503
18218TIP3    H276070   3.072   2.822  12.823 -0.7210 -0.6367  0.1780
18219TIP3   OH276071   6.484   6.391  11.345 -0.2995 -0.1594 -0.2508
18219TIP3    H176072   6.532   6.332  11.287  1.9025  0.7289  0.5793
18219TIP3    H276073   6.479   6.473  11.296 -0.2405 -0.0008  0.0128
18220TIP3   OH276074   0.406   1.628  12.068 -0.6593  0.5582 -0.5258
18220TIP3    H176075   0.378   1.538  12.052 -0.2659  0.4436 -0.5835
18220TIP3    H276076   0.486   1.619  12.119  0.9477  0.7716 -2.8315
18221TIP3   OH276077   6.134   0.950  15.447 -0.5623 -0.1298  0.8025
18221TIP3    H176078   6.183   0.983  15.372 -1.8691 -0.6471 -0.3124
18221TIP3    H276079   6.201   0.928  15.512  0.7777 -1.6324 -0.9768
18222TIP3   OH276080   0.509   6.126   1.417  0.0622 -0.2861  0.5575
18222TIP3    H176081   0.540   6.214   1.438  0.3900 -0.1299 -0.5118
18222TIP3    H276082   0.414   6.129   1.432 -0.1254  0.6347 -0.6431
18223TIP3   OH276083   2.488   1.150  10.632  0.7859  0.1195  0.2671
18223TIP3    H176084   2.443   1.201  10.565  1.7195 -0.5304 -0.8976
18223TIP3    H276085   2.450   1.180  10.715 -0.7513  0.5863 -0.5698
18224TIP3   OH276086   3.483   4.155   3.092 -0.7703 -0.0161  0.6078
18224TIP3    H176087   3.407   4.103   3.120 -0.4676 -1.7326 -1.4755
18224TIP3    H276088   3.453   4.201   3.014  0.4098 -1.1273 -0.5613
18225TIP3   OH276089   5.287   4.996  14.465 -0.1054 -0.0768 -0.2383
18225TIP3    H176090   5.208   4.971  14.418  0.1227 -0.2381 -0.5419
18225TIP3    H276091   5.358   4.981  14.403  0.0759  1.0188 -0.3105
18226TIP3   OH276092   2.047   6.535   6.633 -0.2542  0.4895  0.5795
18226TIP3    H176093   1.982   6.538   6.703 -0.1515 -0.6880  0.7452
18226TIP3    H276094   2.122   6.583   6.668  0.0448 -0.6569  1.5602
18227TIP3   OH276095   2.285   3.451   6.383 -0.1485 -0.2275 -0.0188
18227TIP3    H176096   2.312   3.543   6.386 -1.5619  0.2543 -0.9587
18227TIP3    H276097   2.192   3.453   6.405 -0.3111 -1.3905 -0.5473
18228TIP3   OH276098   0.941   1.191  12.075  0.1930  0.0687 -0.4504
18228TIP3    H176099   0.909   1.112  12.031 -1.0987  0.3276 -0.0260
18228TIP3    H276100   1.016   1.161  12.127 -0.4938 -0.9547 -0.0206
18229TIP3   OH276101   3.420   3.510   1.917 -0.3465  0.0475 -0.1540
18229TIP3    H176102   3.510   3.507   1.949 -0.4368  1.0338  0.2273
18229TIP3    H276103   3.395   3.418   1.906  0.8334 -0.2371 -0.6478
18230TIP3   OH276104   2.008   5.193  14.167  0.2123  0.1753 -0.0352
18230TIP3    H176105   1.929   5.241  14.142  0.5772  0.4613 -0.6716
18230TIP3    H276106   2.045   5.243  14.240  1.4586  1.8400 -1.7048
18231TIP3   OH276107   2.188   1.694   3.304 -0.2567 -0.5119 -0.1038
18231TIP3    H176108   2.167   1.672   3.395  1.2735  0.1323  0.4514
18231TIP3    H276109   2.233   1.617   3.270 -3.7203 -2.1211 -1.4748
18232TIP3   OH276110   3.984   3.179   1.015 -0.6446  0.5959  0.1961
18232TIP3    H176111   4.067   3.223   1.001  0.0596 -0.6419  0.3447
18232TIP3    H276112   3.919   3.234   0.971  0.6060  0.1944 -2.3106
18233TIP3   OH276113   5.082   0.263   3.860 -0.1361 -0.5879  0.5292
18233TIP3    H176114   5.031   0.302   3.790 -0.8589 -0.4143  1.1363
18233TIP3    H276115   5.083   0.330   3.929 -0.9743 -1.4276  1.3867
18234TIP3   OH276116   4.471   4.712  15.131 -0.4193  0.3607 -0.2086
18234TIP3    H176117   4.453   4.764  15.052  1.1081 -1.1165 -1.5896
18234TIP3    H276118   4.501   4.777  15.195 -1.4930  1.5687 -0.8762
18235TIP3   OH276119   4.625   4.128  11.975 -1.2813  0.1769  0.4528
18235TIP3    H176120   4.575   4.208  11.991  1.9602  2.5094  0.0965
18235TIP3    H276121   4.662   4.106  12.061 -1.6979 -0.6180  0.4310
18236TIP3   OH276122   3.064   0.971  12.143  0.3392  0.2175  0.7443
18236TIP3    H176123   2.993   1.004  12.198 -0.8107 -0.2020 -0.4362
18236TIP3    H276124   3.120   0.921  12.203 -1.6672 -1.4452  1.3335
18237TIP3   OH276125   2.110   2.381  14.430  0.6054 -0.0532 -0.3928
18237TIP3    H176126   2.100   2.350  14.520  2.2031  0.8248  0.1282
18237TIP3    H276127   2.201   2.362  14.408  0.8003  1.5689 -1.0937
18238TIP3   OH276128   3.086   2.121  16.570  0.1952  0.7980 -1.1149
18238TIP3    H176129   3.149   2.067  16.523 -0.7189  0.6648 -2.2180
18238TIP3    H276130   3.010   2.125  16.513  0.4123  3.6958 -1.3644
18239TIP3   OH276131   6.591   3.232   0.736  0.3310 -0.4246  0.1722
18239TIP3    H176132   6.669   3.183   0.765  0.7430  0.1756  0.0904
18239TIP3    H276133   6.603   3.319   0.773 -0.2203 -0.2792  0.0077
18240TIP3   OH276134   5.087   5.010   4.952  0.5265  0.0623 -0.2004
18240TIP3    H176135   5.145   4.960   5.009  0.4062 -1.3218 -1.2658
18240TIP3    H276136   5.145   5.072   4.907  0.6442  1.0764  1.2616
18241TIP3   OH276137   1.682   3.529   3.599 -0.3135  0.3789  0.4408
18241TIP3    H176138   1.766   3.566   3.627 -0.4250 -0.7414  2.5140
18241TIP3    H276139   1.620   3.560   3.665 -0.4227 -3.2539  2.2975
18242TIP3   OH276140   2.682   1.516  10.635  0.3228  0.1829 -0.3027
18242TIP3    H176141   2.739   1.585  10.599  2.4522 -0.9352  0.7064
18242TIP3    H276142   2.743   1.457  10.680 -1.6277 -1.4278  0.3390
18243TIP3   OH276143   0.796   3.528   0.016 -0.3806 -0.1353  0.4722
18243TIP3    H176144   0.789   3.436   0.040 -0.0862 -0.3145 -0.1222
18243TIP3    H276145   0.717   3.545  -0.035 -2.0455  0.7632  3.1446
18244TIP3   OH276146   0.960   5.746   3.704 -0.0656 -0.2321  0.0383
18244TIP3    H176147   0.888   5.738   3.767 -0.0887 -2.8894 -0.2169
18244TIP3    H276148   1.036   5.768   3.758 -0.5521  0.0465  0.6377
18245TIP3   OH276149   0.237   6.183  12.696 -0.4047 -0.2474 -0.1817
18245TIP3    H176150   0.186   6.142  12.626 -1.6125  0.4135  0.2755
18245TIP3    H276151   0.328   6.171  12.670 -0.8135 -0.6313 -1.5061
18246TIP3   OH276152   4.558   0.866   0.184  0.2862  0.1583 -0.2669
18246TIP3    H176153   4.487   0.929   0.191  0.5514  0.4903 -0.5839
18246TIP3    H276154   4.629   0.903   0.237 -0.4830 -1.1904  1.8850
18247TIP3   OH276155   0.891   3.350  13.451  0.2652 -0.3633 -0.2462
18247TIP3    H176156   0.838   3.371  13.528  0.1160 -0.1653 -0.4031
18247TIP3    H276157   0.866   3.415  13.386  0.6239 -0.3338 -0.3579
18248TIP3   OH276158   2.261   0.151  16.584  0.4925 -0.1818 -0.0373
18248TIP3    H176159   2.278   0.224  16.525  0.2340  1.2328  1.5445
18248TIP3    H276160   2.315   0.169  16.661 -2.7862  0.8339  2.2658
18249TIP3   OH276161   1.193   2.742   1.777  0.3867 -0.3123  0.3034
18249TIP3    H176162   1.205   2.834   1.800 -0.6982 -0.5748  2.1932
18249TIP3    H276163   1.099   2.734   1.757  0.4467 -1.0188  0.2603
18250TIP3   OH276164   5.051   1.159   2.566  0.4151 -0.3687 -0.2470
18250TIP3    H176165   5.082   1.070   2.581  0.9936 -0.1667 -0.2343
18250TIP3    H276166   5.121   1.215   2.598 -0.7605  0.1402  1.5577
18251TIP3   OH276167   1.240   0.336  14.985 -0.5492 -0.4082  0.3378
18251TIP3    H176168   1.276   0.268  15.042  1.2087  0.2825  0.1412
18251TIP3    H276169   1.238   0.295  14.898  0.3967 -0.2878  0.2415
18252TIP3   OH276170   2.045   5.624  14.972 -0.0239 -0.5919 -0.1495
18252TIP3    H176171   1.984   5.564  14.929 -1.4422 -0.5031  1.5956
18252TIP3    H276172   2.122   5.624  14.916 -2.0570  0.3404 -3.2522
18253TIP3   OH276173   4.519   4.894  15.348  0.4805 -0.3989 -0.1741
18253TIP3    H176174   4.481   4.927  15.430 -2.6762 -0.0009 -1.6806
18253TIP3    H276175   4.612   4.885  15.368  0.0094  0.5955  3.1551
18254TIP3   OH276176   3.537   1.974  15.957  0.7200 -0.0450  0.7789
18254TIP3    H176177   3.589   1.962  15.878  1.1847 -0.3948  1.1314
18254TIP3    H276178   3.447   1.984  15.925  0.8156 -0.7772  0.2381
18255TIP3   OH276179   3.273   1.670   0.386  0.1351  0.3722  0.8758
18255TIP3    H176180   3.282   1.765   0.400 -0.7337  0.2860  2.1798
18255TIP3    H276181   3.201   1.644   0.443  0.3809 -1.0911  0.5557
18256TIP3   OH276182   3.152   2.776  17.045  0.3950  0.3875  0.1009
18256TIP3    H176183   3.208   2.835  16.995  2.0099 -1.3992 -0.3563
18256TIP3    H276184   3.113   2.719  16.979 -0.9461  0.7740  0.5393
18257TIP3   OH276185   6.326   1.332  11.111 -0.2972 -0.5148 -0.4059
18257TIP3    H176186   6.292   1.348  11.199 -1.5818 -3.7413 -0.1455
18257TIP3    H276187   6.281   1.396  11.056  0.9772  1.9754  1.2625
18258TIP3   OH276188   2.439   4.959  13.567  0.0324 -0.3632  0.3868
18258TIP3    H176189   2.458   4.871  13.599 -3.8931 -1.6595 -0.3624
18258TIP3    H276190   2.377   4.995  13.631  0.1807  1.1624 -0.2766
18259TIP3   OH276191   2.979   4.864  11.052 -0.0834  0.1010 -0.2333
18259TIP3    H176192   3.037   4.789  11.039  0.0955  0.5375 -2.2761
18259TIP3    H276193   3.034   4.940  11.038 -0.6791  0.5730 -0.0745
18260TIP3   OH276194   1.198   6.499   1.519 -0.4421 -0.2843 -0.4026
18260TIP3    H176195   1.199   6.469   1.610  0.9796  0.0845 -0.2761
18260TIP3    H276196   1.218   6.592   1.524  0.1065 -0.3562 -1.1157
18261TIP3   OH276197   5.162   4.155  11.675  0.3576  0.0225 -0.1302
18261TIP3    H176198   5.101   4.116  11.612  1.2540  1.0769 -1.7176
18261TIP3    H276199   5.124   4.134  11.761 -1.6484 -0.2838 -1.0215
18262TIP3   OH276200   5.611   4.400   6.587  0.0224 -0.2156  0.3871
18262TIP3    H176201   5.691   4.353   6.564  1.0872  1.0698  1.3320
18262TIP3    H276202   5.574   4.427   6.503  0.3591 -1.1238 -0.0733
18263TIP3   OH276203   0.793   1.557   0.115 -0.2990  0.2172  0.0280
18263TIP3    H176204   0.766   1.606   0.037 -0.6606  0.0419  0.0433
18263TIP3    H276205   0.819   1.625   0.178  0.7019  0.3416 -0.4915
18264TIP3   OH276206   2.695   0.069   3.111  0.2899 -0.2323  0.1415
18264TIP3    H176207   2.694   0.098   3.202 -1.1213  1.1372 -0.2701
18264TIP3    H276208   2.616   0.016   3.101  0.1824  0.0192 -0.3981
18265TIP3   OH276209   5.890   4.564   1.789 -0.6286  0.0107  0.1490
18265TIP3    H176210   5.872   4.642   1.842  0.3840 -0.2129  0.8568
18265TIP3    H276211   5.955   4.593   1.725  1.5835 -0.7357  1.8963
18266TIP3   OH276212   6.365   4.461  10.902  0.3693  0.0369  0.4531
18266TIP3    H176213   6.348   4.408  10.979  0.9763 -0.2236  0.4133
18266TIP3    H276214   6.393   4.398  10.835 -0.8253  0.1715 -0.1980
18267TIP3   OH276215   1.531   3.827  16.210 -0.3756 -0.0919 -0.5296
18267TIP3    H176216   1.550   3.830  16.303 -2.7608 -0.5931  0.0314
18267TIP3    H276217   1.520   3.734  16.190 -0.8270  0.0758 -1.0902
18268TIP3   OH276218   1.753   2.040   3.302 -0.2615  0.0605 -0.0081
18268TIP3    H176219   1.759   2.061   3.396 -0.1004  0.5807 -0.1316
18268TIP3    H276220   1.660   2.028   3.286 -0.1678 -1.7935  0.5863
18269TIP3   OH276221   1.244   0.094  11.488  0.2363 -0.0191 -0.3465
18269TIP3    H176222   1.181   0.161  11.514 -1.4215 -0.8303 -2.0026
18269TIP3    H276223   1.325   0.117  11.534 -1.7607 -0.1770  3.6275
18270TIP3   OH276224   4.610   3.192   4.119 -0.0278 -0.1462  0.1361
18270TIP3    H176225   4.642   3.119   4.066 -0.1478 -0.0936 -0.0084
18270TIP3    H276226   4.604   3.155   4.208 -0.1161 -0.3222  0.0577
18271TIP3   OH276227   2.629   0.711  11.631 -0.2496 -0.0411  0.3810
18271TIP3    H176228   2.581   0.681  11.709  2.6727  2.0174  3.2502
18271TIP3    H276229   2.623   0.807  11.635  2.4244  0.2227 -0.1534
18272TIP3   OH276230   2.587   1.923   5.771  0.0183 -0.0300 -0.2700
18272TIP3    H176231   2.497   1.892   5.779 -0.1440 -0.0951 -1.9514
18272TIP3    H276232   2.641   1.849   5.800 -0.4438  0.0292  0.7951
18273TIP3   OH276233   1.729   1.990   4.052  0.0107 -0.0577 -0.4769
18273TIP3    H176234   1.653   1.978   4.109 -0.3745 -1.1394 -1.1768
18273TIP3    H276235   1.771   2.070   4.084 -0.3255 -0.4986  1.1514
18274TIP3   OH276236   6.502   1.631   3.364 -0.2184 -0.0435 -0.2778
18274TIP3    H176237   6.574   1.693   3.381  0.5657 -1.1112  0.4023
18274TIP3    H276238   6.541   1.545   3.378 -0.4106 -0.9596 -4.2589
18275TIP3   OH276239   1.623   1.917  13.068 -0.4230  0.5207  0.2900
18275TIP3    H176240   1.706   1.948  13.031  1.4053 -2.6151  1.3058
18275TIP3    H276241   1.562   1.919  12.995  1.5649 -0.3703 -1.5300
18276TIP3   OH276242   1.325   1.674  16.859 -0.1524  0.9004  0.2771
18276TIP3    H176243   1.396   1.715  16.808  0.6858  0.5122  1.1005
18276TIP3    H276244   1.342   1.580  16.852  0.7593  0.8501  2.2741
18277TIP3   OH276245   0.730   6.572  11.066  0.3558  0.1396  0.4063
18277TIP3    H176246   0.706   6.632  10.996 -0.8675 -0.0274  0.6635
18277TIP3    H276247   0.725   6.485  11.026 -0.9836 -0.0061  0.8419
18278TIP3   OH276248   5.844   5.934  16.647  0.0474 -0.0498 -0.2703
18278TIP3    H176249   5.828   6.022  16.679  0.8826 -0.3738  1.1291
18278TIP3    H276250   5.907   5.897  16.708  0.7971 -1.1441 -1.6318
18279TIP3   OH276251   5.067   1.885  17.183 -0.1411  0.3296 -0.0152
18279TIP3    H176252   5.130   1.958  17.189 -1.0112  1.0668  0.3130
18279TIP3    H276253   4.981   1.927  17.182 -0.6858 -0.7234  0.6774
18280TIP3   OH276254   0.856   5.873   1.034  0.0017 -0.1520 -1.0224
18280TIP3    H176255   0.823   5.839   1.117  0.5565  0.4459 -0.5515
18280TIP3    H276256   0.794   5.942   1.010  0.3217  0.2619 -0.6662
18281TIP3   OH276257   3.818   3.461  11.405 -0.0681  0.0906 -0.1822
18281TIP3    H176258   3.876   3.409  11.349  0.4344  0.2596  0.1671
18281TIP3    H276259   3.868   3.541  11.423  0.3325 -0.4962  1.5421
18282TIP3   OH276260   0.360   4.390   0.636 -0.2771  0.0543 -0.7924
18282TIP3    H176261   0.421   4.462   0.656 -0.4069  0.0007 -0.2039
18282TIP3    H276262   0.394   4.315   0.684 -0.0108 -0.3464 -1.5946
18283TIP3   OH276263   3.076   1.638   5.879 -0.1820 -0.3050 -0.2884
18283TIP3    H176264   2.985   1.660   5.862  0.0858  0.6201 -0.6117
18283TIP3    H276265   3.106   1.595   5.799 -0.5404 -1.3434  0.1168
18284TIP3   OH276266   0.311   0.086   2.601  0.5689 -0.7908 -0.3281
18284TIP3    H176267   0.345   0.012   2.652  0.8617 -0.0556  0.5533
18284TIP3    H276268   0.334   0.063   2.510  2.8838 -0.6562  0.1482
18285TIP3   OH276269   6.500   5.015  16.571 -0.1365 -0.4288  0.3081
18285TIP3    H176270   6.541   5.085  16.622  2.8913 -1.0612 -1.0566
18285TIP3    H276271   6.441   5.060  16.511 -1.0700  0.5929  1.9112
18286TIP3   OH276272   4.363   2.082   4.287  0.0003 -0.2833 -0.3070
18286TIP3    H176273   4.425   2.147   4.255  0.6847 -0.3250  0.8831
18286TIP3    H276274   4.284   2.096   4.235  0.7484  0.2697 -1.3228
18287TIP3   OH276275   1.415   2.479  14.943 -0.0023 -0.5618 -0.1542
18287TIP3    H176276   1.405   2.480  15.038  1.6436 -1.2640  0.0728
18287TIP3    H276277   1.509   2.495  14.929  0.3464 -3.1215 -1.4927
18288TIP3   OH276278   4.809   6.063  13.106  0.5418 -0.1237 -0.1358
18288TIP3    H176279   4.783   5.982  13.061 -0.5267  0.0155  0.1989
18288TIP3    H276280   4.782   6.049  13.197 -0.8274  1.0927 -0.3188
18289TIP3   OH276281   0.376   1.762   3.965 -0.3497  0.1762 -0.0325
18289TIP3    H176282   0.306   1.702   3.941 -0.6024  0.7607 -0.7861
18289TIP3    H276283   0.383   1.754   4.061  1.5611 -3.1647 -0.3184
18290TIP3   OH276284   4.921   5.130  13.783 -0.8502  0.6573  0.0890
18290TIP3    H176285   4.837   5.089  13.761 -0.9262  0.7854  0.1426
18290TIP3    H276286   4.898   5.217  13.815 -0.6159  1.2043 -1.1752
18291TIP3   OH276287   3.480   0.283  17.147 -0.0892 -0.4184  0.2498
18291TIP3    H176288   3.463   0.319  17.234 -0.7203 -0.5825  0.1968
18291TIP3    H276289   3.533   0.206  17.163 -0.2170 -0.4568  0.4923
18292TIP3   OH276290   1.665   1.643  11.044 -0.1957 -0.2836 -0.3927
18292TIP3    H176291   1.670   1.578  10.975 -1.0737  0.3953 -1.1202
18292TIP3    H276292   1.667   1.727  10.998 -0.3765  0.1869  0.4314
18293TIP3   OH276293   0.567   1.447   2.164  0.3858 -0.9027  0.4389
18293TIP3    H176294   0.647   1.425   2.116  0.6790  1.7649 -0.4724
18293TIP3    H276295   0.595   1.459   2.254  1.5505  1.9105 -0.1766
18294TIP3   OH276296   3.603   1.322   6.765 -0.4070  0.2203  0.5624
18294TIP3    H176297   3.644   1.237   6.780 -2.7322 -0.8248  1.5899
18294TIP3    H276298   3.512   1.309   6.794 -1.5981  2.2161 -1.9140
18295TIP3   OH276299   1.676   0.590   5.905  0.0099 -0.0346  0.5591
18295TIP3    H176300   1.590   0.631   5.899  0.6083  1.2159  0.1547
18295TIP3    H276301   1.711   0.592   5.816  1.6556  2.2339  1.1666
18296TIP3   OH276302   6.276   1.496   4.273  0.2879  0.2370  0.0160
18296TIP3    H176303   6.195   1.446   4.281 -0.5563  1.5589  0.0224
18296TIP3    H276304   6.310   1.473   4.186  0.2425 -0.7933  0.2617
18297TIP3   OH276305   5.499   1.456  10.475  0.0650  0.5154 -0.1328
18297TIP3    H176306   5.488   1.370  10.435  1.3465  0.6898 -0.9461
18297TIP3    H276307   5.506   1.516  10.400 -1.9120  1.5215  0.4143
18298TIP3   OH276308   5.833   5.278   3.375  0.2643  0.0266  0.2532
18298TIP3    H176309   5.783   5.283   3.293 -0.0191  3.8321  0.4771
18298TIP3    H276310   5.924   5.271   3.346  0.3136  2.7861 -0.6126
18299TIP3   OH276311   4.764   1.973  11.919  0.1760 -0.3624  0.4951
18299TIP3    H176312   4.825   1.919  11.969 -0.3472 -0.6540  0.8200
18299TIP3    H276313   4.717   1.911  11.863 -0.0129 -0.1738  0.4443
18300TIP3   OH276314   6.088   2.699   1.864 -0.3847 -0.0051 -0.0018
18300TIP3    H176315   6.162   2.641   1.847 -0.9923 -0.7599 -0.1339
18300TIP3    H276316   6.088   2.710   1.959 -0.0126  0.1280 -0.0135
18301TIP3   OH276317   5.824   1.940   2.832 -0.3039 -0.4140 -0.0673
18301TIP3    H176318   5.757   1.877   2.859  1.3938 -1.5514  1.7934
18301TIP3    H276319   5.903   1.888   2.822  0.7906  1.1876 -0.1588
18302TIP3   OH276320   5.946   5.325  14.899 -0.6542 -0.1866 -0.1909
18302TIP3    H176321   5.854   5.311  14.877 -1.1018  0.4114  1.1832
18302TIP3    H276322   5.987   5.239  14.886 -1.0460 -0.1002 -2.3344
18303TIP3   OH276323   1.426   1.557   4.538 -0.2452 -0.3106  0.8581
18303TIP3    H176324   1.346   1.535   4.491  0.2447 -1.0777  0.3547
18303TIP3    H276325   1.428   1.653   4.539 -1.4754 -0.2841  1.4318
18304TIP3   OH276326   0.618   2.053  16.568 -0.2079  0.1573  0.7544
18304TIP3    H176327   0.571   2.035  16.649 -0.9243  1.0900  0.5500
18304TIP3    H276328   0.596   2.143  16.546 -0.0670 -0.0973 -0.5111
18305TIP3   OH276329   5.620   3.742  14.860  0.1403  0.6318  0.2594
18305TIP3    H176330   5.655   3.722  14.946  0.5753  0.5967  0.0745
18305TIP3    H276331   5.627   3.661  14.811 -1.2741  0.2856  0.5686
18306TIP3   OH276332   5.781   0.368   0.893  0.2069 -0.2016  0.2725
18306TIP3    H176333   5.842   0.407   0.830 -1.0685  0.7705 -0.4084
18306TIP3    H276334   5.828   0.292   0.929  2.2697  1.1759  0.6646
18307TIP3   OH276335   0.850   6.312   0.198 -0.6921 -0.3992  0.3942
18307TIP3    H176336   0.865   6.222   0.169 -0.5253 -0.1889 -0.1635
18307TIP3    H276337   0.935   6.341   0.231 -1.0387 -0.8776  1.7788
18308TIP3   OH276338   3.902   0.492  11.440  0.1769 -0.5648 -0.4995
18308TIP3    H176339   3.851   0.447  11.507  0.0300  1.1978  0.6393
18308TIP3    H276340   3.974   0.432  11.420  0.4037 -1.0158  1.4661
18309TIP3   OH276341   1.788   0.107   2.364 -0.5663 -0.0369  0.5483
18309TIP3    H176342   1.723   0.038   2.346 -0.4791 -0.7217  2.6276
18309TIP3    H276343   1.757   0.182   2.313 -1.3401 -1.2287 -0.8281
18310TIP3   OH276344   0.309   6.657   4.359  0.1763  0.4237 -0.7227
18310TIP3    H176345   0.311   6.731   4.298 -1.1063  0.6573 -0.4989
18310TIP3    H276346   0.351   6.586   4.311 -0.7583  0.6250 -1.8611
18311TIP3   OH276347   4.302   5.827   2.347 -0.6210  0.0069 -0.2369
18311TIP3    H176348   4.346   5.748   2.314  0.5302  0.1521  0.8954
18311TIP3    H276349   4.299   5.886   2.272 -0.9972 -0.8917 -0.9506
18312TIP3   OH276350   4.330   1.191   1.714  0.0912 -0.6197  0.1051
18312TIP3    H176351   4.241   1.206   1.685  0.0113 -2.9505 -1.0591
18312TIP3    H276352   4.379   1.168   1.635  1.6483  0.1806  0.7767
18313TIP3   OH276353   6.227   3.363  12.502 -0.4089 -0.2400  0.3876
18313TIP3    H176354   6.199   3.363  12.411  1.8249  0.5528 -0.3573
18313TIP3    H276355   6.259   3.452  12.517 -1.9442  0.0485  2.3753
18314TIP3   OH276356   1.930   4.642  13.407  0.3720 -0.1595  0.1400
18314TIP3    H176357   1.982   4.642  13.327 -1.4247 -0.2797 -1.0973
18314TIP3    H276358   1.897   4.552  13.414  1.2515 -0.4010  1.5585
18315TIP3   OH276359   3.687   3.783  11.368 -0.2727  0.3892 -0.0972
18315TIP3    H176360   3.780   3.787  11.344 -0.8604  1.1103 -2.5293
18315TIP3    H276361   3.678   3.700  11.415  0.8284 -2.1569 -3.8792
18316TIP3   OH276362   1.145   1.599   0.216  0.3032 -0.7062  0.0484
18316TIP3    H176363   1.194   1.676   0.187  0.4341  0.8960  3.9079
18316TIP3    H276364   1.064   1.634   0.253  0.3856 -2.3528  1.9719
18317TIP3   OH276365   1.015   2.235   1.134 -0.5560  0.8663 -0.3885
18317TIP3    H176366   1.039   2.190   1.053  0.0024 -0.1334  0.3169
18317TIP3    H276367   1.026   2.170   1.202  1.2413  2.3116  0.8083
18318TIP3   OH276368   1.315   2.135  15.253  0.4266 -0.4888  0.6013
18318TIP3    H176369   1.300   2.042  15.269 -0.6651 -0.6507 -1.1280
18318TIP3    H276370   1.399   2.138  15.207 -0.1307 -0.7564 -0.4523
18319TIP3   OH276371   1.949   2.971   3.795 -0.2903  0.2470  0.1286
18319TIP3    H176372   2.022   3.030   3.777  0.1393 -0.1733  0.4642
18319TIP3    H276373   1.890   3.023   3.851 -1.9008  1.7457 -2.7584
18320TIP3   OH276374   2.554   6.545  14.905  0.3769  0.4808  0.3505
18320TIP3    H176375   2.636   6.579  14.940  0.6712  0.4317 -0.2788
18320TIP3    H276376   2.556   6.451  14.924  0.4824  0.4741  0.3054
18321TIP3   OH276377   5.279   3.500  13.753  0.3501  0.5913  0.3235
18321TIP3    H176378   5.366   3.474  13.722 -0.2032 -0.5614 -0.3336
18321TIP3    H276379   5.249   3.426  13.806 -0.5242  0.6539 -0.0692
18322TIP3   OH276380   5.804   4.263  13.866  0.3000  0.3454 -0.0266
18322TIP3    H176381   5.809   4.216  13.782  0.6629  1.6365 -0.7572
18322TIP3    H276382   5.882   4.235  13.914  1.3057  1.2701 -1.0525
18323TIP3   OH276383   3.299   3.216   5.924 -0.0677  0.2911 -0.2018
18323TIP3    H176384   3.237   3.165   5.977  2.5083 -0.6598  2.1272
18323TIP3    H276385   3.329   3.285   5.983  0.6123  1.1374 -1.5140
18324TIP3   OH276386   4.355   3.307  11.747 -0.6240  0.7662 -0.6246
18324TIP3    H176387   4.339   3.304  11.653 -1.5071  0.7832 -0.4793
18324TIP3    H276388   4.280   3.263  11.786  0.9030 -1.4858 -0.0134
18325TIP3   OH276389   4.467   1.128   6.209  0.0078  0.4019  0.0338
18325TIP3    H176390   4.375   1.142   6.230 -0.3833  0.1095 -1.4148
18325TIP3    H276391   4.469   1.046   6.159  1.2911 -0.5685  1.5780
18326TIP3   OH276392   1.491   0.672  16.308 -0.3136 -0.1536 -0.8381
18326TIP3    H176393   1.562   0.622  16.349 -0.5646 -0.8213 -1.2032
18326TIP3    H276394   1.498   0.651  16.215 -1.8855 -1.3997 -0.7178
18327TIP3   OH276395   0.125   0.821   0.158  0.0541 -0.0988  0.3524
18327TIP3    H176396   0.154   0.824   0.067 -0.4575  2.3865  0.2170
18327TIP3    H276397   0.117   0.727   0.177 -0.4622 -0.6977 -2.3575
18328TIP3   OH276398   0.193   5.396   5.802 -0.0009 -0.1928  0.6813
18328TIP3    H176399   0.150   5.365   5.723  0.7181  0.7912 -0.1120
18328TIP3    H276400   0.125   5.443   5.850 -0.2122 -0.0132  0.2083
18329TIP3   OH276401   5.720   0.334   0.058  0.0778  0.3824 -0.3684
18329TIP3    H176402   5.680   0.418   0.034  0.7289  0.5648 -0.8452
18329TIP3    H276403   5.654   0.291   0.112 -0.0803  1.4062  0.2799
18330TIP3   OH276404   4.199   5.495  11.898 -0.1942 -0.0149 -0.4714
18330TIP3    H176405   4.168   5.497  11.989 -1.8123 -0.1694 -0.9858
18330TIP3    H276406   4.146   5.428  11.856 -1.7069  2.1467 -2.2696
18331TIP3   OH276407   2.297   6.031   1.189  0.3972 -0.0347  0.0701
18331TIP3    H176408   2.376   5.986   1.161 -0.2768 -1.2162  0.0247
18331TIP3    H276409   2.307   6.041   1.284  0.3907 -0.5908  0.1297
18332TIP3   OH276410   5.391   4.356   0.069 -0.3341  0.1453  0.0669
18332TIP3    H176411   5.353   4.283   0.117 -3.2472  1.2244 -0.4022
18332TIP3    H276412   5.436   4.408   0.136 -1.3258 -0.2091  1.0287
18333TIP3   OH276413   4.602   5.720   4.498 -0.3576  1.0319 -0.2167
18333TIP3    H176414   4.539   5.791   4.491 -1.9631 -0.2819  0.2618
18333TIP3    H276415   4.565   5.662   4.565  0.3578 -0.7967 -1.3444
18334TIP3   OH276416   1.610   3.417   4.067  0.1229  0.9801  0.2366
18334TIP3    H176417   1.678   3.376   4.120  0.7152 -0.1257 -1.3199
18334TIP3    H276418   1.636   3.509   4.063  1.9462  0.4732 -0.8561
18335TIP3   OH276419   2.584   6.537   2.511 -0.5254 -0.1901  0.1070
18335TIP3    H176420   2.639   6.499   2.579 -0.6834  1.3025  1.1216
18335TIP3    H276421   2.631   6.615   2.482 -1.4062  0.3061 -0.0451
18336TIP3   OH276422   0.299   3.219   5.469  0.3146  0.3992  0.3262
18336TIP3    H176423   0.362   3.200   5.399  1.0047  1.1309  0.7292
18336TIP3    H276424   0.333   3.298   5.511 -0.7554  0.6808  0.7073
18337TIP3   OH276425   2.990   4.859   0.367  0.1886  0.2409  0.0451
18337TIP3    H176426   3.040   4.929   0.324  1.4294 -0.1731  0.7668
18337TIP3    H276427   2.941   4.904   0.436  0.7421  0.4565  0.3085
18338TIP3   OH276428   3.268   3.280   1.884  0.1277 -0.4048 -0.0147
18338TIP3    H176429   3.247   3.198   1.839 -1.0994 -0.7684  1.1655
18338TIP3    H276430   3.213   3.346   1.841  1.0603 -0.1712 -0.9136
18339TIP3   OH276431   0.571   4.480  15.783 -0.2652  0.3611  0.8127
18339TIP3    H176432   0.585   4.491  15.688  1.9880  1.0248  1.1517
18339TIP3    H276433   0.500   4.417  15.790 -0.0786 -0.1698 -1.3439
18340TIP3   OH276434   3.701   6.092   3.244 -0.0493 -0.3222  0.0613
18340TIP3    H176435   3.784   6.058   3.212  0.1091  0.9531 -0.9637
18340TIP3    H276436   3.725   6.163   3.304 -0.3809  0.4774 -0.7276
18341TIP3   OH276437   5.688   4.908   5.241  0.5809  0.5457 -0.0922
18341TIP3    H176438   5.639   4.989   5.227 -1.9893 -0.9809 -0.4620
18341TIP3    H276439   5.716   4.912   5.332  0.7769  1.9583 -0.1883
18342TIP3   OH276440   5.986   5.321   1.463 -0.5515 -0.6708  0.6978
18342TIP3    H176441   5.917   5.255   1.451 -1.2712  0.5497 -3.6211
18342TIP3    H276442   5.939   5.404   1.470  0.4362 -0.1279  1.0242
18343TIP3   OH276443   6.389   2.973   4.230 -0.0353 -0.2169  0.8253
18343TIP3    H176444   6.322   2.906   4.244  1.0795 -1.3284  1.0326
18343TIP3    H276445   6.419   2.958   4.140 -0.8332  1.0017  0.3426
18344TIP3   OH276446   6.184   4.461   0.576  0.3865  0.8280  0.0724
18344TIP3    H176447   6.234   4.471   0.495 -0.3916  3.0618 -0.1971
18344TIP3    H276448   6.248   4.468   0.646  0.9618 -0.3776 -0.3061
18345TIP3   OH276449   0.998   1.519  16.215  0.1174  0.1929  0.3561
18345TIP3    H176450   0.949   1.547  16.292 -2.0256 -0.6804 -0.6081
18345TIP3    H276451   0.931   1.501  16.149  1.8835  1.3174 -1.8910
18346TIP3   OH276452   5.086   3.271   3.649  0.9223 -0.2308  0.0006
18346TIP3    H176453   5.070   3.257   3.743  1.1229 -0.4051  0.0084
18346TIP3    H276454   5.046   3.196   3.606  1.4816 -0.5319  0.0004
18347TIP3   OH276455   0.977   1.225  16.257  0.1191  0.1092  0.1947
18347TIP3    H176456   1.057   1.262  16.295 -0.4910  1.6223  0.0528
18347TIP3    H276457   0.988   1.235  16.163  0.8379 -2.0092 -0.0022
18348TIP3   OH276458   4.703   5.841  12.220 -0.0527 -0.9055 -0.3447
18348TIP3    H176459   4.642   5.840  12.147 -0.7208 -0.3115  0.1863
18348TIP3    H276460   4.647   5.844  12.298  0.6326 -2.4121  0.2323
18349TIP3   OH276461   5.640   2.892   0.380 -0.0219 -0.2817  0.4833
18349TIP3    H176462   5.618   2.819   0.439 -0.4071 -0.7398 -0.2133
18349TIP3    H276463   5.695   2.949   0.433  0.2104 -1.0315  1.0788
18350TIP3   OH276464   5.434   1.749  11.973 -0.4893 -0.1210 -0.1460
18350TIP3    H176465   5.347   1.709  11.968 -1.4374  1.9412 -1.4446
18350TIP3    H276466   5.420   1.831  12.021  0.2202  1.3573 -2.3149
18351TIP3   OH276467   3.179   4.717  13.651 -0.2847  0.1522 -0.3883
18351TIP3    H176468   3.236   4.719  13.575  0.8589  0.0341  0.4388
18351TIP3    H276469   3.157   4.624  13.663 -0.4157  0.1643 -0.5274
18352TIP3   OH276470   2.369   5.289  14.203  0.2539  0.0162  0.2359
18352TIP3    H176471   2.341   5.235  14.128 -0.2913  0.5052  0.0841
18352TIP3    H276472   2.444   5.339  14.170 -1.6665  2.3284 -0.9080
18353TIP3   OH276473   3.695   5.674   3.953 -0.4913  0.1079 -0.4351
18353TIP3    H176474   3.671   5.593   3.997  3.0383 -0.4060  0.8467
18353TIP3    H276475   3.678   5.742   4.017 -0.4599 -0.0048 -0.3071
18354TIP3   OH276476   6.747   3.939   3.638 -0.2957 -0.0080  0.2719
18354TIP3    H176477   6.656   3.935   3.608 -0.5481  2.7416  0.4348
18354TIP3    H276478   6.780   4.022   3.604  1.9130 -0.5491  0.9222
18355TIP3   OH276479   5.790   4.600  13.859 -0.5941  0.6523 -0.0499
18355TIP3    H176480   5.800   4.506  13.874 -1.1292  0.6268  0.1478
18355TIP3    H276481   5.780   4.608  13.764 -2.2160  0.3494  0.0744
18356TIP3   OH276482   0.193   4.005  13.912 -0.4025 -0.3535 -0.1944
18356TIP3    H176483   0.180   4.076  13.848 -1.1863  0.6633  1.0451
18356TIP3    H276484   0.108   3.995  13.954  0.6312  0.7051  2.3663
18357TIP3   OH276485   0.878   6.235  12.006  0.0557  0.5136  0.4648
18357TIP3    H176486   0.790   6.264  11.984  0.1542  0.0413 -0.6425
18357TIP3    H276487   0.921   6.313  12.041 -0.4791  1.0193  0.0196
18358TIP3   OH276488   2.483   2.486   1.056 -0.0267 -0.1389  0.6143
18358TIP3    H176489   2.483   2.581   1.062 -0.8305 -0.1689  1.3714
18358TIP3    H276490   2.574   2.462   1.040  0.5279  0.6503  2.3356
18359TIP3   OH276491   0.338   4.212  12.265  0.1291  0.2002  0.4669
18359TIP3    H176492   0.336   4.306  12.250  1.5440  0.0276 -0.9805
18359TIP3    H276493   0.271   4.197  12.332 -0.8580  2.0827 -0.0468
18360TIP3   OH276494   1.644   3.321  14.273 -0.0487 -0.1722 -0.1331
18360TIP3    H176495   1.659   3.311  14.179  0.8014 -0.1150 -0.0112
18360TIP3    H276496   1.568   3.265  14.291  1.5639 -2.5971 -0.3558
18361TIP3   OH276497   4.883   3.998   5.238  0.4608 -0.1062 -0.2514
18361TIP3    H176498   4.960   4.048   5.208 -0.1057  1.0819  0.2044
18361TIP3    H276499   4.900   3.982   5.330 -0.7939  2.1354  0.4513
18362TIP3   OH276500   4.029   4.442   4.239  0.1904  0.0603  0.1228
18362TIP3    H176501   4.021   4.505   4.311 -0.4592  0.7156 -0.5047
18362TIP3    H276502   4.055   4.360   4.282  1.2247  0.7752  0.9424
18363TIP3   OH276503   0.340   1.842  14.668 -0.2199 -0.1519  0.4133
18363TIP3    H176504   0.253   1.854  14.629  0.1537  1.2592 -0.0400
18363TIP3    H276505   0.359   1.925  14.711  0.2002 -1.0189  2.0117
18364TIP3   OH276506   0.868   4.030  15.038 -0.1222 -0.5752 -0.3191
18364TIP3    H176507   0.814   4.036  15.117  1.0414 -1.8913  0.6046
18364TIP3    H276508   0.895   4.120  15.020 -2.0814  0.0357 -0.4615
18365TIP3   OH276509   1.041   5.833  10.642 -0.3212 -0.4437 -0.5032
18365TIP3    H176510   1.023   5.758  10.699  0.2821  1.4414  2.4171
18365TIP3    H276511   1.137   5.838  10.639 -0.3010  1.2783  1.0552
18366TIP3   OH276512   4.775   2.295  16.744 -0.1317 -0.0840  0.0120
18366TIP3    H176513   4.831   2.238  16.796  0.6227  1.6235  1.1444
18366TIP3    H276514   4.706   2.237  16.711  0.8496 -1.7172  0.7157
18367TIP3   OH276515   5.696   5.415  16.143  0.5740 -0.1418 -0.0924
18367TIP3    H176516   5.652   5.433  16.060  0.8549 -1.4010 -0.5342
18367TIP3    H276517   5.629   5.371  16.197  0.3998  0.6466  0.3543
18368TIP3   OH276518   4.311   1.952  10.548 -0.2474  0.5928  0.0793
18368TIP3    H176519   4.299   2.043  10.522 -1.0763  0.8571  1.3197
18368TIP3    H276520   4.231   1.908  10.521  0.6405 -0.0678 -1.6249
18369TIP3   OH276521   1.594   3.471  11.519  0.0578  0.3161 -0.3529
18369TIP3    H176522   1.550   3.506  11.442 -0.3708 -0.8323 -0.6476
18369TIP3    H276523   1.535   3.489  11.592 -0.2101  0.1201 -0.5204
18370TIP3   OH276524   0.865   4.686   1.885  0.5340  0.8280  0.6167
18370TIP3    H176525   0.953   4.712   1.912  0.6014  0.4092  0.8133
18370TIP3    H276526   0.823   4.658   1.966  0.0193  1.5827  0.6163
18371TIP3   OH276527   0.971   6.065  12.432  0.6214 -0.5073 -0.1270
18371TIP3    H176528   1.040   6.102  12.486  0.7493 -0.3177 -0.4177
18371TIP3    H276529   0.975   5.971  12.449  1.2778 -0.5584 -0.5097
18372TIP3   OH276530   0.616   6.534  12.625 -0.1805  0.1990 -0.1503
18372TIP3    H176531   0.551   6.543  12.695  0.1421  1.2452  0.0320
18372TIP3    H276532   0.565   6.507  12.549 -0.4809 -1.3541  0.5597
18373TIP3   OH276533   5.191   1.442  12.950 -0.2737  0.9043 -0.8914
18373TIP3    H176534   5.165   1.528  12.981  2.2064  1.9002 -1.3658
18373TIP3    H276535   5.122   1.383  12.981 -1.6257  2.9225  0.1029
18374TIP3   OH276536   1.941   3.937   4.841 -0.1906 -0.0890 -0.2277
18374TIP3    H176537   2.033   3.923   4.820 -0.3690 -1.4184 -0.2109
18374TIP3    H276538   1.940   3.946   4.936 -0.2036 -1.3902 -0.0836
18375TIP3   OH276539   1.059   6.023  11.976 -0.2150 -0.4004  0.5290
18375TIP3    H176540   1.001   5.957  12.013 -0.2699 -1.0308 -0.6320
18375TIP3    H276541   1.007   6.103  11.974 -0.6606 -0.6857  0.5701
18376TIP3   OH276542   5.754   5.215  11.497 -0.0490  0.5150 -0.2413
18376TIP3    H176543   5.704   5.146  11.454  1.7359 -0.7368 -0.4664
18376TIP3    H276544   5.768   5.281  11.430  0.4478 -0.1761 -0.8387
18377TIP3   OH276545   4.212   1.603  10.648  0.9843 -1.0980 -0.6014
18377TIP3    H176546   4.156   1.531  10.620  2.0410 -1.2919 -2.3658
18377TIP3    H276547   4.196   1.672  10.584 -0.1264  0.3637  1.1460
18378TIP3   OH276548   4.542   1.010   4.599  0.2411  0.6744  0.0247
18378TIP3    H176549   4.626   1.042   4.632  0.0211  1.1770  0.1075
18378TIP3    H276550   4.565   0.936   4.543  0.5831 -0.5181  1.6780
18379TIP3   OH276551   5.150   3.562   3.793  0.4516  0.2320 -0.0202
18379TIP3    H176552   5.217   3.569   3.862  1.1321  1.8216 -0.7830
18379TIP3    H276553   5.089   3.496   3.825  0.9472  0.6683  1.9357
18380TIP3   OH276554   2.261   2.923  12.319 -0.5996  0.4789 -0.0177
18380TIP3    H176555   2.205   2.860  12.272 -0.3913 -0.5308  1.0243
18380TIP3    H276556   2.345   2.918  12.274 -0.9572  1.0192 -0.7684
18381TIP3   OH276557   3.975   5.718   4.648 -0.3319 -0.3884  0.0989
18381TIP3    H176558   3.950   5.650   4.710 -1.5873 -0.2132 -0.1890
18381TIP3    H276559   4.057   5.686   4.609 -1.6465 -2.4995 -1.1278
18382TIP3   OH276560   1.925   5.942  15.358 -0.5276 -0.2319 -0.4107
18382TIP3    H176561   1.967   5.978  15.436 -0.9932 -0.1934 -0.1764
18382TIP3    H276562   1.838   5.915  15.388  0.5492 -3.7252  0.0297
18383TIP3   OH276563   4.858   2.726   0.611 -0.7125  0.2939 -0.3704
18383TIP3    H176564   4.940   2.775   0.604 -0.6715  0.3727  0.5796
18383TIP3    H276565   4.833   2.733   0.703 -0.5163 -1.7724 -0.1056
18384TIP3   OH276566   1.243   1.884   3.050  0.0005  0.0220  0.1794
18384TIP3    H176567   1.313   1.950   3.048  0.3681 -0.3388  0.8043
18384TIP3    H276568   1.289   1.801   3.058 -0.3537 -0.5164 -2.5390
18385TIP3   OH276569   1.861   4.649   1.397 -0.4318 -0.3066 -0.6136
18385TIP3    H176570   1.843   4.729   1.446  2.7401  0.1822  0.0358
18385TIP3    H276571   1.887   4.679   1.310  0.5156 -0.5901 -0.4480
18386TIP3   OH276572   3.869   3.248   5.315  0.1674 -0.5812 -0.2232
18386TIP3    H176573   3.907   3.173   5.362 -1.0645 -1.0065  0.1388
18386TIP3    H276574   3.920   3.254   5.234  1.9104 -0.2453  0.8347
18387TIP3   OH276575   0.533   0.739  15.066  0.2700 -0.1531 -0.1913
18387TIP3    H176576   0.521   0.696  14.981  0.7690  0.2545 -0.4707
18387TIP3    H276577   0.601   0.688  15.109  0.1886 -0.2134 -0.1339
18388TIP3   OH276578   5.041   4.977  10.730 -0.4239 -0.5705  0.5588
18388TIP3    H176579   5.010   4.889  10.752 -0.7644 -0.4208  0.7009
18388TIP3    H276580   5.033   5.026  10.813  1.7589 -0.9438  1.0446
18389TIP3   OH276581   1.974   0.670  12.033 -0.3704  0.6418 -0.1978
18389TIP3    H176582   2.049   0.667  11.974  1.3989  0.8143  1.9290
18389TIP3    H276583   1.933   0.584  12.024  2.1319 -0.8014  1.0050
18390TIP3   OH276584   4.437   0.224   2.629  0.0863  0.0554  0.2753
18390TIP3    H176585   4.356   0.274   2.632 -0.3545 -0.6289 -0.0899
18390TIP3    H276586   4.476   0.236   2.715  1.1041  2.8358 -0.4846
18391TIP3   OH276587   6.467   1.796  11.325  0.5369 -0.3308 -0.4656
18391TIP3    H176588   6.450   1.838  11.409  0.6584 -0.2661 -0.4723
18391TIP3    H276589   6.526   1.856  11.279 -0.2935  0.1042 -0.9950
18392TIP3   OH276590   4.929   5.637   1.502 -0.0497 -0.4443 -0.0483
18392TIP3    H176591   4.864   5.645   1.432 -0.4699 -1.9513  0.1279
18392TIP3    H276592   5.012   5.628   1.455 -0.2919 -1.1338 -0.3695
18393TIP3   OH276593   2.546   6.307  16.647 -0.0684  0.4238  0.7101
18393TIP3    H176594   2.634   6.324  16.682 -0.5435  1.7046  1.3774
18393TIP3    H276595   2.496   6.386  16.669 -1.6832 -0.7007  1.2909
18394TIP3   OH276596   4.117   6.198  13.402 -0.0197  0.0769  0.0344
18394TIP3    H176597   4.112   6.112  13.444  0.7741  0.2795  0.5692
18394TIP3    H276598   4.028   6.232  13.408 -0.4644 -0.9231 -0.6557
18395TIP3   OH276599   0.662   3.329   1.335 -0.3767 -1.1500  0.2634
18395TIP3    H176600   0.678   3.421   1.358  0.1034 -1.3606  0.7859
18395TIP3    H276601   0.747   3.287   1.344 -0.8066 -1.8727  1.0650
18396TIP3   OH276602   5.926   5.982   2.726 -0.0604  0.4576 -0.4087
18396TIP3    H176603   5.882   5.900   2.746  0.1282  0.5245  0.3233
18396TIP3    H276604   5.906   5.998   2.634 -0.2333 -0.3214 -0.5172
18397TIP3   OH276605   0.839   1.769   0.666 -0.2269  0.0472 -0.9391
18397TIP3    H176606   0.886   1.813   0.595 -0.0001 -1.3695 -1.7095
18397TIP3    H276607   0.909   1.732   0.721 -0.4141 -0.3967 -0.9950
18398TIP3   OH276608   0.219   5.654   5.482 -0.0992  0.1909 -0.5474
18398TIP3    H176609   0.142   5.613   5.443  0.3253  0.1332 -1.3282
18398TIP3    H276610   0.293   5.605   5.446  0.2610 -1.1262  1.7695
18399TIP3   OH276611   4.877   1.310  15.868  0.5155 -0.2162 -0.0167
18399TIP3    H176612   4.787   1.310  15.834  1.0469 -0.1509 -1.5194
18399TIP3    H276613   4.930   1.335  15.792  2.0219 -2.3261  0.2674
18400TIP3   OH276614   1.402   0.674   3.298  0.2754  0.0644 -0.2879
18400TIP3    H176615   1.354   0.692   3.379 -2.1988 -0.0951 -1.6394
18400TIP3    H276616   1.494   0.688   3.322 -0.4159  0.7374  2.3383
18401TIP3   OH276617   5.730   3.051   3.239 -0.1939  0.4596 -0.2971
18401TIP3    H176618   5.688   3.137   3.230  0.1703  0.6611 -0.1061
18401TIP3    H276619   5.813   3.059   3.191 -1.8757 -1.0513 -3.7955
18402TIP3   OH276620   4.087   4.309  15.519  0.4054 -0.1791  0.0569
18402TIP3    H176621   4.113   4.217  15.512 -0.0979 -0.3492  0.3608
18402TIP3    H276622   4.108   4.347  15.434 -0.0852 -0.7640 -0.3359
18403TIP3   OH276623   1.895   3.330  13.652 -0.4882  0.2057  0.1301
18403TIP3    H176624   1.970   3.389  13.646 -0.8216  0.8707  2.1079
18403TIP3    H276625   1.911   3.265  13.583  1.4066  0.8793 -0.1186
18404TIP3   OH276626   1.975   4.959  13.680  0.2980  0.0169 -0.0277
18404TIP3    H176627   2.046   4.982  13.619  0.8766 -0.7385  0.3330
18404TIP3    H276628   1.949   5.042  13.719  0.6910  0.3653 -0.4894
18405TIP3   OH276629   5.683   4.913  12.047  0.2623  0.2814  0.5728
18405TIP3    H176630   5.624   4.841  12.024  1.5035 -0.5394 -0.2168
18405TIP3    H276631   5.635   4.992  12.022 -0.1110 -0.4034 -1.0377
18406TIP3   OH276632   4.831   3.447  12.935  0.7450  0.1729  0.4472
18406TIP3    H176633   4.783   3.477  12.858 -0.7664 -2.2281  0.3566
18406TIP3    H276634   4.921   3.439  12.906  0.6061  1.3939 -0.4072
18407TIP3   OH276635   6.307   2.540   0.303 -0.1518 -0.4684 -0.2949
18407TIP3    H176636   6.394   2.572   0.327 -0.4566 -0.4044  0.7653
18407TIP3    H276637   6.270   2.611   0.251  0.4510 -0.5315 -0.8317
18408TIP3   OH276638   4.087   1.322  12.756 -0.0733  0.0581  0.4218
18408TIP3    H176639   4.002   1.319  12.713  0.0383  0.2052  0.1880
18408TIP3    H276640   4.091   1.409  12.797  0.6561  0.7253 -1.0106
18409TIP3   OH276641   4.148   5.757   0.552  0.3852  0.4589  0.2545
18409TIP3    H176642   4.233   5.801   0.549  0.6098  0.1085  1.1872
18409TIP3    H276643   4.165   5.675   0.599 -0.7282  1.0076  1.6992
18410TIP3   OH276644   5.786   4.952  12.309 -0.0599 -0.9015 -0.1793
18410TIP3    H176645   5.725   5.018  12.344  1.8784  0.7446  0.3222
18410TIP3    H276646   5.746   4.923  12.227 -1.0381  0.8713 -0.3758
18411TIP3   OH276647   6.298   1.665  16.626 -0.7896 -0.0713 -0.5798
18411TIP3    H176648   6.264   1.709  16.703 -0.3403  1.4141 -1.2028
18411TIP3    H276649   6.252   1.581  16.624 -1.3918  0.2022  0.8381
18412TIP3   OH276650   4.739   5.559  13.787 -0.2819  0.2648 -0.3303
18412TIP3    H176651   4.829   5.527  13.792 -0.1410  0.5535 -1.0181
18412TIP3    H276652   4.691   5.503  13.849  0.5876  0.9145  0.9683
18413TIP3   OH276653   5.129   6.473   4.243 -0.8584 -0.0938 -0.4841
18413TIP3    H176654   5.143   6.564   4.216 -0.4058  0.5781  1.8519
18413TIP3    H276655   5.066   6.478   4.315 -0.8122 -1.6345 -0.2998
18414TIP3   OH276656   5.245   3.556   1.724 -0.0407 -0.0652 -0.6871
18414TIP3    H176657   5.308   3.624   1.749 -0.7164  0.1267  0.6149
18414TIP3    H276658   5.292   3.474   1.736 -0.0564  0.0700  0.4253
18415TIP3   OH276659   2.080   2.749  14.858  0.6047 -0.5476  0.3212
18415TIP3    H176660   2.035   2.798  14.789 -0.2774 -0.4124  0.9740
18415TIP3    H276661   2.078   2.806  14.935  0.2131 -1.2923  0.8868
18416TIP3   OH276662   5.655   1.496   2.131 -0.1194  0.3619 -0.6611
18416TIP3    H176663   5.685   1.405   2.138 -1.1579  0.0345 -0.3208
18416TIP3    H276664   5.561   1.492   2.150 -0.1319  1.5433 -0.4160
18417TIP3   OH276665   5.120   6.179   0.435  0.6006 -0.2156 -1.2452
18417TIP3    H176666   5.177   6.190   0.510 -0.2313 -1.4738 -0.3788
18417TIP3    H276667   5.074   6.262   0.426  1.0257  0.0888 -0.6517
18418TIP3   OH276668   1.456   0.369   1.330 -0.1963 -0.2241 -0.3789
18418TIP3    H176669   1.462   0.436   1.398 -0.5960 -3.9847  3.8043
18418TIP3    H276670   1.542   0.327   1.330 -0.7284 -1.3612 -0.9185
18419TIP3   OH276671   5.030   5.376  17.161 -0.5958 -0.3538  0.2163
18419TIP3    H176672   4.973   5.450  17.140  0.3269  0.0132 -1.1605
18419TIP3    H276673   5.001   5.305  17.103 -0.4533 -0.5522  0.3858
18420TIP3   OH276674   6.577   6.056  16.748 -0.0211  0.3212 -0.2588
18420TIP3    H176675   6.641   5.993  16.715  0.5042  1.5539 -1.6676
18420TIP3    H276676   6.519   6.003  16.803  1.3372 -1.0892 -0.1082
18421TIP3   OH276677   4.088   1.598  15.527 -0.1756 -0.2770  0.0275
18421TIP3    H176678   4.068   1.513  15.488  0.4238 -0.5866  0.3821
18421TIP3    H276679   4.019   1.611  15.593  0.3905 -1.0281  0.7806
18422TIP3   OH276680   4.112   0.268  15.525 -0.0085  0.1919 -0.0204
18422TIP3    H176681   4.055   0.317  15.465 -0.6623 -0.8876 -0.3025
18422TIP3    H276682   4.102   0.314  15.608  0.2133  1.1705 -0.5228
18423TIP3   OH276683   1.608   5.296   6.359  0.5255  0.4787 -0.1611
18423TIP3    H176684   1.682   5.306   6.298  0.1142 -2.6508 -1.3391
18423TIP3    H276685   1.543   5.358   6.327  1.5524  1.2395 -0.8645
18424TIP3   OH276686   4.468   4.623   5.241  0.1854  0.1702 -0.6330
18424TIP3    H176687   4.536   4.567   5.279  0.8337  1.5197  0.2942
18424TIP3    H276688   4.499   4.712   5.258 -0.2891  0.8340 -2.9983
18425TIP3   OH276689   2.628   2.468   4.765  0.3597  0.3857  0.2604
18425TIP3    H176690   2.632   2.412   4.843  1.6606 -0.4517 -0.3735
18425TIP3    H276691   2.539   2.458   4.733  0.4627 -1.0976  0.3527
18426TIP3   OH276692   1.912   3.790   4.058  0.2588 -0.2734 -0.1598
18426TIP3    H176693   1.920   3.880   4.026 -0.9231 -0.3883 -0.8406
18426TIP3    H276694   1.876   3.799   4.146 -2.6314 -0.1049 -1.2479
18427TIP3   OH276695   3.016   2.861   1.344  0.3623 -0.6332  0.4416
18427TIP3    H176696   3.015   2.956   1.353 -1.3881 -0.5893  0.1733
18427TIP3    H276697   3.089   2.843   1.284  0.1061  0.6322 -0.2905
18428TIP3   OH276698   2.799   0.737  13.993 -0.2242  0.1249  0.4721
18428TIP3    H176699   2.805   0.832  13.984 -0.1248  0.0443 -0.4159
18428TIP3    H276700   2.708   0.721  14.014 -0.5154  0.3443 -0.5612
18429TIP3   OH276701   1.604   3.333  11.069  0.2427  0.4441  0.1333
18429TIP3    H176702   1.557   3.408  11.105  1.4742  0.9297  0.7960
18429TIP3    H276703   1.539   3.262  11.067 -0.5984  1.1829  0.6725
18430TIP3   OH276704   1.102   6.663  11.357  0.3072 -0.0339  0.0243
18430TIP3    H176705   1.101   6.687  11.264 -0.6991  1.3803  0.3763
18430TIP3    H276706   1.151   6.732  11.400 -2.3089  1.3670  1.0012
18431TIP3   OH276707   4.854   3.803  11.583  0.4877  0.8471  0.1866
18431TIP3    H176708   4.762   3.784  11.600  0.2815  2.2162  0.7265
18431TIP3    H276709   4.889   3.828  11.669  1.1948  0.9899 -0.1372
18432TIP3   OH276710   3.366   2.888   2.910 -0.4277 -0.7889  0.6040
18432TIP3    H176711   3.421   2.966   2.916 -0.1693 -0.9683  0.5576
18432TIP3    H276712   3.377   2.856   2.821 -1.1306 -0.4427  0.3894
18433TIP3   OH276713   2.088   4.771   3.037 -0.3552  0.0201 -0.2941
18433TIP3    H176714   2.126   4.712   2.972  0.7803  1.2070 -0.7525
18433TIP3    H276715   2.069   4.715   3.112 -1.4968 -1.3478 -1.5277
18434TIP3   OH276716   6.096   4.682   5.548 -0.2867  0.5149 -0.3614
18434TIP3    H176717   6.169   4.621   5.538 -0.3198  0.3695  0.2558
18434TIP3    H276718   6.018   4.627   5.540 -0.3158  0.3947  0.6099
18435TIP3   OH276719   5.694   5.858   5.575  0.3695 -0.5991 -0.3303
18435TIP3    H176720   5.653   5.772   5.570 -1.5171  0.1198  1.2803
18435TIP3    H276721   5.776   5.849   5.527 -0.9970 -2.5345 -2.5159
18436TIP3   OH276722   5.403   2.481  15.063  0.1372 -0.1711 -0.2687
18436TIP3    H176723   5.414   2.529  14.982  1.1602  1.1562  0.6179
18436TIP3    H276724   5.489   2.486  15.106 -0.4609 -0.5801  1.0272
18437TIP3   OH276725   3.187   5.508  12.432  0.1501  0.4313  0.0606
18437TIP3    H176726   3.175   5.593  12.476 -1.0576 -0.3205  1.2498
18437TIP3    H276727   3.210   5.531  12.342 -2.9251  2.0757 -0.4443
18438TIP3   OH276728   5.368   6.711   4.608 -0.4012  0.0061 -0.1566
18438TIP3    H176729   5.309   6.736   4.536 -0.4570  0.8343  0.1615
18438TIP3    H276730   5.392   6.795   4.648  3.1877  0.0432 -1.9577
18439TIP3   OH276731   3.076   1.559   5.362 -0.0990  0.1497  0.0900
18439TIP3    H176732   3.127   1.591   5.287  0.0601  0.5432  0.3633
18439TIP3    H276733   3.037   1.477   5.331  1.0403 -0.3856  0.0118
18440TIP3   OH276734   3.894   5.602   0.961 -0.1939 -0.2275 -0.1437
18440TIP3    H176735   3.979   5.645   0.959 -0.5072  0.3667 -1.8013
18440TIP3    H276736   3.854   5.622   0.877 -1.8175 -0.8400  0.4325
18441TIP3   OH276737   5.641   1.908   6.491 -0.7962  0.2565 -0.0778
18441TIP3    H176738   5.602   1.944   6.571  1.7166  1.0344  0.8862
18441TIP3    H276739   5.580   1.839   6.464 -1.8493  0.1185  2.3699
18442TIP3   OH276740   2.157   4.288   2.918 -0.2724 -0.4840  0.0974
18442TIP3    H176741   2.159   4.334   3.002 -0.8739 -0.9910  0.4032
18442TIP3    H276742   2.127   4.353   2.855  1.8949  0.4177 -0.0873
18443TIP3   OH276743   6.073   1.012   5.053  0.0151 -0.1522 -0.0265
18443TIP3    H176744   6.040   0.924   5.070  0.7118  0.0101  2.6019
18443TIP3    H276745   6.033   1.066   5.120  2.6705  0.7292  1.0111
18444TIP3   OH276746   6.745   2.788  11.979  0.2190  0.2733 -0.5222
18444TIP3    H176747   6.654   2.811  11.960 -0.3886 -1.0187  0.6623
18444TIP3    H276748   6.789   2.792  11.894 -1.5513 -1.7321 -1.6079
18445TIP3   OH276749   1.575   0.402  13.887 -0.0999 -0.5942 -0.0405
18445TIP3    H176750   1.658   0.372  13.923  0.0161  0.3442  0.5249
18445TIP3    H276751   1.571   0.495  13.912 -1.5889 -0.7747  0.4734
18446TIP3   OH276752   0.449   6.034   6.072  0.4319 -0.6779 -0.2147
18446TIP3    H176753   0.384   6.001   6.010  1.1637  1.0099 -1.9703
18446TIP3    H276754   0.397   6.075   6.141 -0.5097  2.0832 -2.3695
18447TIP3   OH276755   0.832   5.230   5.968  0.1116  0.2445 -0.8119
18447TIP3    H176756   0.777   5.162   6.007  0.8795 -0.3203 -0.6854
18447TIP3    H276757   0.887   5.261   6.040 -0.0246  0.7919 -0.9395
18448TIP3   OH276758   1.706   1.646   4.330 -0.4102  0.0566  0.3540
18448TIP3    H176759   1.648   1.720   4.348 -1.2604 -0.4798 -0.1489
18448TIP3    H276760   1.677   1.613   4.245 -0.3579 -1.1560  0.7944
18449TIP3   OH276761   0.974   2.570  15.671  0.6020  0.1980 -0.1002
18449TIP3    H176762   0.981   2.645  15.730  1.2277 -0.3373  0.5392
18449TIP3    H276763   0.880   2.550  15.669  0.6000 -0.0378  1.0936
18450TIP3   OH276764   1.319   3.099  11.632 -0.1437  0.1164  0.2547
18450TIP3    H176765   1.365   3.127  11.553 -1.2167 -1.3915 -0.9661
18450TIP3    H276766   1.255   3.169  11.648 -0.2553  0.1995 -0.5027
18451TIP3   OH276767   2.771   1.002   4.964 -0.1507 -0.8604 -0.0188
18451TIP3    H176768   2.823   0.934   4.921  0.5635  0.9042 -2.1652
18451TIP3    H276769   2.770   1.074   4.901 -2.3904  0.4516  1.3962
18452TIP3   OH276770   5.185   0.434   6.530 -0.6894  0.4215 -0.2192
18452TIP3    H176771   5.277   0.434   6.557 -0.8453 -0.9766  0.4598
18452TIP3    H276772   5.144   0.502   6.583 -0.7119 -1.3685  2.2250
18453TIP3   OH276773   1.666   6.471  11.694 -0.2741  0.1101  0.9330
18453TIP3    H176774   1.696   6.552  11.653  0.3168  0.3334  1.7790
18453TIP3    H276775   1.572   6.468  11.676  0.1577 -0.5289 -1.6482
18454TIP3   OH276776   0.246   1.037   1.808 -0.1845 -0.4566  0.5544
18454TIP3    H176777   0.203   1.004   1.729  0.3550  2.0499 -0.8819
18454TIP3    H276778   0.328   0.988   1.812  0.1235 -0.1002 -0.8948
18455TIP3   OH276779   1.960   3.057  15.273 -0.1254 -0.4338  0.1239
18455TIP3    H176780   1.988   2.966  15.269  2.7483  0.3339  0.7585
18455TIP3    H276781   1.986   3.087  15.360  0.1063  1.3070 -0.4924
18456TIP3   OH276782   3.602   6.544  12.638  0.6169  0.2574 -0.1437
18456TIP3    H176783   3.536   6.612  12.651 -0.1219 -0.5699  0.5591
18456TIP3    H276784   3.646   6.568  12.556  0.2395  1.4580 -0.0137
18457TIP3   OH276785   6.440   2.848   1.896  0.1372  0.7165  0.4161
18457TIP3    H176786   6.450   2.934   1.935 -0.8696  1.3125 -0.5817
18457TIP3    H276787   6.454   2.862   1.802 -1.7992  0.1539  0.0016
18458TIP3   OH276788   4.315   5.932   1.437  0.0693 -0.1562 -0.0675
18458TIP3    H176789   4.390   5.972   1.393 -0.0832 -0.0858 -0.2643
18458TIP3    H276790   4.330   5.949   1.530  0.0400  0.3033 -0.1429
18459TIP3   OH276791   4.049   3.524  13.755 -0.2594  0.3457 -0.1893
18459TIP3    H176792   4.112   3.466  13.796  0.9503  1.3300 -0.6117
18459TIP3    H276793   3.978   3.465  13.727 -0.9684 -0.4046  2.8844
18460TIP3   OH276794   3.417   3.013   2.549 -0.3217 -0.6842 -0.3184
18460TIP3    H176795   3.353   2.952   2.585 -0.6753  0.9104  1.9476
18460TIP3    H276796   3.405   3.093   2.599  2.8171 -0.0049 -0.4308
18461TIP3   OH276797   3.286   6.725   5.413 -0.3666 -0.3434 -0.4362
18461TIP3    H176798   3.348   6.652   5.414 -0.3226 -0.3713 -2.1782
18461TIP3    H276799   3.335   6.798   5.451  0.2581 -0.7229 -0.4983
18462TIP3   OH276800   2.071   1.087  15.589  0.2481  0.6465 -0.1614
18462TIP3    H176801   2.015   1.023  15.545  0.7270  0.0733  0.0309
18462TIP3    H276802   2.049   1.078  15.682  0.1956  0.8805 -0.1515
18463TIP3   OH276803   6.683   3.656   4.128 -0.1336  0.2591  0.5277
18463TIP3    H176804   6.734   3.610   4.194 -0.8053  1.1440  1.7043
18463TIP3    H276805   6.723   3.743   4.124  0.5794 -0.1060 -1.0457
18464TIP3   OH276806   4.718   3.656  15.546  0.0382  0.2004  0.1041
18464TIP3    H176807   4.760   3.585  15.499  1.8705  1.4127 -0.2136
18464TIP3    H276808   4.736   3.734  15.493  0.8794  1.3748  2.0179
18465TIP3   OH276809   3.014   5.610  13.286 -0.4336  0.1883  0.0414
18465TIP3    H176810   2.938   5.624  13.341 -1.8547  0.8471 -1.9765
18465TIP3    H276811   3.012   5.682  13.223  1.6072 -0.0354 -0.3569
18466TIP3   OH276812   2.576   5.132   5.429  0.3544  0.0106  0.6781
18466TIP3    H176813   2.515   5.063   5.406 -0.5009  1.3981 -1.5513
18466TIP3    H276814   2.661   5.088   5.434 -0.2958 -1.3446  0.2560
18467TIP3   OH276815   1.264   4.925  12.490 -0.2302  0.3303  0.7576
18467TIP3    H176816   1.189   4.870  12.468  0.2778  0.1390 -0.5433
18467TIP3    H276817   1.230   5.014  12.490 -0.5351  0.2119  0.5314
18468TIP3   OH276818   3.343   3.777   4.191 -0.0690 -0.1521  0.5336
18468TIP3    H176819   3.259   3.738   4.165 -0.3261 -0.1676  1.3465
18468TIP3    H276820   3.324   3.871   4.199 -0.2242 -0.2486  1.4682
18469TIP3   OH276821   0.005   3.534  14.584 -0.2984  0.4191 -0.1177
18469TIP3    H176822  -0.030   3.445  14.591  1.4187 -0.5883 -2.8098
18469TIP3    H276823  -0.059   3.582  14.532  0.4519 -0.3359 -1.7901
18470TIP3   OH276824   5.848   0.110  13.188  0.5376  0.3049 -0.2552
18470TIP3    H176825   5.784   0.144  13.251  0.2709 -0.3047 -0.1920
18470TIP3    H276826   5.929   0.157  13.210  0.7023 -0.6011  1.2058
18471TIP3   OH276827   5.825   0.803   2.632  0.1276  0.0811  0.3438
18471TIP3    H176828   5.834   0.844   2.717  1.3413  0.9073 -0.1539
18471TIP3    H276829   5.854   0.713   2.645 -0.4691 -0.0291  0.9637
18472TIP3   OH276830   5.341   0.293   5.236  0.0961  0.3191  0.0839
18472TIP3    H176831   5.392   0.214   5.256 -0.2984 -0.7783 -2.7325
18472TIP3    H276832   5.395   0.341   5.173 -0.7037  1.0758 -0.0437
18473TIP3   OH276833   5.415   3.983  14.950  0.2062 -0.1843  0.4342
18473TIP3    H176834   5.404   3.954  15.040 -1.3387 -2.2508 -0.3248
18473TIP3    H276835   5.346   4.048  14.936  0.4164  0.0996  0.7071
18474TIP3   OH276836   2.574   3.267  12.680  0.0652 -0.0899 -0.6041
18474TIP3    H176837   2.668   3.279  12.698  0.0349  0.6192 -0.9073
18474TIP3    H276838   2.534   3.350  12.703 -0.5271 -0.4615 -0.2800
18475TIP3   OH276839   0.458   6.659   1.130  0.0501  0.5080 -0.2777
18475TIP3    H176840   0.363   6.672   1.127  0.0902  0.6813 -0.8907
18475TIP3    H276841   0.490   6.693   1.047  0.3348 -1.9530 -1.2663
18476TIP3   OH276842   6.492   0.557   1.015  0.6621  0.6120 -0.4358
18476TIP3    H176843   6.441   0.609   0.953 -0.5186 -0.3256 -0.2808
18476TIP3    H276844   6.547   0.621   1.060  0.0271  1.5792 -0.9952
18477TIP3   OH276845   6.194   4.270  16.840 -0.0616  0.7639  0.2135
18477TIP3    H176846   6.144   4.351  16.852  0.3326  1.6302 -2.9900
18477TIP3    H276847   6.279   4.288  16.880 -1.1210  0.5018  2.7409
18478TIP3   OH276848   5.943   6.424  12.843  0.1060 -0.4677 -0.0624
18478TIP3    H176849   5.989   6.508  12.838 -0.5766 -0.0876 -0.1221
18478TIP3    H276850   5.871   6.440  12.904  0.5426 -1.3002  0.6944
18479TIP3   OH276851   0.762   1.285  16.401  0.2185 -0.1470 -0.0109
18479TIP3    H176852   0.799   1.361  16.446  0.9187  0.2378 -1.2219
18479TIP3    H276853   0.826   1.262  16.335 -0.1686 -1.5702  0.0797
18480TIP3   OH276854   4.066   3.408  11.613  0.6052 -0.5801  0.1059
18480TIP3    H176855   3.991   3.460  11.645 -0.4185 -0.0640 -2.8180
18480TIP3    H276856   4.050   3.320  11.648 -0.8914 -0.2679  0.3163
18481TIP3   OH276857   0.926   4.127  11.667  0.4639  0.1045  0.0296
18481TIP3    H176858   0.964   4.072  11.735  0.6682  1.9837  1.5315
18481TIP3    H276859   0.965   4.095  11.585  0.9944 -1.5562  0.8934
18482TIP3   OH276860   4.075   3.745   0.194  0.0306  0.5334 -0.3451
18482TIP3    H176861   4.026   3.823   0.219  2.0909  2.1441 -1.0353
18482TIP3    H276862   4.135   3.729   0.266 -1.6221 -1.6785  0.6896
18483TIP3   OH276863   5.949   4.708  14.602  0.3683  0.0527 -0.4974
18483TIP3    H176864   5.876   4.650  14.582  0.6599 -0.5293  0.0813
18483TIP3    H276865   5.979   4.740  14.517 -0.2168 -0.1168 -0.7732
18484TIP3   OH276866   3.241   5.632   4.567  0.5324 -0.3066  0.0033
18484TIP3    H176867   3.290   5.686   4.629  4.8349 -3.9085  0.1635
18484TIP3    H276868   3.274   5.658   4.481  1.4561 -1.5694 -0.0325
18485TIP3   OH276869   6.687   4.382  15.339  0.1175 -0.7627  0.3440
18485TIP3    H176870   6.666   4.289  15.352 -2.9518 -0.4382 -1.3778
18485TIP3    H276871   6.694   4.392  15.244  1.9382  0.5435  0.5624
18486TIP3   OH276872   6.178   1.850  11.530 -0.3138  0.0880  0.5536
18486TIP3    H176873   6.112   1.920  11.531  0.1617  0.5750 -0.7923
18486TIP3    H276874   6.183   1.822  11.439 -0.2116 -1.4675  0.9989
18487TIP3   OH276875   5.798   5.719  14.226  0.3074 -0.4714 -0.0608
18487TIP3    H176876   5.837   5.703  14.312 -0.2229  1.9108  0.7076
18487TIP3    H276877   5.706   5.735  14.244  0.3225  0.7891 -0.9578
18488TIP3   OH276878   2.480   3.746   0.932  0.1265  0.3267  0.3240
18488TIP3    H176879   2.490   3.768   0.839 -0.0371 -1.4958 -0.1644
18488TIP3    H276880   2.569   3.746   0.967  0.4948 -1.5068 -0.4923
18489TIP3   OH276881   4.120   6.651  13.780  0.5312 -0.3713 -0.5145
18489TIP3    H176882   4.075   6.570  13.806 -0.8997  0.7965  0.7885
18489TIP3    H276883   4.089   6.667  13.690 -0.7240 -0.2520 -0.0781
18490TIP3   OH276884   4.406   6.063   3.047 -0.1521  0.4903 -0.6156
18490TIP3    H176885   4.458   6.078   2.968 -0.1309  1.3557 -0.4464
18490TIP3    H276886   4.317   6.050   3.014  0.1231 -0.8707 -0.8946
18491TIP3   OH276887   3.318   5.471   6.203  0.1860 -0.1048 -0.5589
18491TIP3    H176888   3.288   5.444   6.116 -0.7843 -0.0108 -0.2687
18491TIP3    H276889   3.271   5.553   6.220 -0.8256 -0.8811  0.6545
18492TIP3   OH276890   2.441   2.191  13.587  0.0917 -0.6114  0.4319
18492TIP3    H176891   2.506   2.133  13.549 -0.2617  0.1238 -1.4059
18492TIP3    H276892   2.361   2.138  13.592 -0.0163 -0.5471 -0.4634
18493TIP3   OH276893   0.495   4.414  11.505  0.7834  0.0111 -0.0490
18493TIP3    H176894   0.558   4.348  11.536  0.3204 -0.4173  0.0009
18493TIP3    H276895   0.410   4.382  11.536  0.6486  1.0978  0.7371
18494TIP3   OH276896   5.720   2.266   1.483  0.3021  0.7443  0.6636
18494TIP3    H176897   5.739   2.344   1.536  0.7242  2.4778 -1.8023
18494TIP3    H276898   5.627   2.273   1.462  0.5122  1.0994 -0.2276
18495TIP3   OH276899   4.668   5.460  11.161  0.1611  0.1114 -0.2617
18495TIP3    H176900   4.668   5.365  11.161  0.4867  0.0683 -2.2959
18495TIP3    H276901   4.740   5.485  11.103 -1.8981  1.4683 -2.4742
18496TIP3   OH276902   6.253   6.072  11.559  0.0969 -0.2021  0.2745
18496TIP3    H176903   6.241   5.988  11.516 -0.1305 -0.6203  1.1347
18496TIP3    H276904   6.222   6.058  11.648  0.0520  0.7950  0.4261
18497TIP3   OH276905   1.936   2.979   2.808 -0.2861  0.0157 -0.1209
18497TIP3    H176906   1.917   2.918   2.736  1.1741  1.4021 -1.7834
18497TIP3    H276907   1.908   2.932   2.887 -0.5158 -2.2250 -1.4317
18498TIP3   OH276908   4.246   2.376  12.443 -0.2559 -0.2486 -0.2701
18498TIP3    H176909   4.311   2.445  12.459  1.3362 -1.4079 -1.4538
18498TIP3    H276910   4.162   2.418  12.461  0.7008  1.7884 -0.2601
18499TIP3   OH276911   5.866   1.554  17.230 -0.0739 -0.0393 -0.6631
18499TIP3    H176912   5.936   1.512  17.181 -0.3762 -2.0032  0.4782
18499TIP3    H276913   5.824   1.483  17.278 -0.6500  1.5754  1.3773
18500TIP3   OH276914   6.730   3.453   4.865  0.6335 -0.8054 -0.2708
18500TIP3    H176915   6.729   3.520   4.797  0.1092 -1.2654 -0.7250
18500TIP3    H276916   6.797   3.391   4.836  1.7515 -0.0437  0.5953
18501TIP3   OH276917   4.626   5.739   1.726  0.0473 -0.0920  0.0729
18501TIP3    H176918   4.622   5.833   1.709 -2.4275 -0.0166  0.5914
18501TIP3    H276919   4.582   5.699   1.651  0.9596 -0.8422 -0.0778
18502TIP3   OH276920   5.183   1.901   1.739 -0.4660  0.7861  0.1046
18502TIP3    H176921   5.110   1.848   1.706  0.6173 -0.4734 -0.3561
18502TIP3    H276922   5.222   1.847   1.807  0.8333  0.8339 -0.5697
18503TIP3   OH276923   5.911   1.830  14.642 -0.5414  0.0801  0.4645
18503TIP3    H176924   5.852   1.889  14.689 -1.7434 -0.7599  0.0867
18503TIP3    H276925   5.853   1.761  14.609  0.3394  0.2534 -1.6214
18504TIP3   OH276926   2.254   2.110  16.696 -0.2240 -0.5001  0.1187
18504TIP3    H176927   2.159   2.107  16.709 -0.3460 -0.2259 -0.6721
18504TIP3    H276928   2.274   2.028  16.651 -0.4776  0.5540 -2.0460
18505TIP3   OH276929   1.889   2.166  13.547 -0.4524  0.2528 -0.1327
18505TIP3    H176930   1.931   2.101  13.490 -0.5597 -1.0916  1.2773
18505TIP3    H276931   1.798   2.138  13.553 -1.0582  1.8023 -1.2295
18506TIP3   OH276932   1.175   4.754  15.944 -0.6609 -0.2468 -0.5905
18506TIP3    H176933   1.175   4.662  15.916  1.7974 -0.8515  1.1266
18506TIP3    H276934   1.152   4.803  15.864  1.8412 -2.1236 -2.6561
18507TIP3   OH276935   3.036   3.894   3.936 -0.4536 -0.9760  0.2177
18507TIP3    H176936   3.073   3.948   3.866  1.0616 -3.4499 -1.0193
18507TIP3    H276937   2.950   3.932   3.952  0.4778  1.7483 -0.5551
18508TIP3   OH276938   0.804   2.671  13.470  0.0306  0.3064  0.1269
18508TIP3    H176939   0.885   2.621  13.464 -0.3587 -0.4021  0.6454
18508TIP3    H276940   0.798   2.696  13.563 -0.7286 -0.3180  0.2559
18509TIP3   OH276941   5.699   1.517   3.322 -0.4133  0.5771  0.4810
18509TIP3    H176942   5.715   1.607   3.295 -1.6967  1.0283  1.1488
18509TIP3    H276943   5.662   1.475   3.244  1.5717  0.1771 -0.3063
18510TIP3   OH276944   2.620   3.063  14.107 -0.0584 -0.0196 -0.2826
18510TIP3    H176945   2.566   2.999  14.154  1.2125 -1.8382 -1.1907
18510TIP3    H276946   2.601   3.047  14.014  0.9938  0.2610 -0.5554
18511TIP3   OH276947   6.235   6.608   3.211 -0.3930  0.4899  0.3381
18511TIP3    H176948   6.248   6.702   3.205 -1.4691  0.5425 -2.1995
18511TIP3    H276949   6.274   6.573   3.131 -2.0604 -0.9448  0.0923
18512TIP3   OH276950   5.058   4.184   5.834  0.1778 -0.2119  0.0352
18512TIP3    H176951   5.023   4.174   5.923 -0.5836 -0.4161 -0.2806
18512TIP3    H276952   4.982   4.209   5.781  0.7780  0.6809 -0.4191
18513TIP3   OH276953   2.734   5.187   4.585  0.0802 -0.0376  0.4716
18513TIP3    H176954   2.652   5.164   4.629  0.3186  0.1218  1.0156
18513TIP3    H276955   2.802   5.147   4.640  0.3278 -1.0088 -0.5127
18514TIP3   OH276956   6.252   0.987  15.212  0.3125 -0.3436  0.1168
18514TIP3    H176957   6.326   0.982  15.151 -0.9056 -0.9439 -1.3615
18514TIP3    H276958   6.210   1.071  15.192 -0.8980 -1.1584 -0.8630
18515TIP3   OH276959   0.209   5.650  16.385 -0.0025 -0.6438 -0.2360
18515TIP3    H176960   0.190   5.593  16.458 -0.4859  2.4474  2.2861
18515TIP3    H276961   0.299   5.681  16.401 -1.2295  2.6476  1.1635
18516TIP3   OH276962   3.463   3.178   4.082 -0.1665  0.0096 -0.0355
18516TIP3    H176963   3.407   3.105   4.111 -0.0551 -0.1452 -0.2042
18516TIP3    H276964   3.420   3.256   4.116  0.1299 -0.1820  0.8299
18517TIP3   OH276965   1.407   1.028  16.010 -0.7039 -0.0170 -0.4251
18517TIP3    H176966   1.336   1.000  15.952  0.3137  0.4653 -1.9462
18517TIP3    H276967   1.380   0.997  16.096 -3.3611  1.1879 -0.7039
18518TIP3   OH276968   1.797   5.935   0.971 -0.2908 -0.4712 -0.2617
18518TIP3    H176969   1.756   5.994   0.908 -1.4293  0.8805  1.6319
18518TIP3    H276970   1.885   5.970   0.982  0.6442 -1.9196 -2.5141
18519TIP3   OH276971   1.354   4.008  12.441  0.6917  0.5710  0.0564
18519TIP3    H176972   1.347   3.912  12.437 -0.3983  0.6013  0.8225
18519TIP3    H276973   1.441   4.024  12.477  0.7340 -0.1532  0.3003
18520TIP3   OH276974   4.698   4.896  17.243  0.3675  0.2900  0.0842
18520TIP3    H176975   4.763   4.868  17.178 -0.5220 -2.2344  0.1861
18520TIP3    H276976   4.720   4.847  17.322 -1.1990 -0.0715  0.3369
18521TIP3   OH276977   4.010   0.161   0.057 -0.1124  1.1339 -0.5239
18521TIP3    H176978   4.094   0.117   0.072 -0.7629  0.6231  2.0470
18521TIP3    H276979   3.972   0.170   0.144 -4.2880 -1.6914 -1.7769
18522TIP3   OH276980   5.835   5.161   1.925 -0.4790 -0.2760  0.6780
18522TIP3    H176981   5.907   5.212   1.887 -1.6082  2.2523  1.6947
18522TIP3    H276982   5.765   5.165   1.859 -0.1945 -1.5469  0.2775
18523TIP3   OH276983   3.775   0.504   1.475 -0.5362  0.3404 -0.3105
18523TIP3    H176984   3.860   0.535   1.443 -0.0489  1.4397  1.8359
18523TIP3    H276985   3.711   0.546   1.418  0.3142  0.7399 -1.0006
18524TIP3   OH276986   2.015   6.204  14.375 -0.4179 -0.3350 -0.0831
18524TIP3    H176987   2.055   6.289  14.394  0.6693 -1.1468  1.4728
18524TIP3    H276988   1.940   6.199  14.435  0.2482 -0.9611  0.7176
18525TIP3   OH276989   3.608   4.050   4.624  0.4190  0.1579 -0.4141
18525TIP3    H176990   3.693   4.093   4.632 -0.1020  1.1376  0.0555
18525TIP3    H276991   3.625   3.974   4.568  1.2857  1.2133 -1.6548
18526TIP3   OH276992   3.088   2.180  13.066 -0.0882 -0.1275  0.2779
18526TIP3    H176993   3.005   2.145  13.034 -1.4671  0.6717  2.6914
18526TIP3    H276994   3.116   2.241  12.998 -1.5195 -0.3717 -0.5823
18527TIP3   OH276995   4.203   5.886   2.804 -0.8134 -0.0471  1.0382
18527TIP3    H176996   4.120   5.839   2.802 -0.7866 -0.0863  0.8240
18527TIP3    H276997   4.267   5.821   2.832 -0.3329 -0.8403 -1.6308
18528TIP3   OH276998   5.539   1.289   1.841  0.2672 -0.4435  0.5775
18528TIP3    H176999   5.513   1.381   1.853 -0.0725 -0.4606 -0.0332
18528TIP3    H277000   5.605   1.292   1.772 -1.0875 -0.8561 -0.7791
18529TIP3   OH277001   3.004   2.615  16.859 -0.1463  0.1283  0.7640
18529TIP3    H177002   2.976   2.607  16.768  1.1221 -0.8338  0.4326
18529TIP3    H277003   2.929   2.654  16.904 -2.4709 -3.2410  0.1500
18530TIP3   OH277004   5.288   0.643  11.833 -0.2395 -0.5758 -0.3776
18530TIP3    H177005   5.290   0.723  11.781  0.9362 -0.0812  0.3917
18530TIP3    H277006   5.243   0.580  11.777  1.1306 -0.1281 -2.1035
18531TIP3   OH277007   2.210   6.668  13.928  0.2582 -0.1224 -0.3982
18531TIP3    H177008   2.251   6.663  13.842 -0.5276 -1.3230 -0.7244
18531TIP3    H277009   2.283   6.660  13.990  0.6713 -0.8189 -0.9618
18532TIP3   OH277010   2.626   0.623   6.139 -0.5948  0.2729  0.5850
18532TIP3    H177011   2.559   0.667   6.190  1.5988  2.2613  1.9700
18532TIP3    H277012   2.623   0.532   6.169 -3.5142 -0.0758 -0.4587
18533TIP3   OH277013   3.759   5.505   4.205 -0.7490  0.0012  0.2097
18533TIP3    H177014   3.834   5.454   4.174 -1.6153 -0.5655 -1.0692
18533TIP3    H277015   3.695   5.439   4.233 -1.5416  0.3842 -0.6374
18534TIP3   OH277016   1.378   0.141   4.883  0.4767 -0.7042  0.7018
18534TIP3    H177017   1.336   0.211   4.832  0.1050 -1.4497 -0.0283
18534TIP3    H277018   1.370   0.171   4.974 -0.9016 -0.4107  0.5158
18535TIP3   OH277019   1.256   4.074   2.243  0.1067 -0.2025 -0.6952
18535TIP3    H177020   1.249   4.163   2.207 -1.3318 -1.0307 -2.6424
18535TIP3    H277021   1.249   4.017   2.167 -0.6401 -2.0279  0.6776
18536TIP3   OH277022   4.629   0.164   0.143 -0.3820 -0.2971 -0.2979
18536TIP3    H177023   4.678   0.209   0.212 -0.3587 -0.6081 -0.1118
18536TIP3    H277024   4.661   0.203   0.062 -0.1672 -0.1678 -0.1510
18537TIP3   OH277025   3.463   2.029   1.311 -0.1998  0.5841 -0.3387
18537TIP3    H177026   3.448   1.975   1.389  0.1540  0.2063 -0.5303
18537TIP3    H277027   3.395   2.002   1.249 -0.6954  1.1261 -0.0418
18538TIP3   OH277028   2.674   5.263  12.704  0.6817 -0.4238 -0.1352
18538TIP3    H177029   2.626   5.287  12.783 -1.2191 -0.1638 -1.2988
18538TIP3    H277030   2.663   5.168  12.698  0.2586 -0.3635 -0.4057
18539TIP3   OH277031   5.908   6.075   5.233 -0.0091  0.3551  0.0369
18539TIP3    H177032   5.994   6.061   5.194 -0.4619 -1.8870 -0.3481
18539TIP3    H277033   5.847   6.032   5.173 -1.1269 -0.1102  1.4302
18540TIP3   OH277034   6.062   1.750  13.622  0.3049  0.1830  0.2755
18540TIP3    H177035   6.020   1.670  13.590 -0.9889  1.2019 -0.6938
18540TIP3    H277036   5.989   1.809  13.642  1.2156  0.8923  1.6348
18541TIP3   OH277037   3.369   6.010  11.718  0.3481  0.4969  0.1401
18541TIP3    H177038   3.437   5.969  11.664 -1.1953  0.3495 -1.8131
18541TIP3    H277039   3.387   5.980  11.807  1.9485 -0.7330 -0.5529
18542TIP3   OH277040   0.802   2.654   2.900 -0.2826  0.5048 -0.0082
18542TIP3    H177041   0.883   2.679   2.946  0.0408  0.2105 -0.4135
18542TIP3    H277042   0.743   2.627   2.970 -1.5393  4.5676  0.7901
18543TIP3   OH277043   0.841   2.125  11.298  0.1574  0.5352  0.0351
18543TIP3    H177044   0.937   2.133  11.294  0.6215 -3.4156 -0.5867
18543TIP3    H277045   0.818   2.070  11.224 -2.4170 -0.0661  1.1656
18544TIP3   OH277046   2.975   3.087   3.288 -0.5688 -0.0137 -0.0974
18544TIP3    H177047   3.036   3.029   3.243  1.5204  1.2511  0.9175
18544TIP3    H277048   2.913   3.114   3.220 -0.2186 -1.6153 -1.0986
18545TIP3   OH277049   2.368   4.738   3.954  0.4196 -0.4470 -0.0849
18545TIP3    H177050   2.343   4.688   3.877  2.2217 -0.9253 -0.4069
18545TIP3    H277051   2.402   4.673   4.015  1.5700  0.2089  0.0134
18546TIP3   OH277052   2.886   0.259   3.059  0.1690 -0.8114  0.7472
18546TIP3    H177053   2.810   0.205   3.082  1.0909 -1.8714  1.3654
18546TIP3    H277054   2.961   0.201   3.069  0.9759 -0.2038 -1.2113
18547TIP3   OH277055   0.470   6.643  13.852  0.3787  0.4478 -0.1461
18547TIP3    H177056   0.401   6.697  13.814  0.1442  0.1838 -0.0924
18547TIP3    H277057   0.550   6.694  13.838  0.1820  0.7297 -0.2514
18548TIP3   OH277058   5.256   5.055  17.242 -0.8511 -0.2965 -0.0115
18548TIP3    H177059   5.313   5.095  17.177 -0.9625 -0.6615 -0.3375
18548TIP3    H277060   5.316   5.006  17.299 -0.7527  0.0327  0.1669
18549TIP3   OH277061   6.393   6.284  16.695 -0.7630 -0.3020 -0.2167
18549TIP3    H177062   6.452   6.209  16.692  0.0404  0.3333 -0.6792
18549TIP3    H277063   6.352   6.279  16.781  0.2622 -0.5321  0.2778
18550TIP3   OH277064   2.691   3.377  15.375 -0.2359 -0.8020  0.1128
18550TIP3    H177065   2.617   3.413  15.327  0.3175 -0.4740 -0.5180
18550TIP3    H277066   2.676   3.404  15.466 -0.9974 -0.9301  0.0275
18551TIP3   OH277067   2.182   6.512   2.084  0.7413  0.7221 -0.3831
18551TIP3    H177068   2.207   6.536   1.995  1.9485 -1.0412 -0.5673
18551TIP3    H277069   2.238   6.567   2.140  0.3794  1.4293 -0.7072
18552TIP3   OH277070   0.885   5.304   4.990 -0.0616 -0.3354  0.4038
18552TIP3    H177071   0.928   5.329   5.072  1.0316  0.9942 -0.5282
18552TIP3    H277072   0.795   5.333   5.000  0.5806  1.8221  0.3213
18553TIP3   OH277073   3.003   5.054   3.906 -0.4570  0.5602  0.3420
18553TIP3    H177074   2.936   5.122   3.912 -2.7140 -1.5138  0.3334
18553TIP3    H277075   3.077   5.097   3.864 -0.9532  3.5290  2.2116
18554TIP3   OH277076   4.496   0.381   5.906  0.4378 -0.2512 -0.3200
18554TIP3    H177077   4.585   0.346   5.907  1.3536  1.9261  0.4620
18554TIP3    H277078   4.504   0.463   5.857 -0.1419  2.1557  3.2245
18555TIP3   OH277079   4.702   6.456   0.047 -0.1159  0.1076 -0.2805
18555TIP3    H177080   4.641   6.408   0.102 -1.2768 -0.8181 -2.2532
18555TIP3    H277081   4.648   6.523   0.004  0.4334 -0.0679 -1.2905
18556TIP3   OH277082   1.879   6.374  14.133 -0.4509 -0.0271  0.4462
18556TIP3    H177083   1.856   6.282  14.145  2.0474 -0.5421  2.0296
18556TIP3    H277084   1.973   6.373  14.115 -0.2527  2.2410  1.0390
18557TIP3   OH277085   6.446   5.071  11.933  0.0053  0.4978  0.1947
18557TIP3    H177086   6.357   5.095  11.960 -0.3632 -0.4055 -0.1498
18557TIP3    H277087   6.471   5.001  11.993  0.0150 -0.0637 -0.4560
18558TIP3   OH277088   3.525   1.890  14.479 -0.4338 -0.4693 -0.7906
18558TIP3    H177089   3.538   1.795  14.480 -0.9970 -0.5711 -1.9950
18558TIP3    H277090   3.497   1.910  14.390  0.9967  1.0169 -0.9588
18559TIP3   OH277091   4.437   1.560  12.485 -0.0624  0.4291 -0.1915
18559TIP3    H177092   4.451   1.636  12.542  3.0792  0.1818 -0.4666
18559TIP3    H277093   4.522   1.516  12.482 -1.5202 -2.6532 -0.7535
18560TIP3   OH277094   1.027   2.347  16.605  0.5198 -0.1457  0.1308
18560TIP3    H177095   0.991   2.296  16.677  0.7707  2.0102  1.9006
18560TIP3    H277096   1.119   2.357  16.626  1.0496 -1.0833 -1.5506
18561TIP3   OH277097   6.042   2.306   5.788  0.1545  0.8153  0.0013
18561TIP3    H177098   6.013   2.276   5.702 -0.5101  1.5492 -0.0424
18561TIP3    H277099   6.125   2.351   5.771  1.2008 -1.0035  0.0830
18562TIP3   OH277100   2.660   0.189   2.077 -0.0368  0.4511 -0.3180
18562TIP3    H177101   2.654   0.149   1.990  0.4502  0.6279 -0.4385
18562TIP3    H277102   2.743   0.237   2.075  0.5716 -0.5123  0.6384
18563TIP3   OH277103   4.578   4.771   2.287  0.0503  0.0628  0.0085
18563TIP3    H177104   4.666   4.797   2.261  0.1924 -0.6901 -0.2795
18563TIP3    H277105   4.569   4.681   2.254 -0.5232 -0.1544  0.7503
18564TIP3   OH277106   5.334   0.300  11.999 -0.5533  0.4665 -0.3558
18564TIP3    H177107   5.396   0.258  11.939 -1.1959 -0.0514 -0.6671
18564TIP3    H277108   5.364   0.391  12.002  1.9936 -0.3049  1.7940
18565TIP3   OH277109   4.899   0.468   4.046  0.1689 -0.2433  0.2864
18565TIP3    H177110   4.882   0.388   4.096  1.2399  0.4157  1.7753
18565TIP3    H277111   4.858   0.537   4.098  0.6756  0.3730 -0.1291
18566TIP3   OH277112   0.017   0.645   5.103 -0.5567  0.2521  0.5163
18566TIP3    H177113  -0.048   0.715   5.107 -1.0619 -0.2422  1.1137
18566TIP3    H277114  -0.019   0.575   5.157  0.6952  0.1423  1.2587
18567TIP3   OH277115   1.075   4.067   2.484 -0.6251  0.2119  0.2774
18567TIP3    H177116   1.100   4.044   2.394  1.0932  1.1785  0.4782
18567TIP3    H277117   0.979   4.062   2.483 -0.7060  0.9173 -1.8258
18568TIP3   OH277118   0.477   2.412  10.173 -0.4726  0.3077 -0.4458
18568TIP3    H177119   0.391   2.422  10.133 -0.3825 -1.6239 -1.1978
18568TIP3    H277120   0.512   2.331  10.137  1.3160  0.5943  0.5059
18569TIP3   OH277121   0.499   6.168  10.919  0.5546  0.4945 -0.6397
18569TIP3    H177122   0.467   6.256  10.934 -0.0671  0.1643  0.0234
18569TIP3    H277123   0.426   6.122  10.878  0.8576  0.2682 -0.9369
18570TIP3   OH277124   2.478   6.605  16.695  0.1083 -1.0186 -0.5693
18570TIP3    H177125   2.457   6.622  16.603 -2.0614 -0.9327 -0.1037
18570TIP3    H277126   2.490   6.692  16.734 -2.0323 -0.8489 -0.1566
18571TIP3   OH277127   1.662   3.908  16.881  0.2044 -0.1431  0.2147
18571TIP3    H177128   1.627   3.930  16.794  0.0624 -1.8810 -0.1932
18571TIP3    H277129   1.658   3.813  16.886  3.1628 -0.3279  0.8935
18572TIP3   OH277130   5.818   4.405  15.732 -0.0939  0.2432  0.3537
18572TIP3    H177131   5.793   4.444  15.648  0.2506 -0.3103 -0.0110
18572TIP3    H277132   5.753   4.336  15.747 -0.2323  0.4267  0.6103
18573TIP3   OH277133   5.177   4.438   3.135  0.2350  0.0875 -0.1178
18573TIP3    H177134   5.254   4.490   3.157 -1.1370  1.1410  2.7711
18573TIP3    H277135   5.105   4.501   3.133 -0.9124 -1.1684 -0.4773
18574TIP3   OH277136   5.135   6.087  17.284 -0.7558 -0.3673  0.7880
18574TIP3    H177137   5.059   6.146  17.290 -0.0516  0.4026  2.7167
18574TIP3    H277138   5.175   6.090  17.371  1.9942 -0.0939 -0.3817
18575TIP3   OH277139   5.687   3.550   1.595 -0.6346 -0.3168 -0.0209
18575TIP3    H177140   5.741   3.473   1.613  4.1615  2.0250 -2.5559
18575TIP3    H277141   5.634   3.524   1.519 -0.7955 -1.7529  0.5500
18576TIP3   OH277142   3.915   1.833  10.706 -0.8693 -0.0387  0.0408
18576TIP3    H177143   3.881   1.890  10.775  1.8093  1.0741  0.5464
18576TIP3    H277144   3.971   1.889  10.653  2.1703 -2.1541  0.7754
18577TIP3   OH277145   3.877   3.844   4.967 -0.8370 -0.4515 -0.0175
18577TIP3    H177146   3.800   3.844   5.025 -1.2823 -0.3784 -0.6051
18577TIP3    H277147   3.865   3.767   4.911  0.1986 -1.2129  0.7681
18578TIP3   OH277148   5.160   0.512  16.524 -0.2740 -0.1733 -0.4923
18578TIP3    H177149   5.164   0.465  16.441  0.0125  0.6015 -0.9247
18578TIP3    H277150   5.071   0.547  16.527 -0.0701  0.3906 -0.8133
18579TIP3   OH277151   6.384   0.410  14.291  0.2688  0.3003 -0.1451
18579TIP3    H177152   6.333   0.441  14.366  0.8938  1.4980 -0.1927
18579TIP3    H277153   6.389   0.315  14.303  1.1788  0.5514  1.8511
18580TIP3   OH277154   0.416   2.281   5.246 -0.0068  0.8530  0.1056
18580TIP3    H177155   0.467   2.284   5.164 -1.7353  1.9234 -1.0075
18580TIP3    H277156   0.478   2.252   5.312  1.9298  1.6595 -1.2585
18581TIP3   OH277157   4.881   3.394   0.036  0.3311 -0.3919  0.6410
18581TIP3    H177158   4.851   3.481   0.009  2.3771  0.4528  0.9092
18581TIP3    H277159   4.921   3.408   0.122 -1.4517 -2.0909  1.8388
18582TIP3   OH277160   0.170   0.643  14.731 -0.2183  0.4357 -0.5562
18582TIP3    H177161   0.148   0.578  14.798  1.2905  2.1971  1.7723
18582TIP3    H277162   0.090   0.694  14.720 -0.1865  0.7648  0.6774
18583TIP3   OH277163   6.474   3.024  16.491  0.3599  0.4511  0.2468
18583TIP3    H177164   6.403   2.980  16.444 -1.0676  1.1763  1.6611
18583TIP3    H277165   6.505   2.959  16.554 -0.2804  0.7349  0.8586
18584TIP3   OH277166   0.278   2.766  15.049 -0.6633  0.3137  0.0192
18584TIP3    H177167   0.372   2.769  15.033  0.1957 -2.3643  3.4413
18584TIP3    H277168   0.258   2.853  15.085  0.7960  0.5153  0.4274
18585TIP3   OH277169   1.631   6.001   2.920 -0.1972  0.0427 -0.7797
18585TIP3    H177170   1.550   5.955   2.900  0.0331 -0.3540 -0.8155
18585TIP3    H277171   1.607   6.093   2.920 -1.0140 -0.1397  0.8288
18586TIP3   OH277172   1.330   0.244   2.412 -0.3394 -0.4175  0.6845
18586TIP3    H177173   1.291   0.213   2.495 -0.1417 -1.5585  0.3760
18586TIP3    H277174   1.375   0.167   2.377  3.0653  1.0283  1.4670
18587TIP3   OH277175   2.442   5.367   1.865 -0.6596  0.1574  0.2933
18587TIP3    H177176   2.370   5.337   1.809 -0.8746  0.0067  0.6451
18587TIP3    H277177   2.493   5.288   1.883 -0.3987  0.2648  0.0433
18588TIP3   OH277178   3.255   2.972  16.878 -0.1623  0.1786 -0.4133
18588TIP3    H177179   3.209   3.025  16.813 -0.3968  0.0889 -0.3176
18588TIP3    H277180   3.347   2.978  16.852 -0.4079 -1.1260 -1.6922
18589TIP3   OH277181   3.365   6.767   3.755  0.3069 -0.2301  0.0669
18589TIP3    H177182   3.362   6.822   3.677  0.1746 -1.0785 -0.5391
18589TIP3    H277183   3.308   6.811   3.817  0.6368  0.6087 -0.2098
18590TIP3   OH277184   5.806   2.768   2.351 -0.2464 -0.0017 -0.4184
18590TIP3    H177185   5.753   2.845   2.368  2.0980  1.6653 -0.2098
18590TIP3    H277186   5.821   2.770   2.256  0.6824  0.4548 -0.2784
18591TIP3   OH277187   3.902   3.756   5.978 -0.4977 -0.3559  0.1038
18591TIP3    H177188   3.913   3.663   5.998 -2.0627 -0.4358  0.8024
18591TIP3    H277189   3.913   3.800   6.062  1.1082  0.1985 -0.3800
18592TIP3   OH277190   2.856   2.891  16.254 -0.0791  0.5441  0.2000
18592TIP3    H177191   2.877   2.830  16.325 -0.1987  0.2718  0.0000
18592TIP3    H277192   2.938   2.902  16.207  0.2834  1.5933  1.0443
18593TIP3   OH277193   3.840   6.510   0.060  0.2474 -0.0429  0.0264
18593TIP3    H177194   3.841   6.532   0.153  0.3930  3.1673 -0.6119
18593TIP3    H277195   3.767   6.559   0.024  1.0415 -0.0891 -1.7653
18594TIP3   OH277196   5.628   6.498  17.243  0.0708 -0.8187  0.1567
18594TIP3    H177197   5.620   6.515  17.336  0.1880  0.2898 -0.0263
18594TIP3    H277198   5.588   6.412  17.230 -1.6518 -0.1590  0.9240
18595TIP3   OH277199   1.693   3.925  11.434 -0.1757 -0.3900  0.7021
18595TIP3    H177200   1.605   3.900  11.407  0.6612 -2.6438 -0.1779
18595TIP3    H277201   1.745   3.921  11.354  0.7193  1.1079  1.1609
18596TIP3   OH277202   5.480   3.399  12.069  0.2529 -0.6503 -0.3112
18596TIP3    H177203   5.394   3.380  12.032 -0.3905  1.2512  0.0654
18596TIP3    H277204   5.461   3.432  12.157  1.5435 -2.1626  0.5860
18597TIP3   OH277205   3.030   2.581  13.446 -0.2600  0.4524  0.1068
18597TIP3    H177206   3.000   2.527  13.373 -0.3115  1.8337 -0.9386
18597TIP3    H277207   2.951   2.625  13.477 -0.0382  0.7949  0.1934
18598TIP3   OH277208   1.683   3.499  14.665  0.2808  0.3228 -0.0639
18598TIP3    H177209   1.633   3.550  14.602  1.7554  1.7832 -0.1181
18598TIP3    H277210   1.617   3.459  14.722 -0.9503  1.9398 -0.3015
18599TIP3   OH277211   6.106   3.685   2.665 -0.0213 -0.3356  0.1902
18599TIP3    H177212   6.189   3.648   2.636 -0.2798 -0.8344  0.0557
18599TIP3    H277213   6.129   3.764   2.713  0.5175 -0.3884  0.0208
18600TIP3   OH277214   4.876   1.485   3.912 -0.3924 -0.1384  0.1799
18600TIP3    H177215   4.878   1.533   3.829 -0.7514 -1.2586 -0.4960
18600TIP3    H277216   4.958   1.509   3.956  0.6793 -0.9250 -1.3194
18601TIP3   OH277217   4.061   2.279   2.111 -0.1693 -0.2354 -0.0691
18601TIP3    H177218   4.005   2.317   2.043 -2.5744 -1.7150  0.9354
18601TIP3    H277219   4.001   2.256   2.182  1.8621 -1.1750  1.4659
18602TIP3   OH277220   2.069   5.055   4.686 -0.5679 -0.0217  0.1640
18602TIP3    H177221   2.031   5.100   4.611 -0.3600 -0.6168 -0.3075
18602TIP3    H277222   2.005   4.988   4.709 -0.2251 -0.4402 -0.0700
18603TIP3   OH277223   4.900   1.966   0.390 -0.2340 -0.2221  0.9550
18603TIP3    H177224   4.814   1.959   0.433 -0.1644 -1.8290  0.8978
18603TIP3    H277225   4.917   1.877   0.358  1.2350  0.1996  0.5318
18604TIP3   OH277226   3.801   5.755  12.796  0.0082 -0.5036 -0.5866
18604TIP3    H177227   3.855   5.827  12.762  2.2887 -1.8124  0.1001
18604TIP3    H277228   3.725   5.753  12.737  0.0684  2.1399 -0.9027
18605TIP3   OH277229   6.374   5.163   0.561 -0.2613 -0.5902  0.1125
18605TIP3    H177230   6.442   5.109   0.602 -0.2109 -2.1755 -1.9506
18605TIP3    H277231   6.293   5.135   0.604  0.1783  0.3366  1.6147
18606TIP3   OH277232   2.934   4.037   0.206  0.3112 -0.5473  0.0546
18606TIP3    H177233   2.977   4.031   0.120  2.9667  0.1741  1.2178
18606TIP3    H277234   2.879   3.959   0.211 -1.5663  0.4036 -3.0686
18607TIP3   OH277235   5.003   0.816  14.432 -0.4603  0.2337 -0.5298
18607TIP3    H177236   5.049   0.820  14.516  0.1082  1.6456 -0.8897
18607TIP3    H277237   4.958   0.900  14.424 -1.7142 -0.4544 -0.9813
18608TIP3   OH277238   4.691   2.229  15.517  0.0562  0.2773 -0.2086
18608TIP3    H177239   4.641   2.147  15.510  2.2438 -1.0574 -1.3325
18608TIP3    H277240   4.709   2.253  15.426  0.7666  1.1638  0.1575
18609TIP3   OH277241   0.495   0.319  10.715 -0.4450  0.3033  0.4468
18609TIP3    H177242   0.489   0.365  10.799 -0.8230  1.8197 -0.3841
18609TIP3    H277243   0.407   0.324  10.679  0.0431  0.9651 -0.6915
18610TIP3   OH277244   0.365   2.232   0.487  0.1404 -0.6888  0.0234
18610TIP3    H177245   0.444   2.279   0.458  0.0103 -0.6439 -0.2580
18610TIP3    H277246   0.308   2.301   0.519  0.9818 -0.8811  2.0747
18611TIP3   OH277247   2.771   2.308  12.498  0.0469  0.1612 -0.5963
18611TIP3    H177248   2.832   2.247  12.457 -0.5089  0.3335 -1.7300
18611TIP3    H277249   2.735   2.359  12.425 -0.1379  1.2644  0.2362
18612TIP3   OH277250   3.658   3.403   6.350  0.6688  0.0439 -0.5043
18612TIP3    H177251   3.726   3.363   6.404  0.8924  0.7949 -0.2169
18612TIP3    H277252   3.665   3.359   6.265  1.4509  0.0436 -0.4464
18613TIP3   OH277253   0.896   5.591   1.892 -0.0644 -0.2055  0.3390
18613TIP3    H177254   0.821   5.570   1.836 -1.2207  2.2778  0.8239
18613TIP3    H277255   0.870   5.560   1.979 -0.8065  1.0961  0.6090
18614TIP3   OH277256   4.332   1.272  16.212 -0.6778  0.7062  0.6629
18614TIP3    H177257   4.249   1.230  16.193 -1.0445  1.1750  1.2047
18614TIP3    H277258   4.338   1.273  16.307  0.6536 -0.6770  0.6262
18615TIP3   OH277259   0.909   0.646   4.695  0.2919  0.6072  0.0840
18615TIP3    H177260   0.859   0.720   4.730  0.6922  0.2112  1.5652
18615TIP3    H277261   0.855   0.612   4.624 -1.4239  0.3549  1.4529
18616TIP3   OH277262   2.390   3.406   1.732  0.0721  0.4376  0.4730
18616TIP3    H177263   2.431   3.404   1.645 -1.6510  0.4299 -0.3660
18616TIP3    H277264   2.450   3.460   1.784  0.9991  0.6763 -0.7746
18617TIP3   OH277265   1.729   5.097  17.255  0.4744 -0.0133  0.3174
18617TIP3    H177266   1.793   5.049  17.203 -0.5341 -1.9495  0.7408
18617TIP3    H277267   1.715   5.042  17.332 -1.6335  0.3321  0.2533
18618TIP3   OH277268   2.404   5.304   2.648 -0.1804  0.4163 -0.4265
18618TIP3    H177269   2.456   5.352   2.584  2.1015  0.2772  1.2038
18618TIP3    H277270   2.337   5.365   2.676  1.9345  2.3097  0.7488
18619TIP3   OH277271   6.217   6.212  16.500  0.6802 -0.6851 -0.1635
18619TIP3    H177272   6.273   6.220  16.577 -1.8646  0.8374  1.6935
18619TIP3    H277273   6.233   6.292  16.450  0.5703 -0.5113  0.0769
18620TIP3   OH277274   2.287   5.119   0.017 -0.4145  0.2167 -0.2181
18620TIP3    H177275   2.306   5.085   0.105  0.7015 -2.2354 -1.3229
18620TIP3    H277276   2.357   5.084  -0.038 -2.4263 -0.3935 -2.5726
18621TIP3   OH277277   6.449   5.502   2.393 -0.2146  0.7023  0.3718
18621TIP3    H177278   6.484   5.450   2.321 -2.1641  1.0664 -0.8961
18621TIP3    H277279   6.444   5.442   2.467 -1.3457 -0.6230 -0.7438
18622TIP3   OH277280   3.745   3.467  12.011 -0.0148  0.0366 -0.5236
18622TIP3    H177281   3.760   3.406  12.083 -0.2466 -0.5674 -0.9729
18622TIP3    H277282   3.821   3.525  12.012 -0.3644  0.5066  0.6537
18623TIP3   OH277283   2.521   0.314  16.746  0.1815  0.7446 -0.2889
18623TIP3    H177284   2.615   0.313  16.762  0.0337 -2.0355  0.9642
18623TIP3    H277285   2.498   0.407  16.745  2.8253  1.4749 -0.0184
18624TIP3   OH277286   0.560   0.591   0.265  0.1342  0.4412 -0.0378
18624TIP3    H177287   0.639   0.551   0.227  0.7788  0.6478  1.0317
18624TIP3    H277288   0.539   0.663   0.206  0.0291 -0.3558 -0.9947
18625TIP3   OH277289   5.425   0.329   6.581  0.2656 -0.0047 -0.3781
18625TIP3    H177290   5.436   0.292   6.493  1.0473 -2.0670  0.5216
18625TIP3    H277291   5.501   0.297   6.630  0.6381  2.3057  0.7140
18626TIP3   OH277292   5.642   4.155   2.590 -0.6323  0.0011 -0.2144
18626TIP3    H177293   5.552   4.136   2.615 -0.3511 -0.2385  0.6867
18626TIP3    H277294   5.659   4.097   2.516 -1.2475  0.1248 -0.4556
18627TIP3   OH277295   0.698   6.509   2.754  0.0150 -0.8708  1.1589
18627TIP3    H177296   0.724   6.599   2.735 -0.7867 -0.5931  1.3447
18627TIP3    H277297   0.752   6.484   2.829 -0.9273  0.0386  2.1703
18628TIP3   OH277298   6.068   0.480  13.082 -0.1723 -0.1486  0.1933
18628TIP3    H177299   6.095   0.394  13.050  0.1605  0.1328 -0.2814
18628TIP3    H277300   5.984   0.463  13.125 -1.1121 -0.3782 -1.6265
18629TIP3   OH277301   5.140   1.868  15.921  0.0944 -0.3701 -0.7042
18629TIP3    H177302   5.227   1.832  15.903  2.1264  2.7533  1.6118
18629TIP3    H277303   5.140   1.953  15.878 -1.3231  0.1986  0.3334
18630TIP3   OH277304   0.007   3.769   5.937  0.6253  0.0097  0.2640
18630TIP3    H177305   0.068   3.775   6.010 -0.4377 -0.5392  1.2390
18630TIP3    H277306   0.060   3.786   5.859  2.9766 -4.3585  0.6138
18631TIP3   OH277307   3.907   4.015   1.781 -0.1768  0.1759  0.4902
18631TIP3    H177308   3.887   4.108   1.772 -0.6870  0.0343  0.1459
18631TIP3    H277309   3.824   3.970   1.768  0.3113 -0.4117 -0.7132
18632TIP3   OH277310   1.307   4.312  14.332 -0.4815 -0.5479 -0.1166
18632TIP3    H177311   1.343   4.244  14.388 -0.3101 -0.3068  0.0672
18632TIP3    H277312   1.212   4.305  14.343 -0.5652 -1.8763 -1.4061
18633TIP3   OH277313   4.600   2.659   3.964 -0.2695 -0.4074  0.6435
18633TIP3    H177314   4.687   2.661   3.924 -0.5583 -0.2616  0.0059
18633TIP3    H277315   4.614   2.690   4.053  0.3741 -0.6364  0.6298
18634TIP3   OH277316   4.656   3.575   1.449  0.0225  0.0205  0.3499
18634TIP3    H177317   4.643   3.657   1.497  1.0314  0.9888 -0.9314
18634TIP3    H277318   4.744   3.547   1.473  0.0946 -0.1003 -0.0536
18635TIP3   OH277319   6.675   0.694   4.812 -0.2826 -0.5597 -0.3746
18635TIP3    H177320   6.769   0.710   4.804 -0.1173 -0.3736  1.4107
18635TIP3    H277321   6.640   0.775   4.849 -1.0611 -0.7974 -0.5793
18636TIP3   OH277322   4.104   1.879  11.369 -0.0346  0.2197  0.3043
18636TIP3    H177323   4.027   1.902  11.316 -0.4448 -0.7050  0.4728
18636TIP3    H277324   4.113   1.784  11.357 -0.9557 -0.2802  2.9132
18637TIP3   OH277325   1.590   4.159  16.967 -0.3412 -0.5456  0.1307
18637TIP3    H177326   1.612   4.068  16.947  1.4484 -0.3332  0.9671
18637TIP3    H277327   1.644   4.181  17.043  0.1591  1.5878 -0.7578
18638TIP3   OH277328   2.494   3.877   3.201 -0.0254  0.0079  0.1080
18638TIP3    H177329   2.493   3.888   3.106  0.8805  0.3744  0.1307
18638TIP3    H277330   2.420   3.929   3.232  0.1508  0.5383 -0.3390
18639TIP3   OH277331   5.166   4.379   6.554 -0.3664 -0.1114  0.2998
18639TIP3    H177332   5.190   4.304   6.501 -3.4539 -1.3536  0.4597
18639TIP3    H277333   5.088   4.415   6.511  0.8833  2.9274  0.3504
18640TIP3   OH277334   3.348   0.186   5.524 -0.0385  0.3395 -0.0846
18640TIP3    H177335   3.311   0.243   5.456 -1.3045 -0.1763  0.1374
18640TIP3    H277336   3.412   0.241   5.569  0.3957  0.8682 -1.3033
18641TIP3   OH277337   6.654   1.331   0.826  0.0576  1.2323  0.0124
18641TIP3    H177338   6.642   1.403   0.888  1.5818  2.9097 -1.5213
18641TIP3    H277339   6.705   1.266   0.875 -0.1471  1.7741  0.9865
18642TIP3   OH277340   4.742   5.266  12.282 -0.1341 -0.3166 -0.0394
18642TIP3    H177341   4.726   5.193  12.223  3.0171 -1.9499  0.8879
18642TIP3    H277342   4.707   5.238  12.366 -0.3878 -0.0428 -0.0515
18643TIP3   OH277343   0.850   0.485   4.164  0.0856 -0.3003  0.0919
18643TIP3    H177344   0.873   0.403   4.120  0.3907 -0.6322  0.8529
18643TIP3    H277345   0.852   0.464   4.257  2.2966  1.0929  0.4297
18644TIP3   OH277346   0.429   5.885  15.513 -0.4904 -0.3863 -0.1056
18644TIP3    H177347   0.379   5.966  15.521  1.5567  0.9206  0.2373
18644TIP3    H277348   0.467   5.871  15.599  2.2296  0.4419 -1.0708
18645TIP3   OH277349   6.121   0.171   3.676  0.4651 -0.5879  0.0540
18645TIP3    H177350   6.166   0.180   3.759  0.0849  0.2857  0.1828
18645TIP3    H277351   6.050   0.109   3.693  0.3085 -0.3129  0.4238
18646TIP3   OH277352   0.428   5.566   0.296 -0.0148 -0.0636  0.2587
18646TIP3    H177353   0.342   5.604   0.281  0.2438 -0.1258 -1.6354
18646TIP3    H277354   0.483   5.641   0.322 -0.1884  0.3340 -0.4978
18647TIP3   OH277355   4.919   0.730  12.493 -0.1582  0.7651 -0.0506
18647TIP3    H177356   4.889   0.769  12.411 -1.2115  0.7261  0.2904
18647TIP3    H277357   4.998   0.681  12.470 -0.6321  0.4706 -1.1055
18648TIP3   OH277358   5.559   2.498  12.941 -0.6875 -0.1569 -0.3056
18648TIP3    H177359   5.469   2.521  12.963 -1.2265  0.0923 -2.5681
18648TIP3    H277360   5.610   2.525  13.018 -2.1694  2.3802 -0.0881
18649TIP3   OH277361   4.609   4.073  15.338 -0.4957 -0.2574 -0.5872
18649TIP3    H177362   4.643   4.129  15.268 -0.1377  1.9851  1.2620
18649TIP3    H277363   4.553   4.131  15.390 -0.5984 -1.7750  1.0852
18650TIP3   OH277364   2.574   5.812   2.348 -0.5322  0.3521  0.8677
18650TIP3    H177365   2.561   5.821   2.253 -1.2268  4.0111  1.1789
18650TIP3    H277366   2.593   5.901   2.378  1.3400 -0.9504  3.9948
18651TIP3   OH277367   4.405   4.495   5.923  0.7663  0.0717 -0.5519
18651TIP3    H177368   4.426   4.582   5.889 -0.1844  0.1204 -1.0399
18651TIP3    H277369   4.337   4.461   5.864 -1.0269  0.1975  1.3382
18652TIP3   OH277370   6.639   6.382  12.104  0.3007 -0.2996 -1.1479
18652TIP3    H177371   6.555   6.359  12.143  0.6453  0.7304  0.2922
18652TIP3    H277372   6.617   6.445  12.035 -0.0650  0.7648 -0.0893
18653TIP3   OH277373   2.583   3.092  15.466  0.2524 -0.6126 -0.1478
18653TIP3    H177374   2.519   3.149  15.421 -1.7570 -1.5212  1.4192
18653TIP3    H277375   2.595   3.133  15.551  0.3278 -1.4604  0.2523
18654TIP3   OH277376   0.077   2.500   0.330 -0.2254  0.6958 -1.0435
18654TIP3    H177377   0.172   2.490   0.341 -0.4241 -1.9377 -0.9559
18654TIP3    H277378   0.061   2.475   0.239 -0.9917 -0.6973 -0.5471
18655TIP3   OH277379   0.952   0.524   5.567  0.5598  0.4047 -0.6695
18655TIP3    H177380   1.005   0.472   5.627 -0.5317  0.2227  0.1928
18655TIP3    H277381   0.968   0.615   5.594  0.2111  0.3334 -0.2000
18656TIP3   OH277382   6.281   0.598   5.026  0.1273 -0.0659 -0.0141
18656TIP3    H177383   6.357   0.649   5.053  0.7759 -0.3458 -1.2324
18656TIP3    H277384   6.283   0.520   5.081  1.3532 -0.5699 -0.7182
18657TIP3   OH277385   0.900   0.780  11.108  0.3882 -0.3162 -0.5773
18657TIP3    H177386   0.856   0.828  11.178  2.4629  1.2741 -0.2631
18657TIP3    H277387   0.858   0.811  11.027 -1.7167 -1.8335 -0.1387
18658TIP3   OH277388   6.230   5.742  13.562  0.1287 -0.2034  0.2694
18658TIP3    H177389   6.164   5.673  13.560  0.4241 -0.5074  0.8203
18658TIP3    H277390   6.288   5.721  13.488 -0.5602  0.2506 -0.4168
18659TIP3   OH277391   2.485   3.515  15.185 -0.1942  0.7140  0.0004
18659TIP3    H177392   2.505   3.485  15.096 -1.6243  1.1174 -0.4722
18659TIP3    H277393   2.390   3.510  15.191 -0.0289 -2.5241  2.6332
18660TIP3   OH277394   4.090   2.023  16.861  0.0880 -0.5925 -0.7140
18660TIP3    H177395   4.044   1.961  16.805 -1.0861 -0.1799 -0.2381
18660TIP3    H277396   4.159   1.972  16.903 -1.4376 -1.8119  0.3889
18661TIP3   OH277397   3.201   1.859  17.129 -0.0727 -0.1297 -0.0360
18661TIP3    H177398   3.215   1.833  17.220  1.1788  2.3880  0.5675
18661TIP3    H277399   3.137   1.796  17.096  2.4924 -3.7461  1.2912
18662TIP3   OH277400   5.704   2.601   1.212 -0.1451 -0.8170 -0.2052
18662TIP3    H177401   5.798   2.586   1.218 -0.0103 -0.1364 -0.5578
18662TIP3    H277402   5.690   2.683   1.259 -0.4671 -0.5809 -0.7048
18663TIP3   OH277403   1.420   4.245  14.918  0.0184  0.0935 -0.0349
18663TIP3    H177404   1.372   4.163  14.906  1.1760 -0.5980 -0.0516
18663TIP3    H277405   1.460   4.262  14.832 -1.6014  1.6116 -0.5477
18664TIP3   OH277406   3.689   5.260   5.057 -0.2166 -0.3041  0.4864
18664TIP3    H177407   3.715   5.243   4.966 -1.8011 -1.2965  0.1902
18664TIP3    H277408   3.724   5.348   5.075  2.0839 -0.9614 -0.3027
18665TIP3   OH277409   3.474   3.312   4.721 -0.0075  0.1738  0.2132
18665TIP3    H177410   3.423   3.309   4.802 -1.2658 -2.0682 -0.5637
18665TIP3    H277411   3.476   3.221   4.691  0.6441  0.8996 -2.1475
18666TIP3   OH277412   2.746   0.035   4.300 -0.3228  0.3091 -0.5051
18666TIP3    H177413   2.754   0.033   4.204 -1.3145 -0.3541 -0.5875
18666TIP3    H277414   2.760   0.127   4.323  0.0015  0.4674 -1.2754
18667TIP3   OH277415   1.125   6.764   3.106  0.2646  0.2411  0.7047
18667TIP3    H177416   1.217   6.770   3.131  0.4011  0.8361  0.0718
18667TIP3    H277417   1.127   6.724   3.019 -0.0873  0.0461  0.7869
18668TIP3   OH277418   6.438   0.750  15.034  0.0954  0.4070  0.0487
18668TIP3    H177419   6.385   0.736  15.112 -0.8385 -1.0263 -0.8120
18668TIP3    H277420   6.445   0.664  14.993  3.0587  0.5185  0.0643
18669TIP3   OH277421   4.982   2.248  16.076 -0.4745 -0.1564  0.0428
18669TIP3    H177422   4.951   2.317  16.135 -1.2643 -0.9839  0.6437
18669TIP3    H277423   5.077   2.254  16.079 -0.4441 -0.7530  2.1927
18670TIP3   OH277424   0.569   3.113  10.823 -0.0217  0.0680 -0.0468
18670TIP3    H177425   0.663   3.118  10.806 -0.1949  1.5201 -0.6956
18670TIP3    H277426   0.539   3.042  10.766  0.2990  1.2293 -1.7255
18671TIP3   OH277427   2.680   6.523  13.088 -0.2531  0.0876  0.2637
18671TIP3    H177428   2.678   6.538  12.993 -0.7724 -0.1013  0.2412
18671TIP3    H277429   2.593   6.489  13.108 -0.4506  0.9802  0.9465
18672TIP3   OH277430   0.734   1.892  14.256 -0.0552 -0.0520  0.0944
18672TIP3    H177431   0.721   1.923  14.345  0.1711  3.0372 -0.8108
18672TIP3    H277432   0.646   1.873  14.223 -0.3280  0.5658  0.4460
18673TIP3   OH277433   6.768   2.155   4.819  0.0363  0.4659  0.5794
18673TIP3    H177434   6.746   2.070   4.859 -0.3648  0.7111  0.8847
18673TIP3    H277435   6.852   2.140   4.775 -0.8406 -0.5816 -0.8571
18674TIP3   OH277436   3.985   0.137  14.366 -0.1175  0.5555  0.0161
18674TIP3    H177437   3.998   0.048  14.397 -1.3956 -0.0160 -0.9720
18674TIP3    H277438   4.049   0.148  14.296 -0.5264  0.0898 -0.4389
18675TIP3   OH277439   2.598   1.712   0.179 -0.2646  0.2074 -0.4516
18675TIP3    H177440   2.607   1.758   0.095  2.1326 -0.8160 -0.8427
18675TIP3    H277441   2.656   1.760   0.238  1.9724 -1.9077 -0.7650
18676TIP3   OH277442   4.727   4.494   5.838  0.1410 -0.0116 -0.0263
18676TIP3    H177443   4.726   4.405   5.803 -1.4189 -0.4415  0.9931
18676TIP3    H277444   4.735   4.483   5.933  0.6003  0.9604  0.0636
18677TIP3   OH277445   3.964   6.077   3.752 -0.6386 -0.0733  0.4236
18677TIP3    H177446   3.968   6.027   3.834  0.6162  1.3585  1.2793
18677TIP3    H277447   4.051   6.070   3.715 -0.7364  0.6437  0.0464
18678TIP3   OH277448   0.692   3.607  11.582 -0.2657  0.4284 -0.1614
18678TIP3    H177449   0.754   3.680  11.583  1.2092 -0.7760  1.5023
18678TIP3    H277450   0.650   3.613  11.496  3.2853  0.4035 -2.1183
18679TIP3   OH277451   6.363   2.546   1.073  0.0514 -0.0764  0.2400
18679TIP3    H177452   6.422   2.579   1.005  0.1155 -0.8775 -0.1070
18679TIP3    H277453   6.289   2.510   1.025 -0.0995 -0.2670  0.6136
18680TIP3   OH277454   0.756   2.557  11.095 -0.3789  0.4898 -0.1977
18680TIP3    H177455   0.813   2.527  11.024 -0.7550  2.4330 -1.3919
18680TIP3    H277456   0.795   2.639  11.124 -0.8453  0.2551  1.1326
18681TIP3   OH277457   2.490   3.636   2.146 -0.5004  0.3625  0.3765
18681TIP3    H177458   2.565   3.647   2.204 -0.7120  0.6730  0.5914
18681TIP3    H277459   2.455   3.724   2.134  0.3307  0.5006 -1.2792
18682TIP3   OH277460   5.089   0.360  13.516 -0.0505 -1.0068  0.3977
18682TIP3    H177461   5.040   0.293  13.564  0.5744 -0.5520  1.6892
18682TIP3    H277462   5.111   0.317  13.433 -0.6575 -1.9996  0.7273
18683TIP3   OH277463   4.986   2.875  11.724  0.3310 -0.3438 -0.1008
18683TIP3    H177464   5.027   2.951  11.685  0.2439 -0.1637  0.1578
18683TIP3    H277465   4.937   2.909  11.799 -0.1482 -0.5751 -0.2976
18684TIP3   OH277466   3.653   0.045  12.491  1.0216 -0.6815  0.8146
18684TIP3    H177467   3.686   0.133  12.508  0.7639 -0.3591 -0.2797
18684TIP3    H277468   3.732  -0.006  12.471  1.1083 -0.5405  0.7911
18685TIP3   OH277469   6.655   1.424   3.397  0.0024 -0.5056 -0.0681
18685TIP3    H177470   6.697   1.465   3.473 -0.7444 -1.0798  0.6655
18685TIP3    H277471   6.715   1.354   3.371  0.4858 -0.0091 -0.3088
18686TIP3   OH277472   4.647   3.287   5.390  0.4617  0.5862 -0.0375
18686TIP3    H177473   4.640   3.345   5.466 -0.8194 -1.3760  1.4256
18686TIP3    H277474   4.596   3.331   5.321 -0.4213  1.2308  0.9962
18687TIP3   OH277475   0.306   1.155   4.282  0.2001  0.0491  0.4041
18687TIP3    H177476   0.334   1.205   4.358 -1.9507 -1.2441  2.1797
18687TIP3    H277477   0.226   1.198   4.252  0.4904 -0.0351 -0.5392
18688TIP3   OH277478   0.355   3.933   1.982  0.6132  0.0831  0.4041
18688TIP3    H177479   0.390   3.856   1.937  1.8326  1.4507 -1.0924
18688TIP3    H277480   0.422   3.955   2.047  0.5007  0.1734  0.4893
18689TIP3   OH277481   6.494   4.348  12.421  0.1728  0.1629 -0.3980
18689TIP3    H177482   6.568   4.312  12.469 -0.0998  1.1029  0.7549
18689TIP3    H277483   6.507   4.443  12.424 -0.7201  0.3061 -0.7615
18690TIP3   OH277484   1.675   1.430   3.739 -0.5197  0.2303  0.0649
18690TIP3    H177485   1.650   1.443   3.831 -0.0098 -0.8062  0.3709
18690TIP3    H277486   1.632   1.348   3.714 -2.3906  1.5578 -1.2997
18691TIP3   OH277487   6.387   0.214   3.889 -0.0981 -0.4362  0.0218
18691TIP3    H177488   6.465   0.213   3.833  1.3110 -0.9215  1.8790
18691TIP3    H277489   6.377   0.307   3.913 -0.4689 -0.2849 -0.6946
18692TIP3   OH277490   2.984   0.722   5.888 -0.2450 -0.4051  0.5451
18692TIP3    H177491   2.910   0.771   5.853 -0.8368 -1.2856  0.5327
18692TIP3    H277492   2.944   0.646   5.931  0.6615 -1.0556  0.2703
18693TIP3   OH277493   6.269   2.287  15.157  0.1889  0.1209 -0.1561
18693TIP3    H177494   6.233   2.215  15.105  1.9154 -0.6523 -0.3579
18693TIP3    H277495   6.250   2.264  15.248  0.5825 -0.5258 -0.2310
18694TIP3   OH277496   2.002   0.564  15.527 -0.0751 -0.1234  0.2315
18694TIP3    H177497   1.914   0.602  15.520  0.8242  2.0052 -0.2168
18694TIP3    H277498   2.016   0.552  15.621 -1.2237 -1.5723  0.2689
18695TIP3   OH277499   4.146   5.958  13.051  0.0743 -0.6217 -0.3413
18695TIP3    H177500   4.180   5.877  13.088 -2.5488 -1.5446  0.2685
18695TIP3    H277501   4.055   5.963  13.082 -0.4485  1.5679 -1.9304
18696TIP3   OH277502   4.811   6.531  16.733  0.5176  1.0295 -0.2068
18696TIP3    H177503   4.897   6.490  16.742  0.8402  1.2722 -1.8891
18696TIP3    H277504   4.756   6.487  16.798  1.2672 -0.9264 -0.8507
18697TIP3   OH277505   5.608   6.735  10.713  0.1964 -0.4024  0.0178
18697TIP3    H177506   5.551   6.658  10.716 -0.0384 -0.2324 -0.0206
18697TIP3    H277507   5.673   6.714  10.646 -1.7940  0.7410 -2.4421
18698TIP3   OH277508   0.271   5.661  13.930 -0.2749 -0.2822  0.3734
18698TIP3    H177509   0.204   5.687  13.867  0.4561  1.0319  0.1042
18698TIP3    H277510   0.260   5.721  14.004  0.1379 -0.5276  0.6434
18699TIP3   OH277511   1.293   6.144  11.704 -0.0377  0.1304  0.0746
18699TIP3    H177512   1.231   6.165  11.634  0.8188 -0.0619 -0.7777
18699TIP3    H277513   1.294   6.221  11.760 -0.0431  0.6828 -0.6717
18700TIP3   OH277514   2.640   4.039  12.310  0.6529 -0.8728  0.5215
18700TIP3    H177515   2.673   4.104  12.248  1.8965  0.9567  2.8947
18700TIP3    H277516   2.545   4.048  12.306  0.7497 -0.0066 -0.3309
18701TIP3   OH277517   5.962   5.828  12.387  0.1288 -0.3395  0.0165
18701TIP3    H177518   5.946   5.741  12.424  0.0690 -0.0755  0.6113
18701TIP3    H277519   5.875   5.867  12.379  0.0929 -0.5945 -0.8973
18702TIP3   OH277520   0.056   1.166  11.582 -0.2199 -0.0900  0.5750
18702TIP3    H177521  -0.021   1.221  11.568 -0.2299 -0.3352 -0.3857
18702TIP3    H277522   0.104   1.169  11.500  0.6645 -0.1623  1.0731
18703TIP3   OH277523   1.896   0.534  11.191 -0.3313 -0.4842 -0.4582
18703TIP3    H177524   1.888   0.613  11.244  0.5760 -1.1425  0.7203
18703TIP3    H277525   1.946   0.561  11.114 -1.3572  0.4095 -0.8410
18704TIP3   OH277526   2.011   6.753   0.759  0.1245  0.2158  0.0144
18704TIP3    H177527   2.091   6.717   0.721 -0.6955 -2.3995  0.5896
18704TIP3    H277528   1.960   6.783   0.683  0.2129 -1.2364 -0.6497
18705TIP3   OH277529   5.996   0.374   4.619  0.3742  0.0709 -0.2697
18705TIP3    H177530   6.040   0.435   4.678  1.3508 -0.5496 -0.3321
18705TIP3    H277531   5.925   0.337   4.671  0.6960  0.1648  0.2384
18706TIP3   OH277532   1.149   3.134  10.585 -0.3817  0.3863 -0.4152
18706TIP3    H177533   1.125   3.075  10.657  1.4047 -0.4146 -0.4168
18706TIP3    H277534   1.205   3.080  10.529 -0.1992  1.5647 -1.3907
18707TIP3   OH277535   6.116   4.918   3.345 -0.2339 -0.3031 -0.3893
18707TIP3    H177536   6.094   4.970   3.268 -1.3994 -0.0387  0.0897
18707TIP3    H277537   6.174   4.974   3.396  0.6904 -0.5541 -1.1527
18708TIP3   OH277538   6.620   0.793  16.936  0.3596  0.4262 -0.7270
18708TIP3    H177539   6.663   0.817  16.854  2.5426  1.9183  0.7510
18708TIP3    H277540   6.575   0.872  16.964  0.7787  0.3605  0.1739
18709TIP3   OH277541   2.757   2.740  13.433  0.5320 -0.2092  0.6407
18709TIP3    H177542   2.690   2.730  13.500 -2.5058  1.3146 -1.8439
18709TIP3    H277543   2.812   2.812  13.464  1.3255 -1.7196  2.9194
18710TIP3   OH277544   0.534   1.608  10.254 -0.2471 -0.1358  0.2451
18710TIP3    H177545   0.464   1.672  10.262 -1.4225 -1.3341 -0.0533
18710TIP3    H277546   0.495   1.536  10.204  0.1955 -2.2071  2.6757
18711TIP3   OH277547   3.083   6.205  15.375 -0.5086 -0.1514 -0.5397
18711TIP3    H177548   3.034   6.236  15.451 -0.2317  1.4922 -1.0027
18711TIP3    H277549   3.097   6.283  15.322  3.4814 -0.2831  0.0398
18712TIP3   OH277550   3.868   3.444   0.990 -0.2927 -0.0273 -0.2940
18712TIP3    H177551   3.928   3.515   1.014  1.0806 -0.6970 -1.5888
18712TIP3    H277552   3.849   3.460   0.897  0.9700 -1.9787 -0.9313
18713TIP3   OH277553   0.934   3.020  13.887 -0.1908  0.0489  0.1217
18713TIP3    H177554   0.865   2.977  13.938  0.5061  0.6931  1.6527
18713TIP3    H277555   0.904   3.111  13.878  0.5130  0.3811  0.9574
18714TIP3   OH277556   4.875   0.598  14.631  0.2614 -0.2488  0.1434
18714TIP3    H177557   4.881   0.653  14.553 -1.3205 -0.7886 -0.3811
18714TIP3    H277558   4.964   0.566  14.645  0.3730 -1.0041 -2.0604
18715TIP3   OH277559   0.734   0.446  16.266  0.4499 -0.5670  0.3569
18715TIP3    H177560   0.721   0.538  16.290  2.4890 -0.0345 -0.3405
18715TIP3    H277561   0.742   0.400  16.350  4.0037  0.7151  0.9116
18716TIP3   OH277562   5.084   4.807   2.104  0.0831 -0.5478  0.5723
18716TIP3    H177563   5.103   4.723   2.062 -0.9179 -0.2482 -0.5300
18716TIP3    H277564   5.170   4.849   2.115  0.4808 -1.2286  0.0856
18717TIP3   OH277565   2.340   2.838   0.118  0.1281  0.1594  0.3831
18717TIP3    H177566   2.418   2.847   0.063  0.7742  3.4398  1.6233
18717TIP3    H277567   2.356   2.759   0.170  1.2722 -0.8009 -1.3306
18718TIP3   OH277568   5.194   1.628   0.453  0.1258 -0.2502 -0.0391
18718TIP3    H177569   5.228   1.547   0.416 -2.0804 -1.2526 -0.0403
18718TIP3    H277570   5.271   1.684   0.464  1.4435 -1.5914 -1.8748
18719TIP3   OH277571   2.481   4.419   5.701  0.4064  0.7637 -0.1088
18719TIP3    H177572   2.479   4.329   5.733 -2.5248  0.8262  0.1993
18719TIP3    H277573   2.424   4.467   5.761  0.5134  2.4348 -1.2786
18720TIP3   OH277574   3.308   2.000  16.436  0.6306  0.5951 -0.2551
18720TIP3    H177575   3.357   1.918  16.439 -0.7064 -0.2382 -0.6939
18720TIP3    H277576   3.368   2.065  16.475  1.5987 -0.6247  0.3454
18721TIP3   OH277577   1.048   5.151   3.105 -0.2854  0.6271 -0.2078
18721TIP3    H177578   1.119   5.136   3.041 -1.1888  0.7248 -1.2566
18721TIP3    H277579   0.979   5.193   3.054 -0.6817  1.5482  1.0576
18722TIP3   OH277580   6.273   1.751  13.904  0.5194  0.5232  0.6698
18722TIP3    H177581   6.340   1.819  13.906  3.2802 -1.8408 -1.8859
18722TIP3    H277582   6.303   1.686  13.969 -1.6919  1.2646  2.5644
18723TIP3   OH277583   0.763   6.111   2.192  0.1248 -0.2007 -0.5536
18723TIP3    H177584   0.723   6.169   2.257  2.4966 -0.9075  1.6955
18723TIP3    H277585   0.724   6.026   2.208  0.8278 -0.4104  0.1186
18724TIP3   OH277586   4.423   5.817  16.547  0.0681  0.1527 -0.5924
18724TIP3    H177587   4.443   5.728  16.517  0.1896  0.0910 -0.3344
18724TIP3    H277588   4.491   5.872  16.506 -0.5160  0.2532 -1.4401
18725TIP3   OH277589   1.290   4.903  13.901 -0.4698  0.7036  0.5338
18725TIP3    H177590   1.255   4.984  13.938  1.2179  2.8354 -2.1265
18725TIP3    H277591   1.289   4.918  13.806  1.6767 -1.5985  0.0471
18726TIP3   OH277592   1.412   6.445  16.875 -0.0060  0.3395  0.2761
18726TIP3    H177593   1.478   6.383  16.907 -0.6975 -1.1942 -1.1248
18726TIP3    H277594   1.441   6.530  16.909  1.9820 -0.4648  0.7473
18727TIP3   OH277595   4.811   0.336  16.959 -0.0212  0.3148  0.0139
18727TIP3    H177596   4.747   0.338  17.030 -0.7292  1.3208 -0.6137
18727TIP3    H277597   4.808   0.425  16.922  0.8750  0.0316 -0.7854
18728TIP3   OH277598   0.112   3.671  15.015  0.5723 -0.2605  0.6664
18728TIP3    H177599   0.168   3.687  14.939 -0.5519 -1.0058 -0.3678
18728TIP3    H277600   0.129   3.745  15.074  0.7463  0.8874 -0.7578
18729TIP3   OH277601   0.943   3.531  16.177 -0.2933 -0.0305  0.4611
18729TIP3    H177602   0.928   3.624  16.167 -0.1411  0.0180  0.6671
18729TIP3    H277603   1.038   3.520  16.167 -0.2720 -0.1193  0.7376
18730TIP3   OH277604   4.864   6.336  16.390  0.3422 -0.6251 -0.0654
18730TIP3    H177605   4.916   6.386  16.453 -0.5153  0.7298 -0.3853
18730TIP3    H277606   4.775   6.336  16.427 -0.2190  0.3725 -1.3444
18731TIP3   OH277607   1.230   4.286  12.662 -0.2245 -0.1717 -0.3122
18731TIP3    H177608   1.178   4.337  12.724 -1.0861 -0.9628 -0.3739
18731TIP3    H277609   1.321   4.308  12.684 -0.5662  1.5743 -0.4991
18732TIP3   OH277610   3.295   1.389  12.632  0.4030 -0.8608  0.2442
18732TIP3    H177611   3.354   1.459  12.658  0.1432  0.2626 -1.9592
18732TIP3    H277612   3.299   1.326  12.704  3.2043 -0.1804  0.7972
18733TIP3   OH277613   3.401   5.072  13.880  0.3246  0.0277 -0.0233
18733TIP3    H177614   3.333   5.139  13.873 -1.4915 -1.5709  1.3079
18733TIP3    H277615   3.466   5.111  13.939 -0.3295  0.9082  0.1413
18734TIP3   OH277616   4.576   0.764   1.999  0.3286  0.4631 -1.0119
18734TIP3    H177617   4.544   0.682   1.962 -0.1064  0.9176 -1.6721
18734TIP3    H277618   4.662   0.742   2.035 -0.2912 -0.5519 -0.0738
18735TIP3   OH277619   3.767   2.036  15.296  0.1226  0.3854 -0.4769
18735TIP3    H177620   3.732   2.109  15.244 -1.6005  0.7589  1.0847
18735TIP3    H277621   3.849   2.070  15.333 -1.3960  2.2499  1.5131
18736TIP3   OH277622   3.794   4.963   0.740  0.0073  0.1006  0.3263
18736TIP3    H177623   3.761   5.029   0.679 -1.0046 -0.6213  0.0675
18736TIP3    H277624   3.826   4.892   0.684 -0.6004 -0.4143  0.6251
18737TIP3   OH277625   3.568   0.370   4.064 -0.0707 -0.6471  0.2600
18737TIP3    H177626   3.568   0.466   4.067 -2.1290 -0.6011  0.1079
18737TIP3    H277627   3.503   0.344   4.129  1.7898 -2.0528  1.6466
18738TIP3   OH277628   5.745   0.761  14.534  0.6435  0.3947 -0.1643
18738TIP3    H177629   5.839   0.753  14.519  0.6197  1.0173 -0.6892
18738TIP3    H277630   5.732   0.853  14.555  0.1544  0.2956 -0.0139
18739TIP3   OH277631   3.710   2.271   4.501 -0.2019  0.4316 -0.3068
18739TIP3    H177632   3.693   2.300   4.590 -0.9094 -0.0921 -0.2625
18739TIP3    H277633   3.683   2.345   4.446  1.1090  1.1182 -0.0606
18740TIP3   OH277634   2.079   0.119  15.568 -0.1447  0.0821 -0.5467
18740TIP3    H177635   2.082   0.173  15.647 -1.3371  1.6956 -1.5449
18740TIP3    H277636   2.010   0.054  15.586  0.6128 -0.5161  0.2787
18741TIP3   OH277637   2.676   6.503  15.586  0.2952 -0.3883  0.1767
18741TIP3    H177638   2.751   6.557  15.611 -0.9439  1.2241  0.6264
18741TIP3    H277639   2.652   6.536  15.499 -1.0386  0.4852  0.8417
18742TIP3   OH277640   1.789   1.524  11.518 -0.0225  0.1272  0.0946
18742TIP3    H177641   1.824   1.440  11.487 -0.6241  0.1018 -0.5322
18742TIP3    H277642   1.695   1.516  11.506 -0.0508  1.0439 -0.3701
18743TIP3   OH277643   5.066   3.134  15.303  0.1422  0.7685  0.0535
18743TIP3    H177644   4.984   3.127  15.254  0.5421  0.8143 -0.6311
18743TIP3    H277645   5.108   3.213  15.269  1.7556 -0.7114 -1.6115
18744TIP3   OH277646   4.783   2.285   1.599  0.3618  0.3263  0.2851
18744TIP3    H177647   4.757   2.312   1.511 -0.6823 -0.5698  0.2993
18744TIP3    H277648   4.708   2.307   1.654 -0.0518 -1.4109  0.4932
18745TIP3   OH277649   4.126   0.480  12.473 -0.0735  0.8700 -0.1094
18745TIP3    H177650   4.111   0.447  12.385  2.5688 -1.8583  0.3052
18745TIP3    H277651   4.158   0.570  12.460  0.2008  0.5391 -1.9149
18746TIP3   OH277652   6.522   6.286   0.823  0.3832  0.2815  0.5617
18746TIP3    H177653   6.439   6.257   0.785 -0.0550  2.6249 -0.4168
18746TIP3    H277654   6.503   6.294   0.917 -0.4558  0.6039  0.3763
18747TIP3   OH277655   6.020   6.571  16.672 -0.1883  0.6837  0.3142
18747TIP3    H177656   6.103   6.599  16.711  0.4561 -0.2091 -0.3888
18747TIP3    H277657   5.983   6.509  16.736  0.2179  0.2477  0.1321
18748TIP3   OH277658   5.006   6.700  10.645 -0.2020 -0.2356 -0.0183
18748TIP3    H177659   5.012   6.626  10.585  0.4955  0.0433 -0.3019
18748TIP3    H277660   4.994   6.660  10.731 -2.3101 -0.6180 -0.4261
18749TIP3   OH277661   4.758   1.214   4.364  0.0822  0.5290 -0.2502
18749TIP3    H177662   4.777   1.285   4.303 -2.0130  1.1136 -0.2846
18749TIP3    H277663   4.681   1.171   4.329  0.5840 -1.0187  0.4385
18750TIP3   OH277664   1.653   0.143   5.366 -0.2768  0.1394  0.3972
18750TIP3    H177665   1.681   0.056   5.336  0.7707  0.7009 -0.3048
18750TIP3    H277666   1.649   0.135   5.461 -1.9353 -1.1759  0.2830
18751TIP3   OH277667   0.331   5.134  12.258  0.7878  0.0406 -0.1455
18751TIP3    H177668   0.300   5.203  12.199  1.5850  0.5336 -0.0012
18751TIP3    H277669   0.423   5.156  12.274  0.4245  0.2801  1.7973
18752TIP3   OH277670   1.587   5.171   2.417  0.1724 -0.2379  0.2258
18752TIP3    H177671   1.665   5.186   2.363  1.3086 -0.5490  1.7183
18752TIP3    H277672   1.557   5.084   2.391  1.3241 -0.8304  0.7786
18753TIP3   OH277673   2.217   3.213   1.249  0.1554  0.0951  0.6517
18753TIP3    H177674   2.251   3.133   1.289  1.3866  0.1360 -0.2612
18753TIP3    H277675   2.211   3.276   1.321  2.4359  0.2087  0.7957
18754TIP3   OH277676   2.177   1.236  14.892 -0.5141  0.0018 -0.0863
18754TIP3    H177677   2.247   1.242  14.956 -0.7826  2.0338  0.0793
18754TIP3    H277678   2.221   1.244  14.807 -0.5504  1.8271  0.0342
18755TIP3   OH277679   2.042   6.660  14.142  0.6022 -0.1478 -0.0628
18755TIP3    H177680   1.974   6.718  14.106  0.3863 -0.7272 -0.6114
18755TIP3    H277681   2.112   6.661  14.077  0.2241 -1.1774 -0.5190
18756TIP3   OH277682   6.264   1.067   6.334  0.3880 -0.1152 -0.2122
18756TIP3    H177683   6.328   1.135   6.356 -0.7888  0.8598  0.3075
18756TIP3    H277684   6.181   1.101   6.366 -0.6249 -0.7596 -2.0111
18757TIP3   OH277685   5.507   4.936   4.298 -0.3470  0.8842 -0.0631
18757TIP3    H177686   5.443   5.007   4.302 -2.7817 -1.2471  1.5611
18757TIP3    H277687   5.489   4.893   4.214  0.0754  1.1946 -0.3224
18758TIP3   OH277688   4.304   0.498  14.237  0.2437  0.3650 -0.0472
18758TIP3    H177689   4.248   0.445  14.294  1.3675  0.7903  1.5205
18758TIP3    H277690   4.385   0.447  14.229  0.0395  0.2249 -1.4623
18759TIP3   OH277691   0.986   5.959   1.470  0.2310 -0.5494 -0.0519
18759TIP3    H177692   1.015   5.984   1.558 -0.3766 -1.2906  0.3730
18759TIP3    H277693   1.053   5.994   1.412  0.2262  0.6740  0.6326
18760TIP3   OH277694   6.148   5.811   4.973  0.0134  0.0385  0.1038
18760TIP3    H177695   6.162   5.900   5.006  0.9094 -0.1715  0.3053
18760TIP3    H277696   6.072   5.779   5.021 -1.3900  1.2880 -1.1639
18761TIP3   OH277697   2.004   0.409   2.065  0.3320  0.5033  0.3184
18761TIP3    H177698   2.011   0.497   2.028  2.2853 -0.0270 -0.6819
18761TIP3    H277699   2.092   0.371   2.057  0.0616 -0.8421  2.5784
18762TIP3   OH277700   5.315   3.577  12.653  0.3643 -0.1865  0.8218
18762TIP3    H177701   5.311   3.602  12.561 -1.6932 -0.7939  0.6897
18762TIP3    H277702   5.393   3.523  12.660  0.0611 -0.9038 -0.7876
18763TIP3   OH277703   0.036   0.977   3.953  0.0840  0.1849  0.5213
18763TIP3    H177704  -0.012   0.947   4.030 -1.2066 -0.6519 -0.5593
18763TIP3    H277705  -0.007   1.059   3.929 -0.8640 -0.5715 -0.4552
18764TIP3   OH277706   1.860   0.314   1.360 -0.2202  0.8098  0.1019
18764TIP3    H177707   1.821   0.380   1.417 -0.8678  0.7344 -0.2556
18764TIP3    H277708   1.827   0.231   1.394  0.0645  0.7063  0.1329
18765TIP3   OH277709   1.041   5.733  13.058 -0.1084 -0.3747 -0.0486
18765TIP3    H177710   1.116   5.681  13.087  0.6309  1.7753  2.1985
18765TIP3    H277711   1.078   5.817  13.032 -1.3625 -0.5730 -2.8565
18766TIP3   OH277712   1.167   0.946  15.914 -0.0751 -0.3556 -0.6698
18766TIP3    H177713   1.158   0.898  15.996  0.3580 -1.2510 -1.1296
18766TIP3    H277714   1.146   0.882  15.846  0.9667 -0.0338 -1.3235
18767TIP3   OH277715   3.069   2.516  12.380  0.0279  0.3971 -0.2796
18767TIP3    H177716   3.002   2.567  12.424  2.3733  2.4212  1.2435
18767TIP3    H277717   3.094   2.448  12.443 -0.5460 -0.3504 -0.8379
18768TIP3   OH277718   2.080   3.138   2.163 -0.0153  0.2870 -0.8098
18768TIP3    H177719   2.068   3.159   2.070 -0.0530 -1.5940 -1.2806
18768TIP3    H277720   2.067   3.043   2.167 -0.3296  0.3876  1.1849
18769TIP3   OH277721   3.132   2.547   0.296 -0.9842 -0.4497 -0.1210
18769TIP3    H177722   3.092   2.460   0.301  0.0245 -1.1301 -2.5247
18769TIP3    H277723   3.058   2.606   0.277 -1.3683 -1.1880 -1.0235
18770TIP3   OH277724   0.733   4.754   4.520  0.9415 -0.2996  0.7425
18770TIP3    H177725   0.672   4.776   4.450  0.0435  0.6038  1.7860
18770TIP3    H277726   0.714   4.662   4.540 -3.3122  0.9465  4.0037
18771TIP3   OH277727   3.838   0.696  14.275 -0.4954  0.4995 -0.0624
18771TIP3    H177728   3.871   0.610  14.250  1.0665  0.2779  2.3913
18771TIP3    H277729   3.887   0.757  14.220 -0.0066 -0.0705 -0.2740
18772TIP3   OH277730   4.292   1.164  16.469  0.2671  0.2815  0.1666
18772TIP3    H177731   4.354   1.183  16.539 -0.6598  2.0567  0.5547
18772TIP3    H277732   4.217   1.125  16.513  1.1573 -2.1656 -0.3385
18773TIP3   OH277733   4.755   1.038  15.781 -0.2467  0.1913 -0.0046
18773TIP3    H177734   4.751   0.957  15.729  0.4560  0.1281  0.0214
18773TIP3    H277735   4.756   1.108  15.715 -0.8869  0.1864 -0.0271
18774TIP3   OH277736   5.928   2.205   5.476  0.3199  0.0077  0.1134
18774TIP3    H177737   5.841   2.242   5.490  0.5732  0.2331  1.1712
18774TIP3    H277738   5.945   2.151   5.552  0.9412 -0.3728 -0.2809
18775TIP3   OH277739   2.240   3.270  12.533 -0.2603  1.2122 -0.0203
18775TIP3    H177740   2.183   3.273  12.611  1.2458 -1.1999  1.3063
18775TIP3    H277741   2.258   3.362  12.513 -2.4775  1.9651  1.0970
18776TIP3   OH277742   1.315   1.592   4.134  0.4366 -0.4415  0.1898
18776TIP3    H177743   1.281   1.553   4.054  2.0343 -2.7681  0.5462
18776TIP3    H277744   1.302   1.524   4.201  2.0041  0.1781  1.1731
18777TIP3   OH277745   1.450   3.211   0.044  0.0480 -0.7906  0.1696
18777TIP3    H177746   1.545   3.224   0.048  0.1030 -0.9975 -0.3099
18777TIP3    H277747   1.413   3.295   0.069  0.3757 -0.2129 -1.1805
18778TIP3   OH277748   0.828   5.475   1.290  0.0921 -0.6369 -0.2297
18778TIP3    H177749   0.802   5.550   1.237  0.9535  0.8091  1.3306
18778TIP3    H277750   0.845   5.405   1.226  2.2499  1.3566 -1.9970
18779TIP3   OH277751   5.042   2.775  13.197 -0.5461  0.0016  0.4411
18779TIP3    H177752   5.030   2.833  13.122  0.2657  0.6867  0.8287
18779TIP3    H277753   5.057   2.689  13.159  0.7062  0.4889 -0.2101
18780TIP3   OH277754   4.922   0.286  12.926 -0.4408  0.2851  0.0143
18780TIP3    H177755   4.953   0.346  12.859 -1.5686  1.3580  0.4183
18780TIP3    H277756   4.998   0.230  12.945  0.0098  0.2093 -1.8386
18781TIP3   OH277757   4.227   3.018   2.049  0.2574  0.2947  0.1996
18781TIP3    H177758   4.232   3.017   1.954  1.6687  0.3163  0.2609
18781TIP3    H277759   4.241   2.927   2.075  2.2012  0.6322  0.4621
18782TIP3   OH277760   5.240   4.597  17.142  0.0254  0.0620  0.2461
18782TIP3    H177761   5.232   4.692  17.132 -0.0802  0.0036 -0.2321
18782TIP3    H277762   5.332   4.578  17.122  0.4435  0.2461  1.8582
18783TIP3   OH277763   5.171   4.603  16.593  0.2775 -0.9172 -0.4652
18783TIP3    H177764   5.094   4.558  16.627  1.2687 -1.2754  1.4235
18783TIP3    H277765   5.216   4.537  16.540  0.3644 -1.3641  0.1517
18784TIP3   OH277766   1.477   1.631   6.632  0.7096 -0.3109  0.4546
18784TIP3    H177767   1.516   1.714   6.655  0.8186 -0.4737  0.8565
18784TIP3    H277768   1.533   1.565   6.674  0.1937 -0.5550  0.7639
18785TIP3   OH277769   1.263   0.736   2.313  0.1212 -0.1096  0.0450
18785TIP3    H177770   1.253   0.713   2.221 -1.1650  1.4652 -0.2531
18785TIP3    H277771   1.269   0.831   2.314  1.1997 -0.1620  1.5237
18786TIP3   OH277772   5.649   4.209   2.880  0.3157 -0.7785  0.4116
18786TIP3    H177773   5.620   4.185   2.792  0.1477 -1.0221  0.5337
18786TIP3    H277774   5.710   4.281   2.866 -0.3506 -0.2512  0.1447
18787TIP3   OH277775   3.677   2.795  13.164 -0.1105 -0.0630  0.3086
18787TIP3    H177776   3.607   2.740  13.199  0.2958 -0.6826  0.1547
18787TIP3    H277777   3.668   2.878  13.211  1.4611 -1.3764  3.2087
18788TIP3   OH277778   0.233   0.484  17.154  1.0607  0.0931  0.6192
18788TIP3    H177779   0.141   0.507  17.166  0.8514 -0.5098  0.2137
18788TIP3    H277780   0.267   0.476  17.243  0.4918 -0.5545  0.7939
18789TIP3   OH277781   2.088   1.007   4.724  0.1058  0.4531 -0.3280
18789TIP3    H177782   2.029   0.949   4.677 -0.9839  0.1373  1.3562
18789TIP3    H277783   2.165   0.953   4.742  0.1355  0.2964 -0.9137
18790TIP3   OH277784   5.947   1.152  16.193  0.4567  0.1387  0.1900
18790TIP3    H177785   6.017   1.215  16.177 -0.9115  1.4572 -1.0240
18790TIP3    H277786   5.886   1.165  16.120 -1.1654 -0.7826  1.3044
18791TIP3   OH277787   3.283   0.143   2.591 -0.2334 -0.0904  0.4051
18791TIP3    H177788   3.246   0.158   2.677 -0.5414 -1.0836  0.4469
18791TIP3    H277789   3.378   0.155   2.603 -0.2720 -0.2754  0.8819
18792TIP3   OH277790   2.678   1.774  14.917  0.2290  0.4306 -0.3148
18792TIP3    H177791   2.659   1.854  14.869 -0.9175 -1.2367 -2.8864
18792TIP3    H277792   2.593   1.742  14.947  0.8528  1.1150  2.5214
18793TIP3   OH277793   4.492   2.238   5.352  0.4988 -0.3335  0.3608
18793TIP3    H177794   4.438   2.303   5.307  2.5446  0.7671 -0.6452
18793TIP3    H277795   4.530   2.185   5.282  0.3550 -1.4140  1.0685
18794TIP3   OH277796   4.263   3.398  12.695  0.4462  0.0251 -0.2735
18794TIP3    H177797   4.209   3.328  12.660  0.1307  0.1183  0.0150
18794TIP3    H277798   4.253   3.391  12.790  1.8760 -0.6937 -0.1402
18795TIP3   OH277799   0.853   1.922   2.662 -1.1294 -0.4284 -0.4150
18795TIP3    H177800   0.800   1.843   2.651 -1.2506 -0.2043 -1.5681
18795TIP3    H277801   0.828   1.978   2.589  0.8715 -0.4237 -1.1596
18796TIP3   OH277802   3.124   3.676   4.062  0.3139 -0.8271 -0.2544
18796TIP3    H177803   3.164   3.635   3.986  3.2251  2.1520 -0.5698
18796TIP3    H277804   3.067   3.744   4.026  1.3790  0.3229  0.1788
18797TIP3   OH277805   4.617   1.550  13.335 -1.0972 -1.0098 -0.0139
18797TIP3    H177806   4.562   1.491  13.284  3.6224 -3.2507 -3.2561
18797TIP3    H277807   4.614   1.633  13.287 -0.7707 -1.4843 -0.8705
18798TIP3   OH277808   3.512   6.324   6.635  0.3686  0.0715  0.4324
18798TIP3    H177809   3.445   6.393   6.632  2.2241  1.9636 -0.8717
18798TIP3    H277810   3.497   6.273   6.555 -0.2058 -0.2049  0.7164
18799TIP3   OH277811   5.472   4.093   1.686 -0.0141 -0.1744  0.9115
18799TIP3    H177812   5.492   4.058   1.773 -1.0527  1.7157  1.9676
18799TIP3    H277813   5.408   4.162   1.702 -0.9514 -0.4031 -1.4823
18800TIP3   OH277814   6.152   5.060   2.619 -0.3271 -0.0565  0.1584
18800TIP3    H177815   6.228   5.007   2.644 -0.4054 -0.1393  0.2245
18800TIP3    H277816   6.180   5.110   2.543 -0.1684 -0.0005  0.2547
18801TIP3   OH277817   2.554   2.711  16.250  0.3099 -0.2700 -0.1585
18801TIP3    H177818   2.561   2.734  16.343 -0.4989 -0.2697 -0.0884
18801TIP3    H277819   2.477   2.760  16.219  0.0810 -0.9087 -0.6246
18802TIP3   OH277820   2.380   5.738  16.788 -0.1739 -0.1217  0.3450
18802TIP3    H177821   2.364   5.644  16.798 -1.3154  0.1726  1.6512
18802TIP3    H277822   2.432   5.762  16.865  2.5026 -0.1275 -1.3509
18803TIP3   OH277823   4.518   4.477   2.884  0.7015 -0.7723  0.2820
18803TIP3    H177824   4.448   4.477   2.819 -1.0625 -1.2012  2.0526
18803TIP3    H277825   4.576   4.405   2.858  0.5838 -0.3343 -1.2938
18804TIP3   OH277826   0.250   2.929  16.096  0.3723  0.2430  0.0017
18804TIP3    H177827   0.203   2.955  16.175 -0.7683  1.5449 -1.0582
18804TIP3    H277828   0.210   2.981  16.026  1.7138 -0.4736 -1.3525
18805TIP3   OH277829   2.951   5.409  13.557 -0.0563  0.2863  0.6454
18805TIP3    H177830   2.971   5.367  13.641  2.9031  1.8057  0.8176
18805TIP3    H277831   2.965   5.502  13.572 -0.0143  0.6633 -1.4139
18806TIP3   OH277832   0.881   1.315  11.821  0.2085 -0.2512 -0.1936
18806TIP3    H177833   0.892   1.271  11.737  0.0312 -0.7544  0.0442
18806TIP3    H277834   0.941   1.269  11.880  0.2197  0.0009 -0.0075
18807TIP3   OH277835   1.048   1.877  13.908  0.4161  0.3521 -0.1637
18807TIP3    H177836   1.015   1.791  13.881 -0.1571  0.5398 -0.0740
18807TIP3    H277837   0.993   1.939  13.860 -0.2442  0.6840  0.9972
18808TIP3   OH277838   0.283   6.036   2.738  0.4220  0.1292  0.1053
18808TIP3    H177839   0.227   6.114   2.738  0.3691  0.1093  1.0712
18808TIP3    H277840   0.242   5.978   2.803 -0.1361 -1.1571 -1.3333
18809TIP3   OH277841   5.046   2.977   2.558 -0.1172  0.2284 -0.0790
18809TIP3    H177842   4.975   3.020   2.606 -1.2328 -1.0635 -0.4934
18809TIP3    H277843   5.126   3.009   2.598 -0.9874  0.0510  1.9046
18810TIP3   OH277844   1.739   0.412  11.377  0.0459  0.0242 -0.4033
18810TIP3    H177845   1.722   0.449  11.464  0.9499 -0.6531  0.0715
18810TIP3    H277846   1.786   0.481  11.331  0.5217 -0.0198  0.0130
18811TIP3   OH277847   6.258   5.888  15.495 -0.6308  0.3833  0.2783
18811TIP3    H177848   6.271   5.965  15.441  1.6913  0.5945  1.0368
18811TIP3    H277849   6.322   5.825  15.463  0.8034  0.5005  2.6449
18812TIP3   OH277850   4.217   0.907   0.206  0.3408  0.1127  0.4210
18812TIP3    H177851   4.279   0.976   0.232 -0.1051  0.5427  0.3682
18812TIP3    H277852   4.227   0.901   0.111 -0.1523  0.6373  0.3300
18813TIP3   OH277853   0.282   1.518   2.394 -0.2560 -0.1901 -0.2397
18813TIP3    H177854   0.284   1.425   2.372 -0.9712 -0.5946  1.2586
18813TIP3    H277855   0.210   1.526   2.457  0.8172  1.0956  0.8783
18814TIP3   OH277856   0.571   5.989   4.337 -0.4810  0.0663  0.3512
18814TIP3    H177857   0.650   6.042   4.323  0.9523 -2.0311 -0.0907
18814TIP3    H277858   0.539   5.970   4.249 -1.3695  0.6965  0.5231
18815TIP3   OH277859   3.608   6.177   1.472 -0.3082 -0.2253  0.2352
18815TIP3    H177860   3.653   6.203   1.553  0.2362 -0.1837 -0.0827
18815TIP3    H277861   3.651   6.227   1.403  0.2896 -1.4249 -0.2926
18816TIP3   OH277862   1.924   4.649   4.334  0.4477 -0.1079 -0.3576
18816TIP3    H177863   1.973   4.568   4.324 -0.3806 -0.4428 -2.1129
18816TIP3    H277864   1.833   4.621   4.341  0.1882  0.6578 -0.5852
18817TIP3   OH277865   4.323   4.391  13.063  0.2950 -0.0263 -0.2016
18817TIP3    H177866   4.272   4.470  13.077 -0.6247 -0.4639 -1.0173
18817TIP3    H277867   4.344   4.391  12.970 -1.5337 -1.7900 -0.6747
18818TIP3   OH277868   1.072   1.352  13.301 -0.8744 -0.3772 -0.6860
18818TIP3    H177869   1.045   1.262  13.283 -1.4714 -0.4455  0.4549
18818TIP3    H277870   1.048   1.367  13.392  0.0664  0.6353 -0.5739
18819TIP3   OH277871   0.067   0.539  16.750 -0.7431 -0.4935  0.0496
18819TIP3    H177872   0.029   0.627  16.749  1.2570  0.4453  1.2001
18819TIP3    H277873  -0.009   0.481  16.753 -2.1149  1.2175  0.4671
18820TIP3   OH277874   5.597   5.165   4.668  0.1014  0.2702 -0.0652
18820TIP3    H177875   5.545   5.246   4.659  1.1632  0.9748 -0.0118
18820TIP3    H277876   5.532   5.095   4.662 -0.6319  1.0450 -1.8985
18821TIP3   OH277877   3.952   1.771   1.725  0.3758 -0.6138  0.4730
18821TIP3    H177878   3.987   1.815   1.648 -0.5830 -1.4595 -0.4657
18821TIP3    H277879   3.955   1.678   1.704 -3.5586 -0.7501 -0.2374
18822TIP3   OH277880   4.706   3.774  16.018 -0.2235  0.3212  0.0392
18822TIP3    H177881   4.724   3.682  16.038  0.3224  0.5017  0.4043
18822TIP3    H277882   4.757   3.823  16.083  0.5255  0.9018 -0.9631
18823TIP3   OH277883   0.858   2.103  13.428 -0.5169 -0.1692 -0.0998
18823TIP3    H177884   0.796   2.166  13.394 -0.2673 -0.4929 -1.2084
18823TIP3    H277885   0.912   2.079  13.353  1.3218  0.5187  0.9356
18824TIP3   OH277886   4.689   2.557  16.684  0.0308 -0.0388  0.4107
18824TIP3    H177887   4.691   2.557  16.588 -1.4092 -0.6112  0.3634
18824TIP3    H277888   4.719   2.469  16.708  2.0968  0.6646  0.5703
18825TIP3   OH277889   6.681   5.949   3.390 -0.2719 -0.8107 -0.1770
18825TIP3    H177890   6.772   5.939   3.362 -0.3778 -1.5812 -0.2688
18825TIP3    H277891   6.629   5.911   3.319 -0.8543  2.1676 -1.4995
18826TIP3   OH277892   6.430   4.782   3.846 -0.4000 -0.1706 -0.1607
18826TIP3    H177893   6.418   4.764   3.939  0.1299 -0.5966 -0.1673
18826TIP3    H277894   6.369   4.853   3.827 -3.6820 -2.8283 -0.4451
18827TIP3   OH277895   4.351   2.246  13.586  0.6053 -0.1014 -0.5836
18827TIP3    H177896   4.319   2.278  13.670  1.1335  0.1497 -0.4757
18827TIP3    H277897   4.313   2.158  13.578 -2.4161  1.1820 -1.7577
18828TIP3   OH277898   3.811   0.336   2.046  0.7573  0.5769 -0.4733
18828TIP3    H177899   3.826   0.411   2.104  1.0417 -0.1076  0.3523
18828TIP3    H277900   3.899   0.304   2.026  0.7102  1.3699 -2.0521
18829TIP3   OH277901   5.151   3.430  15.966  0.1756 -0.2423 -0.2395
18829TIP3    H177902   5.221   3.375  16.001  0.8692 -0.8824 -2.4461
18829TIP3    H277903   5.073   3.374  15.967  0.2447 -0.3352  0.0140
18830TIP3   OH277904   1.436   2.661   1.864 -0.0948 -0.2383 -0.2153
18830TIP3    H177905   1.341   2.672   1.862  0.0439  1.1398 -0.4812
18830TIP3    H277906   1.470   2.750   1.871  1.1972 -0.6561 -0.8596
18831TIP3   OH277907   0.602   1.667  11.039  0.1130  0.1202 -0.0080
18831TIP3    H177908   0.678   1.612  11.057  0.2451  0.3320  0.0931
18831TIP3    H277909   0.610   1.689  10.947  0.1281  0.0716 -0.0189
18832TIP3   OH277910   0.714   1.167   5.366  0.1240  1.4166 -0.4739
18832TIP3    H177911   0.723   1.234   5.434 -1.6896  0.2891  0.9911
18832TIP3    H277912   0.799   1.165   5.322  1.8667  1.3255  2.6111
18833TIP3   OH277913   4.201   1.196  10.707 -0.2587 -0.3041 -0.2487
18833TIP3    H177914   4.256   1.248  10.649  1.5811 -0.3291  1.3465
18833TIP3    H277915   4.236   1.107  10.700 -2.1453 -0.9935 -1.5152
18834TIP3   OH277916   2.139   1.159   5.563 -0.0367 -0.9700 -0.0695
18834TIP3    H177917   2.064   1.189   5.513  0.3820 -0.1786 -0.2291
18834TIP3    H277918   2.194   1.113   5.500  0.6781  0.3568 -0.4429
18835TIP3   OH277919   0.466   1.707  17.017 -0.5374  0.1467  0.0122
18835TIP3    H177920   0.542   1.650  17.029 -0.1583  0.3229 -1.3846
18835TIP3    H277921   0.442   1.734  17.105  0.3272 -0.8141  0.5603
18836TIP3   OH277922   1.700   1.705  10.707 -0.1868  0.1435 -0.1327
18836TIP3    H177923   1.685   1.635  10.771  1.0112 -0.5324 -0.5639
18836TIP3    H277924   1.646   1.681  10.631 -1.1883  0.6651  0.3854
18837TIP3   OH277925   5.103   6.467  17.028 -0.6554 -0.4890 -0.0218
18837TIP3    H177926   5.032   6.418  16.985 -0.5506 -0.2280 -0.5006
18837TIP3    H277927   5.061   6.547  17.060 -0.7136 -0.6395  0.2807
18838TIP3   OH277928   1.290   0.233  17.000 -0.3957  0.3151 -0.7434
18838TIP3    H177929   1.289   0.313  17.053  0.5733 -0.8020  1.0574
18838TIP3    H277930   1.360   0.249  16.936 -0.2454  0.9408 -0.4407
18839TIP3   OH277931   3.459   0.037  13.564  0.6243  0.3355  0.2251
18839TIP3    H177932   3.525   0.014  13.498 -0.0754 -1.0966 -0.0003
18839TIP3    H277933   3.454   0.133  13.559  1.0920  0.3194 -1.3089
18840TIP3   OH277934   3.035   0.022   5.537 -0.0715 -0.1155 -0.1945
18840TIP3    H177935   3.125   0.003   5.510 -0.5278 -1.8800 -0.5950
18840TIP3    H277936   3.021   0.113   5.512  2.0900  0.7190  1.2611
18841TIP3   OH277937   2.233   2.659  13.208 -0.0504 -0.5591 -0.5058
18841TIP3    H177938   2.235   2.570  13.172 -0.0107 -1.7302  2.1441
18841TIP3    H277939   2.140   2.683  13.207 -0.1672 -0.9980 -0.4579
18842TIP3   OH277940   6.759   3.485  16.469  0.4734  0.2437 -0.3369
18842TIP3    H177941   6.702   3.412  16.443  1.3711  0.4096 -3.2134
18842TIP3    H277942   6.834   3.444  16.512  1.4642 -0.7850 -2.8201
18843TIP3   OH277943   0.489   5.259   3.405  0.4260 -0.1558 -0.4150
18843TIP3    H177944   0.427   5.189   3.386  0.2357  0.1834 -1.0733
18843TIP3    H277945   0.558   5.217   3.455  0.1311 -0.7358 -0.4864
18844TIP3   OH277946   4.836   6.137  13.350  0.3701 -0.2954 -0.9043
18844TIP3    H177947   4.798   6.222  13.371  0.9424 -0.0091 -1.0144
18844TIP3    H277948   4.801   6.078  13.417  0.4222  0.1487 -0.4815
18845TIP3   OH277949   1.214   3.309   0.535  0.2340  0.2143 -0.1270
18845TIP3    H177950   1.160   3.366   0.479  0.6827  0.4614 -0.3103
18845TIP3    H277951   1.217   3.226   0.489  0.6473  0.4343 -0.4994
18846TIP3   OH277952   6.419   1.634   6.175  0.3310 -0.4359  0.8055
18846TIP3    H177953   6.469   1.553   6.184  0.1853 -0.5871  0.3206
18846TIP3    H277954   6.485   1.703   6.168  0.4677 -0.5961  0.5036
18847TIP3   OH277955   3.163   1.124   6.204 -0.4434  0.3700  0.5822
18847TIP3    H177956   3.254   1.112   6.232 -0.0245  1.6818 -0.1180
18847TIP3    H277957   3.128   1.191   6.262 -0.0907  1.8584 -0.8376
18848TIP3   OH277958   1.598   2.953   1.665 -0.4255  0.8353 -0.2755
18848TIP3    H177959   1.653   2.875   1.671 -0.7108  0.6248 -0.3735
18848TIP3    H277960   1.536   2.933   1.595 -1.1345  0.7452  0.3691
18849TIP3   OH277961   0.699   1.621   6.521 -0.3708 -0.5267 -0.0669
18849TIP3    H177962   0.678   1.635   6.428  0.3602  0.7510 -0.0657
18849TIP3    H277963   0.793   1.642   6.528 -0.5523 -0.0032  1.0625
18850TIP3   OH277964   4.004   1.845  11.634 -0.2978  0.1859  0.3139
18850TIP3    H177965   4.049   1.878  11.557  0.5866 -1.0384  0.2728
18850TIP3    H277966   3.948   1.775  11.601 -0.0515 -0.2231  0.7361
18851TIP3   OH277967   1.272   5.461  13.978 -0.3197 -0.1750  0.1525
18851TIP3    H177968   1.367   5.474  13.977  0.0510 -1.1833  4.1202
18851TIP3    H277969   1.236   5.548  13.964  1.0597  0.0560 -2.6282
18852TIP3   OH277970   2.323   2.607  14.946  0.0121  0.4972  0.4417
18852TIP3    H177971   2.283   2.587  14.861  0.5522 -2.4556  0.7572
18852TIP3    H277972   2.293   2.695  14.967 -2.4726  0.2179 -1.4818
18853TIP3   OH277973   4.743   6.552  12.786 -0.4139 -0.1099 -0.1425
18853TIP3    H177974   4.770   6.576  12.875  1.2031  0.6569 -0.8086
18853TIP3    H277975   4.715   6.635  12.747  0.0768 -0.2236 -0.7425
18854TIP3   OH277976   5.441   0.086  13.520 -0.3639 -0.3913 -0.2263
18854TIP3    H177977   5.353   0.106  13.551 -0.1213  0.3739 -0.0111
18854TIP3    H277978   5.486   0.048  13.596  0.4490  2.1271  0.6487
18855TIP3   OH277979   3.642   3.397  14.233  0.2313 -0.2425 -0.4653
18855TIP3    H177980   3.615   3.436  14.316 -0.0382 -0.2881 -0.5333
18855TIP3    H277981   3.675   3.471  14.182  2.2157 -0.4609  0.3943
18856TIP3   OH277982   4.059   2.685   2.938  0.1973 -0.1445  0.1765
18856TIP3    H177983   4.138   2.630   2.934 -0.5585 -1.1977 -1.0693
18856TIP3    H277984   4.073   2.751   2.870 -0.1148 -0.5162 -0.2536
18857TIP3   OH277985   3.259   2.542  16.532 -0.0842  0.2658 -0.4253
18857TIP3    H177986   3.173   2.507  16.554 -0.0179  0.1100 -0.4124
18857TIP3    H277987   3.307   2.468  16.497 -0.0915  0.4476 -0.8219
18858TIP3   OH277988   3.497   3.314   2.357 -0.2629 -0.6238 -0.4376
18858TIP3    H177989   3.590   3.334   2.355 -0.2421 -0.7293 -0.5632
18858TIP3    H277990   3.456   3.393   2.393 -0.0349 -0.9445  0.5446
18859TIP3   OH277991   3.830   0.303   2.452 -0.6963  0.0521  0.6644
18859TIP3    H177992   3.851   0.260   2.534  0.3160  2.2172  1.6162
18859TIP3    H277993   3.904   0.362   2.435 -0.2495 -1.1932 -2.4916
18860TIP3   OH277994   5.435   2.810  15.519 -0.3630  0.7224 -0.0510
18860TIP3    H177995   5.447   2.851  15.433  1.1024 -0.9617 -0.7219
18860TIP3    H277996   5.380   2.734  15.502  0.4784  0.0032  0.3496
18861TIP3   OH277997   5.002   1.696  15.764  0.5526 -0.1163  0.8109
18861TIP3    H177998   4.972   1.781  15.731  2.0045  0.2086  0.2618
18861TIP3    H277999   5.097   1.703  15.764  0.7000 -1.8846  0.4261
18862TIP3   OH278000   4.143   1.759   4.552  0.6840 -1.0101 -0.3617
18862TIP3    H178001   4.080   1.687   4.539  1.1489 -1.1768 -1.8220
18862TIP3    H278002   4.189   1.766   4.469  2.0849 -0.3738  0.4346
18863TIP3   OH278003   0.956   1.506   6.226  0.2678 -0.2933 -0.0638
18863TIP3    H178004   0.952   1.412   6.242  0.8263 -0.6772 -1.9651
18863TIP3    H278005   0.936   1.545   6.311 -0.2498 -2.1121  0.7085
18864TIP3   OH278006   3.440   0.340   2.236 -0.1577  0.1161  0.3533
18864TIP3    H178007   3.384   0.387   2.175  1.2933  0.9453 -0.3692
18864TIP3    H278008   3.493   0.282   2.181  1.5409  1.2553  0.7258
18865TIP3   OH278009   5.185   3.405   4.746  0.0395  0.7319  1.1416
18865TIP3    H178010   5.100   3.369   4.720 -0.6288  2.9477  0.0219
18865TIP3    H278011   5.247   3.335   4.726 -1.3782 -0.5145  0.9031
18866TIP3   OH278012   2.619   2.975   6.575 -0.1158 -0.0410 -0.0258
18866TIP3    H178013   2.675   3.052   6.580 -0.5890  0.2329  1.6669
18866TIP3    H278014   2.540   2.999   6.622 -1.9862 -0.2248 -2.8505
18867TIP3   OH278015   0.196   5.632  15.979 -0.8668  0.4126  0.4298
18867TIP3    H178016   0.196   5.553  16.033 -0.8195 -2.8520 -3.7165
18867TIP3    H278017   0.104   5.646  15.957 -0.7408  0.6192  0.0246
18868TIP3   OH278018   1.575   4.262  15.158 -0.0877 -0.8182 -0.0141
18868TIP3    H178019   1.526   4.297  15.233  0.3270  1.0019 -0.5560
18868TIP3    H278020   1.507   4.229  15.098 -0.5970  0.4597 -0.1611
18869TIP3   OH278021   0.874   5.140   1.409  0.8437  0.5988 -0.1000
18869TIP3    H178022   0.825   5.181   1.337 -2.6981 -1.1795  1.0653
18869TIP3    H278023   0.842   5.184   1.488 -1.2334 -2.4130  0.9522
18870TIP3   OH278024   5.581   6.481   2.110 -0.3687  0.0525  0.1702
18870TIP3    H178025   5.558   6.390   2.096  0.9152 -0.1481 -0.8879
18870TIP3    H278026   5.621   6.483   2.197  0.5966 -0.6171 -0.2460
18871TIP3   OH278027   0.934   0.725  10.711 -0.0619 -1.1531  0.2132
18871TIP3    H178028   1.017   0.771  10.701 -1.2795  1.2120  0.2927
18871TIP3    H278029   0.959   0.636  10.737  2.4954 -1.3335 -2.3312
18872TIP3   OH278030   2.262   3.612   5.295  0.2250 -0.0383  0.0434
18872TIP3    H178031   2.317   3.588   5.221  0.4053  0.4036  0.0265
18872TIP3    H278032   2.173   3.597   5.265  0.3152 -0.2664 -0.1113
18873TIP3   OH278033   0.952   4.272  15.157  0.2289 -0.8944 -0.0995
18873TIP3    H178034   0.862   4.252  15.130  0.4758 -1.3280 -0.6248
18873TIP3    H278035   0.956   4.368  15.158 -0.8371 -0.8267  1.9983
18874TIP3   OH278036   6.377   5.397   1.373  0.0110  0.3762 -0.0931
18874TIP3    H178037   6.428   5.472   1.405 -1.0910  1.1308 -0.0397
18874TIP3    H278038   6.322   5.434   1.304  0.2128 -0.6227 -0.8142
18875TIP3   OH278039   5.680   5.169  11.175  0.2934 -0.2193 -0.0056
18875TIP3    H178040   5.710   5.147  11.086  1.7952 -1.7141  0.8224
18875TIP3    H278041   5.751   5.220  11.213 -0.3229  0.3766  0.3817
18876TIP3   OH278042   5.824   4.304   2.255  0.4512 -0.3291 -0.1148
18876TIP3    H178043   5.866   4.385   2.227 -0.5648 -0.1562 -1.2377
18876TIP3    H278044   5.772   4.328   2.331 -0.3308  0.2284 -0.8104
18877TIP3   OH278045   5.132   2.164  10.995 -0.3713 -0.1456  0.3940
18877TIP3    H178046   5.125   2.103  10.921 -2.6737  0.0923  0.3253
18877TIP3    H278047   5.205   2.221  10.973  0.2546 -1.3300 -0.7304
18878TIP3   OH278048   4.021   3.676  14.447  0.1996 -0.2942  0.2883
18878TIP3    H178049   4.016   3.645  14.357  0.6785  0.8649 -0.1485
18878TIP3    H278050   4.087   3.619  14.488 -0.4004 -1.1695  0.0779
18879TIP3   OH278051   5.497   1.182   4.936 -0.6577 -0.0684  0.0433
18879TIP3    H178052   5.517   1.164   4.845 -0.2978  0.3980  0.0294
18879TIP3    H278053   5.406   1.210   4.936 -1.0201 -1.1753 -0.0225
18880TIP3   OH278054   3.985   3.904  16.414  0.7112  0.0170 -0.1112
18880TIP3    H178055   3.931   3.964  16.465  1.0527  1.9997 -1.9597
18880TIP3    H278056   4.012   3.837  16.477 -0.8300  1.0186  1.7054
18881TIP3   OH278057   1.076   1.765  12.774  0.0808 -0.5288  0.6477
18881TIP3    H178058   1.097   1.677  12.743  0.2078 -1.5260  3.3129
18881TIP3    H278059   1.098   1.764  12.867 -0.3542  2.1997  0.8662
18882TIP3   OH278060   0.331   0.347   2.653 -0.1675 -0.3240 -0.2047
18882TIP3    H178061   0.327   0.257   2.621 -1.1064 -0.0774 -0.8250
18882TIP3    H278062   0.241   0.369   2.676 -0.3681  1.1835 -2.1586
18883TIP3   OH278063   5.882   2.999   2.935  0.2440 -0.0818  0.1934
18883TIP3    H178064   5.901   2.911   2.967 -0.4503  0.9647  3.9577
18883TIP3    H278065   5.951   3.017   2.872 -0.2269 -3.6511 -1.6361
18884TIP3   OH278066   5.487   2.632  16.410 -0.1126  0.0079 -0.0219
18884TIP3    H178067   5.505   2.653  16.501 -0.8542 -3.6920  1.1771
18884TIP3    H278068   5.534   2.550  16.394 -0.1845  0.4168 -2.9159
18885TIP3   OH278069   0.320   4.880   4.470 -0.4164 -0.2537  0.1570
18885TIP3    H178070   0.378   4.896   4.395 -0.3881 -0.3771  0.1529
18885TIP3    H278071   0.265   4.959   4.474 -0.3499 -0.2017  0.0690
18886TIP3   OH278072   1.096   0.858   5.397  0.2942  0.0940  0.1651
18886TIP3    H178073   1.083   0.850   5.492  1.0869  1.0739  0.3741
18886TIP3    H278074   1.180   0.816   5.381  0.1886 -0.0174 -0.0914
18887TIP3   OH278075   4.575   2.435   6.021  0.3048 -0.3939  0.6007
18887TIP3    H178076   4.607   2.357   5.974  1.0377 -0.7053  1.5876
18887TIP3    H278077   4.529   2.400   6.097  1.7513  0.1376  1.7543
18888TIP3   OH278078   5.640   4.718  11.639  0.4349 -0.0833 -0.4901
18888TIP3    H178079   5.634   4.724  11.734  0.5897 -0.2010 -0.4728
18888TIP3    H278080   5.618   4.627  11.619 -0.9300  0.2648 -0.6728
18889TIP3   OH278081   1.234   4.688   5.321 -0.3005  0.2803  0.1199
18889TIP3    H178082   1.320   4.713   5.287 -0.7722  0.0007 -1.3432
18889TIP3    H278083   1.175   4.758   5.293 -0.6647  0.1922  0.6427
18890TIP3   OH278084   2.729   0.941   3.361 -0.0900  0.1680  0.5024
18890TIP3    H178085   2.699   0.894   3.438 -1.3673 -0.4400 -0.3299
18890TIP3    H278086   2.823   0.954   3.375 -0.4863  1.0664  2.6478
18891TIP3   OH278087   0.552   6.732   0.082  0.1427  0.2814 -0.2389
18891TIP3    H178088   0.581   6.710  -0.006 -0.9402  0.0559 -0.5545
18891TIP3    H278089   0.615   6.688   0.140  1.0340  0.6875 -0.8860
18892TIP3   OH278090   4.201   4.629   5.314 -0.0655 -1.0400  0.3277
18892TIP3    H178091   4.227   4.715   5.279  1.5328 -0.8741  1.8018
18892TIP3    H278092   4.273   4.571   5.290 -1.1982 -2.0536 -0.7705
18893TIP3   OH278093   3.638   4.269  12.111 -0.1985  0.5563  0.1347
18893TIP3    H178094   3.635   4.338  12.045  0.0047  0.9995  0.5858
18893TIP3    H278095   3.715   4.290  12.164 -0.3671  0.2091  0.5195
18894TIP3   OH278096   6.693   6.771  14.363 -0.1824 -0.2537 -0.4992
18894TIP3    H178097   6.724   6.756  14.273  0.0990 -2.4097 -0.1030
18894TIP3    H278098   6.762   6.824  14.403 -0.9361  1.9228 -1.8625
18895TIP3   OH278099   4.862   4.187   2.143 -0.8240 -0.3620 -0.1888
18895TIP3    H178100   4.871   4.224   2.231  0.6664 -0.7836 -0.1334
18895TIP3    H278101   4.824   4.101   2.157 -1.5494 -0.0303 -0.0617
18896TIP3   OH278102   3.773   0.753   4.418  0.0619 -0.0577  0.6953
18896TIP3    H178103   3.810   0.666   4.401  1.6672  0.7937 -0.4432
18896TIP3    H278104   3.740   0.748   4.507  1.2569 -1.4662  1.1078
18897TIP3   OH278105   1.398   0.510   4.020 -0.4010  0.2154 -0.1086
18897TIP3    H178106   1.473   0.452   4.033 -0.9167  0.0965  3.6291
18897TIP3    H278107   1.331   0.476   4.080 -2.5583  1.7902 -1.4690
18898TIP3   OH278108   3.563   0.026  14.704 -0.0100  0.5079  0.4138
18898TIP3    H178109   3.514   0.034  14.623  1.1028 -1.3548 -0.5133
18898TIP3    H278110   3.509  -0.029  14.760  0.6458 -0.9348 -0.3318
18899TIP3   OH278111   1.512   4.571   1.472 -0.2835  0.0536  0.5482
18899TIP3    H178112   1.600   4.555   1.505  0.6872  3.4428  0.0318
18899TIP3    H278113   1.476   4.637   1.532 -2.5295 -1.2513  0.7496
18900TIP3   OH278114   0.277   5.588   6.036 -0.0803  0.0343 -0.2494
18900TIP3    H178115   0.324   5.663   5.999 -0.9569  0.4344 -0.5894
18900TIP3    H278116   0.311   5.512   5.988  0.0246  0.3483 -0.6734
18901TIP3   OH278117   2.890   4.708   6.105 -0.3236 -0.3895  0.1578
18901TIP3    H178118   2.804   4.732   6.139 -0.4585 -0.2967 -0.2414
18901TIP3    H278119   2.952   4.745   6.168 -0.5967 -2.0546  1.4662
18902TIP3   OH278120   1.190   5.960   1.713  0.1835  0.1511  0.1795
18902TIP3    H178121   1.214   5.922   1.797 -0.1823  0.4390  0.4174
18902TIP3    H278122   1.260   5.933   1.653  1.2994  1.2720  0.9296
18903TIP3   OH278123   3.193   6.402  13.948  0.0251  0.2969  0.3782
18903TIP3    H178124   3.147   6.483  13.927 -1.5943 -0.7163 -0.1333
18903TIP3    H278125   3.183   6.347  13.870 -0.7950 -1.2018  1.4822
18904TIP3   OH278126   2.100   5.422   3.958 -0.7119 -1.4983  0.2450
18904TIP3    H178127   2.099   5.374   3.876  1.7279 -0.2642 -0.6088
18904TIP3    H278128   2.043   5.496   3.944 -1.2386 -1.9269  0.1008
18905TIP3   OH278129   0.938   1.071   4.829  0.9228 -0.0066 -0.4092
18905TIP3    H178130   0.872   1.006   4.852  1.3693  0.0211  1.0427
18905TIP3    H278131   0.944   1.067   4.733 -1.1190 -0.0633 -0.5735
18906TIP3   OH278132   3.621   5.097  14.362  0.0767  0.1040  0.1109
18906TIP3    H178133   3.623   5.012  14.320  2.3428  0.6243 -1.0341
18906TIP3    H278134   3.607   5.159  14.291 -1.0510  0.7486  0.8579
18907TIP3   OH278135   1.794   1.693  13.385 -0.2551 -0.2097  0.0095
18907TIP3    H178136   1.755   1.618  13.430  0.3108 -0.8545 -0.5488
18907TIP3    H278137   1.862   1.654  13.329  0.1212  0.7324 -0.1986
18908TIP3   OH278138   2.428   6.134   5.931 -0.3753  0.5154 -0.0685
18908TIP3    H178139   2.427   6.135   6.027 -2.2435 -2.7467  0.1209
18908TIP3    H278140   2.498   6.072   5.909 -1.0405 -0.0294 -0.7002
18909TIP3   OH278141   4.850   6.315   1.607 -0.1593 -0.2958 -0.2334
18909TIP3    H178142   4.876   6.406   1.620  0.8393 -0.5584 -0.3289
18909TIP3    H278143   4.871   6.273   1.691 -2.0035 -0.1490  0.3490
18910TIP3   OH278144   6.382   4.064   0.981  0.4499 -0.3988 -0.2262
18910TIP3    H178145   6.318   4.127   1.014  2.0092  0.7730  0.7084
18910TIP3    H278146   6.329   3.995   0.941 -1.3748  0.5759  0.3764
18911TIP3   OH278147   4.649   2.830  12.539  0.1689 -0.2023  0.4054
18911TIP3    H178148   4.665   2.785  12.457 -0.8145 -0.4464  0.3324
18911TIP3    H278149   4.709   2.789  12.601  1.1592  0.2189 -0.2542
18912TIP3   OH278150   0.586   5.462   2.788  0.4700  0.5704  0.5455
18912TIP3    H178151   0.641   5.416   2.724  0.8750  0.3607  1.0371
18912TIP3    H278152   0.648   5.499   2.850  0.0058 -2.1208  2.8030
18913TIP3   OH278153   3.762   1.631   5.588 -0.1863  0.0655  0.6705
18913TIP3    H178154   3.738   1.710   5.636  0.1624 -0.7915  2.3287
18913TIP3    H278155   3.851   1.648   5.557 -0.6080  0.8310 -0.1462
18914TIP3   OH278156   2.516   0.598  11.407 -0.0538  0.4743  0.5903
18914TIP3    H178157   2.465   0.520  11.432  0.3081  0.1721  0.3967
18914TIP3    H278158   2.556   0.626  11.489 -1.0331  1.0992  0.8786
18915TIP3   OH278159   2.026   0.076  14.980  0.0498  0.0276 -0.2844
18915TIP3    H178160   2.099   0.085  14.919  0.1118 -0.7903 -0.3317
18915TIP3    H278161   2.007  -0.018  14.983 -1.0494  0.2265 -0.3261
18916TIP3   OH278162   1.738   4.542  14.268 -0.1467  0.0852 -0.4621
18916TIP3    H178163   1.648   4.546  14.236  0.1058  0.7036 -1.1212
18916TIP3    H278164   1.785   4.490  14.203 -0.0820 -0.4652  0.0207
18917TIP3   OH278165   4.661   1.901  17.028  0.0981  0.1562  0.0909
18917TIP3    H178166   4.699   1.843  16.963 -0.8471 -0.8113  0.3761
18917TIP3    H278167   4.735   1.953  17.060  1.2257 -1.6942  0.6800
18918TIP3   OH278168   4.137   2.021   0.638 -0.0899 -0.5034 -0.0042
18918TIP3    H178169   4.098   2.106   0.620  0.1575 -0.8636 -2.8320
18918TIP3    H278170   4.232   2.036   0.634 -0.0289 -0.6829  0.7526
18919TIP3   OH278171   4.555   5.797   4.934 -0.2425  0.0234 -0.2300
18919TIP3    H178172   4.503   5.731   4.888  0.2056  0.1749 -0.9551
18919TIP3    H278173   4.511   5.880   4.914 -0.7289 -0.0278  0.5745
18920TIP3   OH278174   5.188   4.786  14.918 -0.7033  0.1001 -0.2342
18920TIP3    H178175   5.098   4.797  14.949 -0.6948 -1.8673  0.6435
18920TIP3    H278176   5.179   4.773  14.824 -1.5547 -1.6635  0.0393
18921TIP3   OH278177   2.714   0.729   5.901 -0.4142 -0.9289  0.2611
18921TIP3    H178178   2.686   0.694   5.986 -1.0051 -0.3353  0.3246
18921TIP3    H278179   2.665   0.811   5.892  1.4384  0.2524  0.4370
18922TIP3   OH278180   3.162   6.009  14.945  0.2124  0.2611 -0.5156
18922TIP3    H178181   3.125   5.986  15.030 -1.4855 -2.0167 -1.7446
18922TIP3    H278182   3.092   6.056  14.900  0.8023  0.7383 -0.9508
18923TIP3   OH278183   3.246   5.103  12.132  0.1708  0.3998  0.0992
18923TIP3    H178184   3.286   5.112  12.219  0.6400  0.3405 -0.1075
18923TIP3    H278185   3.152   5.101  12.149  0.2463  0.7232  0.5787
18924TIP3   OH278186   4.127   3.333  16.923 -0.1709  0.8409 -0.4781
18924TIP3    H178187   4.043   3.321  16.966 -0.1433  2.5150  0.1053
18924TIP3    H278188   4.141   3.252  16.874 -2.7969  1.1160 -1.8041
18925TIP3   OH278189   4.662   1.408  12.576 -0.1581 -0.3473  0.2779
18925TIP3    H178190   4.639   1.343  12.642  0.3641 -1.3246 -0.4728
18925TIP3    H278191   4.750   1.438  12.601 -0.0081 -0.6321  0.0958
18926TIP3   OH278192   2.577   5.614  12.243 -0.3927  0.0335  0.6891
18926TIP3    H178193   2.513   5.659  12.299  0.3718 -0.0299  1.6351
18926TIP3    H278194   2.545   5.628  12.154 -1.2760  0.7023  1.0991
18927TIP3   OH278195   4.661   4.325  13.351  0.3446  0.0613 -0.0408
18927TIP3    H178196   4.623   4.413  13.345  0.5844  0.2932  1.4159
18927TIP3    H278197   4.755   4.339  13.349  0.3845 -0.1445  0.2644
18928TIP3   OH278198   2.921   4.107   1.147 -0.0718  0.7422  0.6602
18928TIP3    H178199   2.992   4.069   1.198  0.2771 -0.8993 -0.9257
18928TIP3    H278200   2.965   4.148   1.072 -0.7412 -1.5059 -1.0973
18929TIP3   OH278201   5.326   5.955  13.230  0.1274 -0.0340  0.9203
18929TIP3    H178202   5.243   5.989  13.263 -0.0120 -0.3804  0.9310
18929TIP3    H278203   5.306   5.929  13.140  0.6786  1.5602  0.3068
18930TIP3   OH278204   5.006   2.564  12.248  0.0436 -0.2429  0.2053
18930TIP3    H178205   5.093   2.550  12.212  0.1514  1.4389 -0.2929
18930TIP3    H278206   5.020   2.614  12.328 -0.4792  0.3761 -0.0833
18931TIP3   OH278207   2.680   1.783  13.863  0.2238 -0.0466 -0.2682
18931TIP3    H178208   2.620   1.853  13.891  0.2783  0.4181 -1.2692
18931TIP3    H278209   2.622   1.715  13.829  0.2305  0.1081 -0.5918
18932TIP3   OH278210   6.619   1.091  15.120  0.2369 -0.5562 -0.2095
18932TIP3    H178211   6.613   1.027  15.191  2.7123 -1.6194 -0.8268
18932TIP3    H278212   6.589   1.044  15.043  0.2013 -0.3309 -0.3315
18933TIP3   OH278213   0.647   1.756  13.491  0.2050  0.1676 -0.1385
18933TIP3    H178214   0.661   1.834  13.544 -1.2714  0.3150  0.0821
18933TIP3    H278215   0.566   1.718  13.526 -0.3949 -0.1472 -1.7803
18934TIP3   OH278216   6.226   5.546   3.282 -0.1538  0.3148  0.1130
18934TIP3    H178217   6.189   5.458   3.280 -0.4324  0.3096  2.5568
18934TIP3    H278218   6.150   5.604   3.280 -0.0810  0.4274  0.5003
18935TIP3   OH278219   6.514   5.358  14.197 -0.2523 -0.2251 -0.3307
18935TIP3    H178220   6.528   5.368  14.103  0.4315  0.2894 -0.1776
18935TIP3    H278221   6.583   5.410  14.238  1.2593 -2.6723  0.4875
18936TIP3   OH278222   3.961   1.572   4.208  0.1569 -0.6855  0.3068
18936TIP3    H178223   4.010   1.653   4.226 -2.6668  1.3862 -0.6225
18936TIP3    H278224   3.975   1.555   4.115 -0.0792 -0.6602  0.2658
18937TIP3   OH278225   5.477   6.473   4.048 -0.4713 -0.0955 -0.5075
18937TIP3    H178226   5.480   6.474   4.143  2.6472  0.2184 -0.5202
18937TIP3    H278227   5.484   6.566   4.023  0.9503 -0.3312 -1.0287
18938TIP3   OH278228   6.643   0.274   3.540  0.2410 -0.4871 -0.0072
18938TIP3    H178229   6.667   0.277   3.633 -0.8085  0.1281  0.2538
18938TIP3    H278230   6.580   0.203   3.533 -1.2754  0.8009  0.1572
18939TIP3   OH278231   6.599   0.299  16.198 -0.4907  0.3725  0.1408
18939TIP3    H178232   6.622   0.206  16.195 -2.1161 -0.0435 -1.8969
18939TIP3    H278233   6.554   0.315  16.115 -1.8734  2.5361  1.2168
18940TIP3   OH278234   1.852   2.211   0.364  0.4330  0.2350  0.2450
18940TIP3    H178235   1.818   2.132   0.408 -1.1567  0.4879 -0.4450
18940TIP3    H278236   1.860   2.276   0.433  0.2562 -0.0753  0.5604
18941TIP3   OH278237   0.205   0.179  15.165  0.2435  0.2591  0.9634
18941TIP3    H178238   0.157   0.251  15.207 -1.9802 -1.7315  2.0319
18941TIP3    H278239   0.229   0.121  15.237  0.3824 -0.9842 -0.0514
18942TIP3   OH278240   0.232   2.569   1.098  0.4123 -0.1264 -0.4633
18942TIP3    H178241   0.159   2.508   1.105 -0.9002  1.5683  2.0999
18942TIP3    H278242   0.309   2.519   1.125 -0.4759 -0.9311  0.6615
18943TIP3   OH278243   0.996   1.262  14.684  0.1642  0.4960  0.0587
18943TIP3    H178244   1.082   1.255  14.643  0.1507 -1.8748  0.3271
18943TIP3    H278245   0.935   1.277  14.611  0.5429 -0.1066 -0.3826
18944TIP3   OH278246   5.326   2.866   4.424  0.1016 -0.5309 -0.0520
18944TIP3    H178247   5.421   2.865   4.411 -0.0888  1.2124 -2.1537
18944TIP3    H278248   5.290   2.850   4.337 -1.5326 -0.4279  0.5769
18945TIP3   OH278249   4.618   1.855   4.674 -0.2409  0.3548  0.4849
18945TIP3    H178250   4.573   1.771   4.682 -0.6770  0.6256  0.9458
18945TIP3    H278251   4.549   1.916   4.648 -0.3409  0.9405  2.0036
18946TIP3   OH278252   2.006   4.054  12.262 -0.4448  0.3370 -0.4017
18946TIP3    H178253   2.055   4.132  12.235 -1.2554  1.0414  0.1395
18946TIP3    H278254   1.915   4.081  12.263 -0.5209  0.2970  2.7607
18947TIP3   OH278255   6.547   0.397   4.089 -0.1268  0.0550 -0.7798
18947TIP3    H178256   6.482   0.334   4.120 -0.3307  0.3759 -0.5403
18947TIP3    H278257   6.608   0.406   4.162 -0.5639  0.7544 -0.4923
18948TIP3   OH278258   3.979   1.146  12.026  0.5728  0.6228 -0.2949
18948TIP3    H178259   3.962   1.053  12.043  1.6474  0.4663 -0.0186
18948TIP3    H278260   3.893   1.182  12.003  0.1403 -0.4329 -0.3925
18949TIP3   OH278261   0.868   1.709   6.069 -0.1831 -0.1379  1.2349
18949TIP3    H178262   0.901   1.629   6.110  1.6114  0.2723  0.6576
18949TIP3    H278263   0.900   1.780   6.125  0.1187  0.2885  0.5358
18950TIP3   OH278264   6.697   5.599  15.717 -0.4417 -0.0089 -0.4849
18950TIP3    H178265   6.634   5.659  15.675 -0.6795 -0.2907 -0.5371
18950TIP3    H278266   6.701   5.628  15.808  1.1180  1.4784 -0.9830
18951TIP3   OH278267   6.246   5.371   2.047 -0.4894  0.0301  0.2309
18951TIP3    H178268   6.253   5.329   1.961 -0.0394 -0.2881  0.4194
18951TIP3    H278269   6.313   5.438   2.046  0.2120 -0.6435  0.7030
18952TIP3   OH278270   0.894   2.762  11.249 -0.3242 -0.3963  0.0140
18952TIP3    H178271   0.929   2.762  11.338  0.7046 -1.4552 -0.3582
18952TIP3    H278272   0.971   2.774  11.193 -0.9044 -0.1378 -0.7558
18953TIP3   OH278273   2.373   2.850  16.781 -0.6237  0.3540  0.3813
18953TIP3    H178274   2.437   2.779  16.786 -0.3081  0.7275  3.0996
18953TIP3    H278275   2.289   2.807  16.800 -0.7006  0.3971  0.1361
18954TIP3   OH278276   0.188   5.974   4.857 -0.5213  0.4198  0.0591
18954TIP3    H178277   0.255   5.906   4.862 -0.0723  0.8953  0.5090
18954TIP3    H278278   0.208   6.022   4.776 -1.2244 -0.3735 -0.6057
18955TIP3   OH278279   4.895   2.244   4.724 -0.0116  0.3090 -0.2566
18955TIP3    H178280   4.920   2.242   4.631  0.7599 -4.5890 -0.2029
18955TIP3    H278281   4.966   2.198   4.769 -0.6576  2.0110  2.7804
18956TIP3   OH278282   0.705   4.259   0.413  0.5987  0.0159 -0.2708
18956TIP3    H178283   0.754   4.310   0.349  1.3137 -0.3645 -0.0421
18956TIP3    H278284   0.768   4.194   0.445 -0.2859 -1.0374 -0.5859
18957TIP3   OH278285   0.700   4.851   5.434 -0.8409 -0.5652  0.0298
18957TIP3    H178286   0.672   4.843   5.526 -0.1125 -1.4529  0.1868
18957TIP3    H278287   0.633   4.906   5.394 -1.1180 -0.0654  1.1194
18958TIP3   OH278288   4.079   4.574   5.808 -0.0058  0.0898 -0.1195
18958TIP3    H178289   4.045   4.595   5.894 -1.1942  0.4315 -0.6535
18958TIP3    H278290   4.136   4.647   5.786 -0.5677  0.5495 -0.0738
18959TIP3   OH278291   0.655   3.446   0.771  0.5195 -0.6531 -0.5899
18959TIP3    H178292   0.636   3.404   0.855 -0.8085  0.4170 -0.3217
18959TIP3    H278293   0.571   3.445   0.725  0.4706  1.4622 -0.6451
18960TIP3   OH278294   0.045   6.731  13.517 -0.2830  0.9223 -0.0468
18960TIP3    H178295   0.044   6.727  13.612  1.0200  1.6398  0.0122
18960TIP3    H278296   0.092   6.652  13.490 -1.8746 -0.0262 -0.1856
18961TIP3   OH278297   0.914   2.795   0.411  0.0908  0.0916 -0.1516
18961TIP3    H178298   0.855   2.720   0.400 -0.7570  0.7218  0.0208
18961TIP3    H278299   0.990   2.759   0.458 -0.0822 -0.7580 -0.5026
18962TIP3   OH278300   5.100   1.464   6.015 -0.0750  0.0742 -0.2416
18962TIP3    H178301   5.005   1.466   6.006 -0.1791  0.7333  0.8097
18962TIP3    H278302   5.123   1.550   6.049  0.6312 -0.8697  1.8341
18963TIP3   OH278303   1.252   6.735  12.598  0.4183 -0.8269 -0.1170
18963TIP3    H178304   1.208   6.741  12.683 -0.3888 -2.4385 -0.3895
18963TIP3    H278305   1.236   6.820  12.557 -0.5076 -0.5759  0.7177
18964TIP3   OH278306   1.240   3.077   2.960 -0.7517 -0.7056  0.2806
18964TIP3    H178307   1.239   3.100   3.053 -0.9065  2.1995 -0.3332
18964TIP3    H278308   1.308   3.011   2.952  1.6413  1.3298  2.0404
18965TIP3   OH278309   3.179   0.768  15.954 -0.2111  0.2682 -0.1644
18965TIP3    H178310   3.223   0.742  16.035 -0.7643 -1.7923 -0.4654
18965TIP3    H278311   3.142   0.687  15.920 -0.8997  1.2751 -1.9475
18966TIP3   OH278312   3.131   4.207   0.706  0.3661 -0.0330 -0.1999
18966TIP3    H178313   3.164   4.120   0.730 -3.3317 -1.3659  0.6915
18966TIP3    H278314   3.061   4.189   0.644 -0.8711  2.2963  0.4253
18967TIP3   OH278315   0.753   4.722  16.618 -0.0934 -0.1474 -0.5573
18967TIP3    H178316   0.775   4.672  16.698 -0.3839 -0.2792 -0.5588
18967TIP3    H278317   0.664   4.753  16.634 -0.1612 -0.1990 -0.8454
18968TIP3   OH278318   5.611   0.643  16.111 -0.7845  0.6485 -0.6113
18968TIP3    H178319   5.591   0.706  16.180 -1.1508 -1.4263  1.2907
18968TIP3    H278320   5.598   0.692  16.029 -2.8992  2.5076  0.7143
18969TIP3   OH278321   3.684   2.177  11.692  0.0716  0.3089 -0.3303
18969TIP3    H178322   3.632   2.239  11.743 -1.6558 -0.7937 -0.6860
18969TIP3    H278323   3.629   2.155  11.617  2.0641  0.9611 -2.0725
18970TIP3   OH278324   5.523   4.435   6.297  0.0917 -0.5327  0.4153
18970TIP3    H178325   5.559   4.515   6.259  0.6662 -0.8203  0.3486
18970TIP3    H278326   5.469   4.397   6.227 -0.0169 -0.3155  0.3800
18971TIP3   OH278327   3.097   4.126  11.686 -0.9019 -0.0706  0.0078
18971TIP3    H178328   3.051   4.210  11.693  2.1352  1.7330 -0.1118
18971TIP3    H278329   3.182   4.142  11.727 -0.4690 -3.3511  0.6338
18972TIP3   OH278330   6.322   2.808  13.503 -0.4178  0.0439  0.2171
18972TIP3    H178331   6.400   2.775  13.548  0.9271  0.6877 -1.5040
18972TIP3    H278332   6.296   2.736  13.445 -0.4332  0.2403 -0.0187
18973TIP3   OH278333   0.665   2.262  13.831 -0.3310 -0.2466 -0.2582
18973TIP3    H178334   0.672   2.234  13.922 -0.2149 -0.0588 -0.2092
18973TIP3    H278335   0.574   2.244  13.807 -0.7134  0.8875  0.2844
18974TIP3   OH278336   6.020   3.184   5.964  0.5646 -0.4899 -0.6408
18974TIP3    H178337   6.032   3.107   6.019  0.9908  0.3660  0.4930
18974TIP3    H278338   5.932   3.175   5.929  0.5307 -1.3769 -0.3553
18975TIP3   OH278339   2.543   3.304  16.833 -0.3868 -0.0768 -0.1715
18975TIP3    H178340   2.529   3.209  16.832 -1.1385 -0.0264 -2.6993
18975TIP3    H278341   2.531   3.330  16.741  2.6538  2.0748 -0.0802
18976TIP3   OH278342   6.496   2.100   4.201  0.1313  0.1980 -0.1794
18976TIP3    H178343   6.514   2.167   4.267  0.2986 -0.8699  0.8798
18976TIP3    H278344   6.433   2.041   4.242  0.0616 -0.3623 -1.0582
18977TIP3   OH278345   5.144   5.860   6.301  0.4041 -0.2592 -0.4726
18977TIP3    H178346   5.060   5.814   6.307 -0.3943  1.1186 -0.6043
18977TIP3    H278347   5.206   5.802   6.345 -0.8738 -0.7190  0.8140
18978TIP3   OH278348   5.571   5.249  15.347 -0.3227  0.0092 -0.3382
18978TIP3    H178349   5.627   5.311  15.302 -0.8594  0.8198  0.0780
18978TIP3    H278350   5.621   5.168  15.350 -0.3615 -0.1514 -2.5689
18979TIP3   OH278351   2.180   5.608  11.758  0.2859 -0.3756 -0.3774
18979TIP3    H178352   2.182   5.700  11.784  2.0462 -0.1384 -1.2249
18979TIP3    H278353   2.086   5.588  11.751 -0.1550  1.0859  0.6308
18980TIP3   OH278354   1.906   2.408  16.520  0.3010 -0.2243 -0.5685
18980TIP3    H178355   1.994   2.443  16.532  0.5634 -0.6389 -1.2140
18980TIP3    H278356   1.918   2.313  16.521 -0.2642 -0.2951  0.1968
18981TIP3   OH278357   1.551   6.061  16.897  0.1231  0.3710 -0.0930
18981TIP3    H178358   1.519   6.043  16.809  0.8159  2.0660 -0.7180
18981TIP3    H278359   1.473   6.055  16.952 -1.1325  3.0556 -1.3948
18982TIP3   OH278360   3.530   0.595   2.091  0.4481 -0.2433  0.3065
18982TIP3    H178361   3.584   0.543   2.150  0.1730  1.3931  2.0945
18982TIP3    H278362   3.577   0.678   2.081 -1.3168  0.9459  1.3478
18983TIP3   OH278363   0.378   2.938   0.163  0.3074 -0.3163  0.5438
18983TIP3    H178364   0.444   2.936   0.093 -0.2759 -0.9628  0.0057
18983TIP3    H278365   0.430   2.946   0.243  0.9505  1.3772  0.0034
18984TIP3   OH278366   1.595   0.796   1.810 -0.1172 -0.2028  0.4002
18984TIP3    H178367   1.666   0.813   1.748  1.0319 -0.7180  1.5251
18984TIP3    H278368   1.558   0.713   1.782  0.4019 -0.4412  0.4197
18985TIP3   OH278369   6.532   6.430   2.397 -0.3230 -0.2259  0.3227
18985TIP3    H178370   6.599   6.488   2.431  0.0247 -0.4522  0.0343
18985TIP3    H278371   6.450   6.478   2.407 -0.5087 -0.9481  3.1249
18986TIP3   OH278372   1.391   6.660   2.604  0.2195  0.5064  0.0397
18986TIP3    H178373   1.383   6.565   2.591 -0.8292  0.5187  0.4316
18986TIP3    H278374   1.485   6.677   2.605  0.4138 -0.3193 -1.5381
18987TIP3   OH278375   4.637   5.674  14.598  0.6529  0.3376 -0.0324
18987TIP3    H178376   4.643   5.583  14.571 -0.9905  0.4689 -0.9750
18987TIP3    H278377   4.667   5.724  14.522  1.1309  0.6053  0.3233
18988TIP3   OH278378   6.287   0.963   2.085 -0.2332  0.1375  0.0919
18988TIP3    H178379   6.309   1.055   2.071 -1.8500  0.8486  1.7553
18988TIP3    H278380   6.193   0.958   2.068 -0.0338 -1.3905 -0.7109
18989TIP3   OH278381   3.664   6.497   1.501  0.2836 -0.3716  0.1879
18989TIP3    H178382   3.575   6.465   1.486  0.0772  0.8645 -1.5506
18989TIP3    H278383   3.715   6.459   1.429  0.9679 -0.3168  0.6393
18990TIP3   OH278384   0.008   4.261  17.168 -0.6232  0.3474  0.0213
18990TIP3    H178385   0.093   4.258  17.212  0.1025 -0.3206 -1.3696
18990TIP3    H278386  -0.024   4.170  17.172 -1.8666  0.7899  1.5712
18991TIP3   OH278387   3.675   5.605   6.907  0.2152  0.1698  0.2855
18991TIP3    H178388   3.627   5.541   6.855 -1.1856  0.8632  0.6830
18991TIP3    H278389   3.722   5.658   6.843  0.9330 -0.8793 -0.0786
18992TIP3   OH278390   3.564   2.616  13.478  0.1309  0.1674  0.3509
18992TIP3    H178391   3.528   2.631  13.391 -1.5729 -0.3396  0.9262
18992TIP3    H278392   3.489   2.624  13.537  1.2460  0.5620  1.7921
18993TIP3   OH278393   6.724   0.236  14.897 -0.0644 -0.0181  0.3626
18993TIP3    H178394   6.645   0.207  14.851  0.3719 -1.7069  0.6155
18993TIP3    H278395   6.705   0.222  14.989 -0.8114  3.0524  0.7855
18994TIP3   OH278396   4.441   4.847  12.026  0.1479 -0.5563 -0.2369
18994TIP3    H178397   4.431   4.871  12.118  0.5799 -1.0881 -0.0477
18994TIP3    H278398   4.375   4.899  11.981 -0.4958 -0.7522  0.4515
18995TIP3   OH278399   1.384   0.939  16.277 -0.3082 -0.4463 -0.1276
18995TIP3    H178400   1.439   0.861  16.285  2.2159  1.2305  0.1080
18995TIP3    H278401   1.431   1.007  16.325 -1.3284  1.7473 -1.9920
18996TIP3   OH278402   3.170   3.165  11.839 -0.7769  0.0583 -0.3016
18996TIP3    H178403   3.135   3.101  11.901  1.3624  0.6136  1.6158
18996TIP3    H278404   3.106   3.236  11.838 -2.8385 -1.6835 -1.9317
18997TIP3   OH278405   4.167   0.546  16.461  0.0147  0.1706 -0.0205
18997TIP3    H178406   4.181   0.579  16.372  1.0302  0.6488  0.2986
18997TIP3    H278407   4.081   0.505  16.458 -0.4403  1.1328 -0.9538
18998TIP3   OH278408   4.261   5.889  10.846  0.1576 -0.0763 -0.4623
18998TIP3    H178409   4.256   5.963  10.785  0.0510  0.5896  0.3352
18998TIP3    H278410   4.354   5.872  10.856  0.1628 -0.5024 -1.1708
18999TIP3   OH278411   0.611   5.620  17.102 -0.3604  0.0427 -0.0991
18999TIP3    H178412   0.685   5.681  17.095 -0.5258  0.0478 -3.0508
18999TIP3    H278413   0.617   5.586  17.192  4.5344 -1.5360 -0.7255
19000TIP3   OH278414   6.443   3.111  11.636  0.0752  1.1858  0.2694
19000TIP3    H178415   6.400   3.118  11.722  1.6163 -2.1773  1.5038
19000TIP3    H278416   6.375   3.076  11.579 -0.0932  0.2413  1.0204
19001TIP3   OH278417   5.320   1.060   3.946 -0.5554 -0.3943  0.3420
19001TIP3    H178418   5.256   1.125   3.915  0.7731 -0.3791 -2.7166
19001TIP3    H278419   5.404   1.105   3.940  0.0235 -1.1933  1.9844
19002TIP3   OH278420   4.766   6.375   5.358  0.4217 -0.5955 -0.0881
19002TIP3    H178421   4.717   6.405   5.281 -0.7062 -1.5605  0.2266
19002TIP3    H278422   4.715   6.407   5.433  1.1583 -0.2246  0.2619
19003TIP3   OH278423   2.207   1.593  12.927 -0.2149  0.5150 -0.6087
19003TIP3    H178424   2.115   1.573  12.911  0.0330  0.0013 -1.4589
19003TIP3    H278425   2.236   1.640  12.849  0.1476  1.0208 -0.1800
19004TIP3   OH278426   1.145   1.479  11.790 -0.0353  0.0563 -0.0999
19004TIP3    H178427   1.169   1.562  11.749  1.5574 -0.8698 -1.1354
19004TIP3    H278428   1.056   1.494  11.823  1.0225  2.9329  1.8912
19005TIP3   OH278429   3.376   4.728  13.429 -0.7687 -0.4406  0.1461
19005TIP3    H178430   3.445   4.786  13.396  0.1910 -0.8568  1.3641
19005TIP3    H278431   3.317   4.717  13.355 -1.0485  2.1715 -0.1204
19006TIP3   OH278432   0.450   0.016  16.615  0.2496  0.8046 -0.6196
19006TIP3    H178433   0.474  -0.061  16.667  0.1261  0.8122 -0.5512
19006TIP3    H278434   0.427   0.082  16.680  0.1462  0.8310 -0.6844
19007TIP3   OH278435   2.494   1.881   6.848  0.0807  0.0426 -0.4695
19007TIP3    H178436   2.560   1.938   6.807  0.6696 -0.0054  0.3950
19007TIP3    H278437   2.545   1.812   6.890 -0.6047 -0.8150 -1.0263
19008TIP3   OH278438   5.562   5.016  13.038  0.1838 -0.4062  1.2275
19008TIP3    H178439   5.532   5.065  12.962  1.1378 -0.7123  0.6467
19008TIP3    H278440   5.621   5.076  13.084  0.5805 -0.6613  1.0514
19009TIP3   OH278441   2.485   2.229  16.080  0.1381  0.0331  0.3409
19009TIP3    H178442   2.570   2.186  16.089 -0.2593 -1.0185 -0.6717
19009TIP3    H278443   2.489   2.303  16.141  1.0466 -1.1205  1.7266
19010TIP3   OH278444   1.421   0.028   2.235  0.4246 -0.4014 -0.1585
19010TIP3    H178445   1.491   0.010   2.173  0.3937 -1.5064  0.1139
19010TIP3    H278446   1.351  -0.034   2.212 -0.8270  1.2233 -0.9568
19011TIP3   OH278447   1.981   6.159  15.863  0.2863  0.0813  0.6394
19011TIP3    H178448   1.913   6.150  15.929  0.0972  1.0234  0.5908
19011TIP3    H278449   2.053   6.204  15.908  0.2028  0.6198  0.2418
19012TIP3   OH278450   1.637   0.311  11.823 -0.1879 -0.2402 -0.4630
19012TIP3    H178451   1.674   0.237  11.872 -2.6489 -0.5312  1.1128
19012TIP3    H278452   1.570   0.347  11.881 -0.4780  1.9676 -2.0531
19013TIP3   OH278453   5.943   6.615   1.026 -0.2957  0.2725 -0.4634
19013TIP3    H178454   6.034   6.587   1.022  0.0564  0.8768  1.7750
19013TIP3    H278455   5.899   6.547   1.077 -0.6768  0.8870  0.0497
19014TIP3   OH278456   6.180   5.827  12.762  0.3683  0.0410  0.5911
19014TIP3    H178457   6.194   5.736  12.737  0.1441  0.3037 -0.5480
19014TIP3    H278458   6.092   5.847  12.730  0.1283  0.4415  1.4894
19015TIP3   OH278459   0.608   3.804   4.237 -0.1449 -0.1074 -0.0015
19015TIP3    H178460   0.525   3.777   4.276 -0.4780  0.4977 -0.2833
19015TIP3    H278461   0.593   3.893   4.207 -0.1394 -0.7549 -2.1155
19016TIP3   OH278462   1.822   4.303   3.828  0.5950  0.0584  0.4228
19016TIP3    H178463   1.775   4.386   3.839  2.5158  1.1809  0.4539
19016TIP3    H278464   1.817   4.284   3.734  2.0059  1.3852  0.0494
19017TIP3   OH278465   3.435   4.380  12.729 -0.0307 -0.2175 -0.5287
19017TIP3    H178466   3.353   4.332  12.744 -0.0454 -0.3228 -0.9226
19017TIP3    H278467   3.435   4.449  12.795 -0.9460  0.4207 -1.1681
19018TIP3   OH278468   0.171   3.424  12.633 -0.4286 -0.6855 -0.1392
19018TIP3    H178469   0.215   3.463  12.708  1.0220 -1.2802 -0.6446
19018TIP3    H278470   0.185   3.329  12.643 -1.3010 -0.8667 -0.5085
19019TIP3   OH278471   3.057   5.895  12.256  0.0161 -0.4507  0.4269
19019TIP3    H178472   3.015   5.975  12.224 -0.0681 -0.8877 -0.6117
19019TIP3    H278473   2.997   5.861  12.322 -0.1968  0.0818  0.5114
19020TIP3   OH278474   2.196   2.886   0.530 -0.2860 -0.3090  0.1241
19020TIP3    H178475   2.202   2.816   0.595 -0.8784  0.6636  1.2786
19020TIP3    H278476   2.202   2.841   0.446  1.2620 -1.5379  0.8318
19021TIP3   OH278477   0.418   2.104   3.940 -1.0351 -0.1733 -0.1114
19021TIP3    H178478   0.356   2.034   3.957  0.0347 -0.7530  1.7169
19021TIP3    H278479   0.402   2.167   4.010  0.3630 -0.3054  0.3548
19022TIP3   OH278480   0.577   3.767  11.090  0.2318 -0.3442 -0.1423
19022TIP3    H178481   0.582   3.852  11.135  0.2282 -1.4483  2.0217
19022TIP3    H278482   0.578   3.791  10.997  0.3356  2.0260  0.3830
19023TIP3   OH278483   4.255   2.003   6.370  0.6202 -0.3168 -0.7779
19023TIP3    H178484   4.299   1.995   6.285  2.1175  0.3065 -0.0882
19023TIP3    H278485   4.315   2.055   6.423  0.9042 -2.7562  1.4776
19024TIP3   OH278486   4.321   0.561   3.298  0.6820 -0.6247 -0.7790
19024TIP3    H178487   4.230   0.584   3.278  0.7492  0.6577  0.2703
19024TIP3    H278488   4.334   0.476   3.255 -1.2446 -1.2291 -0.2875
19025TIP3   OH278489   6.123   0.080  16.013 -0.2385  0.1474  0.8099
19025TIP3    H178490   6.124   0.090  15.918  0.1336  0.3013  0.8284
19025TIP3    H278491   6.030   0.075  16.036 -0.3233 -1.5986  0.2578
19026TIP3   OH278492   4.291   6.705  11.999  0.9098 -0.3233  0.6163
19026TIP3    H178493   4.266   6.715  12.090  0.5580  1.1292  0.3873
19026TIP3    H278494   4.227   6.642  11.963 -1.0499  1.5357  0.6206
19027TIP3   OH278495   2.097   6.692  11.748  0.1759 -0.0285  0.0295
19027TIP3    H178496   2.098   6.694  11.652 -0.3471  2.0039  0.0226
19027TIP3    H278497   2.075   6.602  11.769 -0.7715 -0.2818 -1.7963
19028TIP3   OH278498   0.289   3.557   3.676 -0.6012  0.7812  0.5361
19028TIP3    H178499   0.209   3.557   3.729 -1.0248  2.0087 -0.0724
19028TIP3    H278500   0.258   3.562   3.586  0.1342 -0.6374  0.1816
19029TIP3   OH278501   2.899   5.563   1.407 -0.3998  0.4578  0.5499
19029TIP3    H178502   2.992   5.542   1.399 -0.6890 -1.2433  1.3198
19029TIP3    H278503   2.855   5.479   1.401 -1.9035  1.2344  0.2865
19030TIP3   OH278504   0.243   5.527  11.736 -0.0977  0.0543 -0.6337
19030TIP3    H178505   0.228   5.508  11.643  0.9862 -0.0349 -0.7941
19030TIP3    H278506   0.215   5.447  11.781 -1.3181  0.3624 -0.8079
19031TIP3   OH278507   2.682   2.222  13.738  0.2464  0.1026  0.5776
19031TIP3    H178508   2.621   2.217  13.664 -0.7788  2.5627  1.1488
19031TIP3    H278509   2.767   2.235  13.697 -0.0840 -0.0911 -0.1963
19032TIP3   OH278510   0.694   0.301  14.620 -0.2761 -0.7588 -0.0631
19032TIP3    H178511   0.786   0.306  14.593  0.2857  0.0953  1.8565
19032TIP3    H278512   0.683   0.375  14.679 -3.2447  1.5742 -3.1251
19033TIP3   OH278513   4.628   2.874   1.161  0.2227  0.6913 -0.3597
19033TIP3    H178514   4.717   2.871   1.197  0.3567  0.2497 -0.7120
19033TIP3    H278515   4.583   2.940   1.213  0.0525 -0.7620  1.4438
19034TIP3   OH278516   2.151   5.605   6.559 -0.0342  0.0155 -0.5009
19034TIP3    H178517   2.163   5.694   6.590  2.3158 -0.2485 -0.5215
19034TIP3    H278518   2.197   5.602   6.475 -2.0556 -0.6233 -1.6524
19035TIP3   OH278519   4.756   0.560  16.839 -0.0556 -0.1769  0.0945
19035TIP3    H178520   4.690   0.628  16.823 -0.8833 -0.7994  0.7532
19035TIP3    H278521   4.834   0.591  16.794 -0.0866  1.7600  1.2837
19036TIP3   OH278522   5.146   4.194  12.298  0.6138 -0.1613 -0.2741
19036TIP3    H178523   5.233   4.196  12.259  0.7255  1.6647 -0.0408
19036TIP3    H278524   5.152   4.255  12.372 -0.9490  0.2653 -0.4637
19037TIP3   OH278525   0.216   0.150   0.716  0.1046 -0.0896  0.6606
19037TIP3    H178526   0.172   0.163   0.800 -0.4501  1.9644  0.0874
19037TIP3    H278527   0.284   0.218   0.714 -0.1810  0.1793 -0.7350
19038TIP3   OH278528   5.016   6.104   5.182 -0.0127 -0.3568  0.1520
19038TIP3    H178529   5.061   6.185   5.157 -1.0315  0.1379 -0.1239
19038TIP3    H278530   4.967   6.126   5.261 -0.0638 -0.7900  0.2464
19039TIP3   OH278531   5.117   0.612   2.574  0.6334 -0.4478 -0.0873
19039TIP3    H178532   5.025   0.639   2.573  0.0894 -2.0746  0.8124
19039TIP3    H278533   5.124   0.550   2.501  0.3949 -2.0001  1.1357
19040TIP3   OH278534   6.743   2.948   5.275  0.6137  0.2871  0.4931
19040TIP3    H178535   6.835   2.932   5.295  1.3080  2.2452 -0.8285
19040TIP3    H278536   6.709   2.992   5.353  1.0177  0.2545  0.6922
19041TIP3   OH278537   5.005   4.722   3.301 -0.2060  0.1395 -0.0305
19041TIP3    H178538   4.978   4.644   3.254 -0.5504 -0.6944  1.4817
19041TIP3    H278539   4.926   4.749   3.349  0.5052  0.0797  1.2113
19042TIP3   OH278540   2.090   4.970  11.284 -0.3115  0.0302 -0.3404
19042TIP3    H178541   2.040   5.001  11.359  0.4019  1.7550 -0.5299
19042TIP3    H278542   2.059   5.022  11.210 -0.0266 -0.6609 -0.9603
19043TIP3   OH278543   3.586   5.926  17.055  0.8599  0.4801 -0.4814
19043TIP3    H178544   3.646   5.886  16.992  1.2027  1.2868 -0.6864
19043TIP3    H278545   3.521   5.858  17.073  1.3370 -0.1080 -0.9241
19044TIP3   OH278546   4.880   2.955   4.529 -0.9889 -0.8794  0.4985
19044TIP3    H178547   4.971   2.976   4.549 -0.5648 -2.3343  0.2617
19044TIP3    H278548   4.846   2.917   4.611 -1.5535  0.1298  0.7469
19045TIP3   OH278549   2.840   4.668   6.481  0.0344 -0.5817 -0.6601
19045TIP3    H178550   2.833   4.723   6.560 -0.8161  1.2525 -1.9346
19045TIP3    H278551   2.854   4.580   6.515  1.8249  0.4286  1.4899
19046TIP3   OH278552   0.775   3.959   1.198 -0.5298 -0.8926 -0.0984
19046TIP3    H178553   0.774   3.956   1.293 -2.1293 -3.8226 -0.1158
19046TIP3    H278554   0.683   3.954   1.172 -0.7217  4.5901 -1.9424
19047TIP3   OH278555   5.629   2.546   0.917 -0.3061  0.1287 -0.6566
19047TIP3    H178556   5.680   2.589   0.985 -0.7346 -0.3510 -0.0193
19047TIP3    H278557   5.617   2.613   0.850  0.6181  0.4257 -0.5329
19048TIP3   OH278558   2.426   1.205  14.751 -0.1135  0.2310  0.7070
19048TIP3    H178559   2.396   1.114  14.752 -4.0012  1.3271  0.2791
19048TIP3    H278560   2.437   1.226  14.658 -3.6492  1.2877  0.3845
19049TIP3   OH278561   3.114   1.631   2.617 -0.2098  0.4203  0.1464
19049TIP3    H178562   3.139   1.718   2.646 -0.8860  1.7209 -2.8521
19049TIP3    H278563   3.021   1.624   2.639 -0.7032  1.3766 -1.4282
19050TIP3   OH278564   1.808   5.878  14.002 -0.0070  0.2070 -0.3467
19050TIP3    H178565   1.806   5.830  13.919 -1.4307 -0.3451 -0.0132
19050TIP3    H278566   1.848   5.817  14.064  0.6390  0.4519 -0.5178
19051TIP3   OH278567   5.524   2.143   3.644  0.4797 -0.1436  0.3422
19051TIP3    H178568   5.531   2.226   3.596  1.1970  0.3730  1.3026
19051TIP3    H278569   5.610   2.103   3.634 -0.0402 -1.0653 -0.6005
19052TIP3   OH278570   2.780   4.683  15.384  0.0192  0.1362  0.8625
19052TIP3    H178571   2.766   4.649  15.296  0.9166  0.0010  0.7577
19052TIP3    H278572   2.723   4.630  15.440  1.1607 -1.3770  0.6655
19053TIP3   OH278573   1.486   4.486  16.253  0.3178  0.2154  0.7105
19053TIP3    H178574   1.463   4.512  16.164 -0.9471 -0.6550  0.7589
19053TIP3    H278575   1.541   4.408  16.242  0.3928  0.2732  0.6794
19054TIP3   OH278576   4.952   1.626   2.889 -0.5064 -0.0597  0.4522
19054TIP3    H178577   5.040   1.607   2.922  0.3613 -0.2483 -1.8392
19054TIP3    H278578   4.944   1.572   2.810 -2.4286  0.4822  0.2429
19055TIP3   OH278579   3.964   4.326   4.509  0.6933  0.3755  0.1968
19055TIP3    H178580   4.020   4.372   4.571  0.6606  1.4026 -0.4964
19055TIP3    H278581   3.879   4.370   4.516  0.3137 -0.3657  0.3670
19056TIP3   OH278582   5.122   2.465   4.333  0.3462 -0.0248  0.4298
19056TIP3    H178583   5.201   2.520   4.326  1.2522 -1.3605 -0.1740
19056TIP3    H278584   5.070   2.489   4.256  0.3573  0.5482  0.5941
19057TIP3   OH278585   2.019   1.546  14.338 -1.2135 -0.5121 -0.1778
19057TIP3    H178586   2.057   1.460  14.357 -0.6191  0.2335  2.3832
19057TIP3    H278587   1.935   1.546  14.386 -0.7403  0.6525  0.6966
19058TIP3   OH278588   6.736   0.721   5.487 -0.0217 -0.1034  0.0453
19058TIP3    H178589   6.727   0.794   5.426  2.7448 -0.1207 -0.4837
19058TIP3    H278590   6.806   0.668   5.451 -1.0145 -2.3098  1.1758
19059TIP3   OH278591   4.905   3.714  14.887 -0.4363 -0.0314 -0.9599
19059TIP3    H178592   4.839   3.693  14.820 -0.1278 -0.3893 -1.1497
19059TIP3    H278593   4.854   3.752  14.959 -0.9985 -1.2798 -0.6599
19060TIP3   OH278594   2.469   2.677   0.331 -0.4553  0.2564 -0.0885
19060TIP3    H178595   2.377   2.664   0.356 -0.1003 -0.4403  0.9207
19060TIP3    H278596   2.504   2.589   0.321  0.4033  0.4891  0.6987
19061TIP3   OH278597   4.828   4.795  14.852 -0.6454  0.2979 -1.0064
19061TIP3    H178598   4.769   4.740  14.904 -0.0031  0.0684 -0.5153
19061TIP3    H278599   4.776   4.819  14.775 -1.6402  0.7101 -0.2346
19062TIP3   OH278600   3.087   0.361   5.733  0.2509  0.3960  0.0843
19062TIP3    H178601   3.170   0.383   5.775 -0.0193  0.3262  0.6540
19062TIP3    H278602   3.063   0.276   5.768  0.1239  0.2401 -0.3676
19063TIP3   OH278603   5.281   3.431   1.128  0.1160 -0.0855 -0.3003
19063TIP3    H178604   5.334   3.351   1.123  1.6915  0.9309 -0.3267
19063TIP3    H278605   5.217   3.412   1.196 -1.1142 -2.2407 -1.9035
19064TIP3   OH278606   5.477   5.404   1.618 -0.3030  0.0028  0.1014
19064TIP3    H178607   5.536   5.334   1.644  0.6813  0.6566 -0.2747
19064TIP3    H278608   5.394   5.361   1.598  0.3680 -1.0863 -0.4049
19065TIP3   OH278609   5.181   1.987   0.466  0.0356  0.7664  0.3010
19065TIP3    H178610   5.214   1.969   0.554  0.0035 -0.5110  0.0743
19065TIP3    H278611   5.090   1.959   0.468  0.5718 -1.2103 -0.6738
19066TIP3   OH278612   5.286   2.560  16.777 -0.6132 -0.3324  0.3039
19066TIP3    H178613   5.227   2.631  16.751 -1.6952 -2.0615 -2.3980
19066TIP3    H278614   5.228   2.489  16.802  0.3229 -1.5221 -0.7737
19067TIP3   OH278615   0.309   0.045  15.460 -0.1694  0.4095  0.1463
19067TIP3    H178616   0.231  -0.011  15.459  0.0679 -0.0281  1.9664
19067TIP3    H278617   0.381  -0.016  15.479  0.6545  0.8089 -1.4812
19068TIP3   OH278618   1.582   6.438   6.546  0.2853 -0.1563  0.6969
19068TIP3    H178619   1.669   6.412   6.515 -0.3198 -0.9750 -0.4125
19068TIP3    H278620   1.549   6.362   6.595 -0.7673 -0.8855 -1.0235
19069TIP3   OH278621   3.737   5.013   6.081  0.4194  0.3943  0.3324
19069TIP3    H178622   3.709   4.957   6.154  0.7856 -2.3140 -1.4348
19069TIP3    H278623   3.775   5.090   6.123 -0.1373 -0.6461  2.9763
19070TIP3   OH278624   3.430   5.111   1.465 -0.3253  0.1924  0.0193
19070TIP3    H178625   3.353   5.055   1.480  1.1028 -1.2860  2.6248
19070TIP3    H278626   3.491   5.056   1.417 -0.4043  0.9396 -0.9615
19071TIP3   OH278627   6.110   0.365  11.643  0.2130 -0.4558  0.0243
19071TIP3    H178628   6.118   0.373  11.548  0.7510  0.1600  0.1079
19071TIP3    H278629   6.061   0.443  11.669  0.2575 -0.5083  0.2681
19072TIP3   OH278630   2.126   3.964   5.246 -0.0728  0.3952 -0.1313
19072TIP3    H178631   2.154   3.917   5.168 -0.0871  0.3865 -0.1312
19072TIP3    H278632   2.142   3.903   5.318 -2.1572 -0.4798 -0.3544
19073TIP3   OH278633   0.214   5.846  14.130 -0.1675 -0.1158 -0.1773
19073TIP3    H178634   0.125   5.843  14.166  0.3649 -2.6326  1.0861
19073TIP3    H278635   0.264   5.896  14.194 -0.1049 -1.0994  0.5657
19074TIP3   OH278636   1.160   3.692  16.793 -0.0584  0.0247 -0.5198
19074TIP3    H178637   1.146   3.627  16.862 -1.4135  0.4092 -0.3916
19074TIP3    H278638   1.072   3.707  16.757  0.3288  1.3098 -0.9785
19075TIP3   OH278639   2.984   3.606  16.058  0.2335 -0.2961  0.7073
19075TIP3    H178640   3.041   3.683  16.058  0.9117 -0.7669  1.7275
19075TIP3    H278641   2.972   3.585  15.966  0.3572  0.7971  0.4293
19076TIP3   OH278642   3.822   5.437   2.901 -0.5028 -0.4526  0.5636
19076TIP3    H178643   3.916   5.429   2.916 -0.3592 -0.1893 -0.1769
19076TIP3    H278644   3.794   5.506   2.961 -0.0133  0.2800 -0.0420
19077TIP3   OH278645   4.932   1.627   5.094 -0.2101 -0.0510  0.1437
19077TIP3    H178646   4.991   1.568   5.140 -0.4477  0.5378  1.2282
19077TIP3    H278647   4.982   1.657   5.018  0.5401 -0.2661  0.5509
19078TIP3   OH278648   1.943   3.749   2.777  0.1376 -0.0380  0.1784
19078TIP3    H178649   1.939   3.698   2.858  0.9552 -0.6677 -0.1657
19078TIP3    H278650   2.036   3.766   2.764 -0.0200  0.3763 -0.4305
19079TIP3   OH278651   1.935   2.084  15.200 -0.7073 -0.7018  0.0104
19079TIP3    H178652   1.882   2.022  15.150 -0.7490 -2.7412  2.3911
19079TIP3    H278653   1.873   2.150  15.230 -1.0524 -0.6328 -0.8187
19080TIP3   OH278654   2.136   2.968   1.703  0.7301  0.2818  0.2414
19080TIP3    H178655   2.058   2.989   1.755  0.0071 -0.4981 -0.4917
19080TIP3    H278656   2.135   3.032   1.632 -1.0931 -1.6431 -1.6051
19081TIP3   OH278657   0.308   5.532   3.973  0.0540  0.0248 -1.0137
19081TIP3    H178658   0.388   5.583   3.986  0.4514 -0.9190  0.5634
19081TIP3    H278659   0.328   5.477   3.897  0.8029  0.0115 -0.8177
19082TIP3   OH278660   1.397   2.004   0.870  0.9271  0.3832  0.3598
19082TIP3    H178661   1.315   1.974   0.831  1.8035  1.8599 -3.0182
19082TIP3    H278662   1.426   1.932   0.926 -2.3442 -0.3743  1.2679
19083TIP3   OH278663   5.125   5.762   5.456  0.0828 -0.4578 -0.3313
19083TIP3    H178664   5.086   5.765   5.543  0.2813  1.0271 -0.2643
19083TIP3    H278665   5.070   5.701   5.407 -0.1280 -1.1735  0.7776
19084TIP3   OH278666   3.673   1.767  10.446  0.0657 -0.4224 -0.0527
19084TIP3    H178667   3.740   1.702  10.465  1.2783  1.2233  1.5805
19084TIP3    H278668   3.663   1.816  10.527 -1.5980  0.7438 -0.9032
19085TIP3   OH278669   2.982   5.635  15.905 -0.0280 -0.5460 -0.0154
19085TIP3    H178670   2.890   5.633  15.880 -0.4544 -2.1446  1.5328
19085TIP3    H278671   3.001   5.728  15.921 -1.0167 -0.0609 -1.4503
19086TIP3   OH278672   2.083   3.939   2.974 -0.5670 -0.2114 -0.2112
19086TIP3    H178673   2.054   3.900   3.056  0.0579 -0.6180 -0.1778
19086TIP3    H278674   2.146   3.877   2.938  1.1990  1.1871  0.3309
19087TIP3   OH278675   0.896   0.404   1.459 -0.2563 -0.2570  0.2252
19087TIP3    H178676   0.909   0.368   1.371 -1.2999  2.9597 -1.3957
19087TIP3    H278677   0.969   0.465   1.470 -1.7992  1.6475  0.2471
19088TIP3   OH278678   4.549   0.646  11.707 -0.3039  0.7242  0.2189
19088TIP3    H178679   4.616   0.714  11.716  0.8410 -0.3830  0.2747
19088TIP3    H278680   4.468   0.695  11.692  0.0995  2.2065  2.3147
19089TIP3   OH278681   0.103   1.281  10.137 -0.5685  0.0086 -0.3632
19089TIP3    H178682   0.138   1.232  10.211 -1.3532  0.5185  0.3612
19089TIP3    H278683   0.062   1.358  10.177  1.7964  2.0150 -1.5064
19090TIP3   OH278684   5.288   0.819   4.422 -0.1628 -0.0484 -0.1600
19090TIP3    H178685   5.288   0.748   4.358 -1.0762 -0.1787 -0.0223
19090TIP3    H278686   5.267   0.897   4.371  0.4576  0.0654 -0.2456
19091TIP3   OH278687   6.455   5.362  10.872 -0.2065 -0.3413 -0.3860
19091TIP3    H178688   6.430   5.344  10.782  0.7720  2.0239 -1.1967
19091TIP3    H278689   6.435   5.454  10.885  3.7357  0.6102  0.3000
19092TIP3   OH278690   3.739   2.044   3.248  0.3069  0.2941 -0.4984
19092TIP3    H178691   3.687   2.046   3.328 -2.7943 -0.2237 -2.3121
19092TIP3    H278692   3.799   1.970   3.260 -0.4252 -0.0728  1.1197
19093TIP3   OH278693   0.115   1.301  10.461  0.5305 -0.3421 -0.3478
19093TIP3    H178694   0.046   1.250  10.418  0.7740 -1.8232  0.9025
19093TIP3    H278695   0.179   1.235  10.489  1.5403  0.8168  0.1297
19094TIP3   OH278696   6.458   2.487   5.237  0.8190 -0.2275  0.4004
19094TIP3    H178697   6.395   2.553   5.207  0.0888 -0.1300  2.0536
19094TIP3    H278698   6.405   2.422   5.284  1.9188 -0.0749  1.9389
19095TIP3   OH278699   5.844   2.756   1.749 -0.0692  0.5503 -0.1465
19095TIP3    H178700   5.929   2.742   1.790 -0.9509  1.9178  2.3927
19095TIP3    H278701   5.863   2.766   1.656  2.4693  0.3900  0.2953
19096TIP3   OH278702   4.116   5.324   2.708 -0.2689 -0.3219 -0.5229
19096TIP3    H178703   4.166   5.335   2.627 -0.3224  0.9499 -0.3986
19096TIP3    H278704   4.097   5.413   2.736 -0.1402 -0.7483  0.9636
19097TIP3   OH278705   6.196   4.082  13.165 -0.0706  0.0246 -0.0389
19097TIP3    H178706   6.120   4.136  13.144  0.3913  0.5146 -0.4787
19097TIP3    H278707   6.242   4.072  13.082  0.1264 -0.6231  0.1402
19098TIP3   OH278708   6.770   1.492  14.975  0.0544 -0.0240  0.0230
19098TIP3    H178709   6.860   1.522  14.968 -0.1973  0.7912  0.2277
19098TIP3    H278710   6.729   1.552  15.037 -0.1275 -1.5587  1.4693
19099TIP3   OH278711   2.221   2.672  15.935  0.2820  0.5434  0.4572
19099TIP3    H178712   2.148   2.701  15.880  0.7595 -0.8032 -0.9615
19099TIP3    H278713   2.299   2.692  15.883  0.8124  0.1497  1.0927
19100TIP3   OH278714   5.604   2.055   0.249  0.4242  0.2118 -0.1557
19100TIP3    H178715   5.556   2.040   0.167 -1.4822  0.1871  0.9078
19100TIP3    H278716   5.616   1.967   0.286  0.7782  0.2751 -0.1134
19101TIP3   OH278717   0.221   2.641   6.237  0.0009  0.4360  0.3894
19101TIP3    H178718   0.126   2.637   6.246  0.1902 -0.6422  3.0397
19101TIP3    H278719   0.238   2.621   6.145 -2.2700 -1.2063  0.2493
19102TIP3   OH278720   2.519   2.886  15.228 -0.1973 -0.4352 -0.2139
19102TIP3    H178721   2.586   2.948  15.257  0.3377 -0.5563 -1.1533
19102TIP3    H278722   2.556   2.846  15.149 -1.0830 -1.0151 -0.3464
19103TIP3   OH278723   0.206   5.244   0.161 -0.0242  0.4429 -0.8023
19103TIP3    H178724   0.186   5.210   0.074 -1.6781  1.4911 -0.8959
19103TIP3    H278725   0.189   5.171   0.221  0.3504 -0.0457 -1.2835
19104TIP3   OH278726   2.340   4.079   4.206  0.1910  0.5716 -0.5198
19104TIP3    H178727   2.334   4.036   4.120  0.5851  0.0333 -0.2820
19104TIP3    H278728   2.292   4.162   4.195 -0.0555  0.3489 -1.1585
19105TIP3   OH278729   2.777   5.869   1.329 -0.1856  0.6287 -0.3326
19105TIP3    H178730   2.798   5.939   1.391  0.7528  0.8334 -0.8759
19105TIP3    H278731   2.860   5.826   1.312 -0.8789 -1.3162  0.7894
19106TIP3   OH278732   0.211   3.317  13.378  0.1401 -0.2187 -0.1776
19106TIP3    H178733   0.298   3.283  13.356  0.8887  0.3231  1.6936
19106TIP3    H278734   0.150   3.250  13.347  1.4588 -2.5516  1.9184
19107TIP3   OH278735   2.392   0.701  11.099 -0.1111  0.3262  0.9601
19107TIP3    H178736   2.311   0.742  11.070  0.3034 -1.0452 -2.6302
19107TIP3    H278737   2.370   0.608  11.110  0.6164  0.2131  1.6330
19108TIP3   OH278738   5.269   2.278  16.466 -0.1292  0.3617  0.2159
19108TIP3    H178739   5.307   2.306  16.549  3.5572 -0.7899 -0.8547
19108TIP3    H278740   5.281   2.183  16.464 -0.8575  0.2700 -1.2817
19109TIP3   OH278741   1.317   1.805   0.099 -0.0815 -0.5460 -0.2225
19109TIP3    H178742   1.394   1.843   0.141  0.7836 -1.7220 -0.7222
19109TIP3    H278743   1.348   1.773   0.015 -1.4271  0.2085 -1.0444
19110TIP3   OH278744   5.765   5.827  15.923  0.5800  0.5005 -0.6631
19110TIP3    H178745   5.700   5.788  15.980  1.3724 -1.2850 -0.9153
19110TIP3    H278746   5.847   5.823  15.973  0.9896  0.3365 -1.3283
19111TIP3   OH278747   4.471   1.816  12.614 -0.0513  0.1354 -0.3290
19111TIP3    H178748   4.535   1.883  12.590 -0.8700  1.6629  1.4718
19111TIP3    H278749   4.511   1.769  12.687  0.2437 -0.9656 -1.1659
19112TIP3   OH278750   5.534   6.489  12.081 -0.3728 -0.2224 -0.0891
19112TIP3    H178751   5.526   6.394  12.092 -0.7896 -0.2783 -0.8470
19112TIP3    H278752   5.601   6.515  12.145  0.7749 -1.2262 -0.8471
19113TIP3   OH278753   1.840   2.558   0.938 -0.5780 -0.4033 -0.3133
19113TIP3    H178754   1.758   2.515   0.915 -0.6256 -1.2929  1.3959
19113TIP3    H278755   1.839   2.563   1.033 -0.5162  3.3264 -0.3467
19114TIP3   OH278756   1.951   6.188  11.778 -0.5057  0.2927 -0.9940
19114TIP3    H178757   1.991   6.231  11.854  0.0778 -1.5637 -0.1911
19114TIP3    H278758   2.018   6.191  11.710 -0.3573  0.3741 -0.8453
19115TIP3   OH278759   5.071   1.258   3.838  0.2196 -0.4417 -0.1740
19115TIP3    H178760   5.108   1.346   3.825  1.4359 -0.5390  2.0926
19115TIP3    H278761   4.995   1.255   3.780  0.3972  1.9539 -0.6285
19116TIP3   OH278762   6.355   5.090   4.009  0.2641  0.0766  0.7767
19116TIP3    H178763   6.414   5.157   3.975 -0.2043 -0.1322 -0.4737
19116TIP3    H278764   6.287   5.080   3.943  0.9276 -2.4331  0.3355
19117TIP3   OH278765   2.794   1.113  17.272 -0.2803  0.1606 -0.9957
19117TIP3    H178766   2.760   1.181  17.330  2.9289  1.3189 -0.2971
19117TIP3    H278767   2.777   1.031  17.319  0.3265  0.9098  0.6041
19118TIP3   OH278768   2.846   3.432  14.030  0.8903 -0.0825  0.0550
19118TIP3    H178769   2.759   3.393  14.034 -0.0605  1.9291 -0.1531
19118TIP3    H278770   2.865   3.458  14.120  1.2464 -0.4394  0.0864
19119TIP3   OH278771   4.578   2.306   0.704  0.3099  0.0373  0.3572
19119TIP3    H178772   4.523   2.228   0.695 -1.0159  0.8427  1.2084
19119TIP3    H278773   4.525   2.377   0.669  0.4420  0.9843  1.9808
19120TIP3   OH278774   4.644   6.068   4.637  0.0538  0.6860  0.0349
19120TIP3    H178775   4.636   6.081   4.732  2.4148  0.0626  0.3873
19120TIP3    H278776   4.736   6.044   4.624 -0.9836 -3.0093 -1.9408
19121TIP3   OH278777   1.735   0.154  15.824 -0.6407 -0.2731 -0.4591
19121TIP3    H178778   1.744   0.219  15.755  1.2071  0.8906  0.7788
19121TIP3    H278779   1.755   0.070  15.781  0.1634  0.3812 -1.4185
19122TIP3   OH278780   0.017   1.927  13.864  0.1454 -0.9627 -0.5270
19122TIP3    H178781   0.100   1.881  13.850  0.7898  0.2351 -0.7711
19122TIP3    H278782   0.022   2.003  13.806 -2.1971 -2.1456 -2.4439
19123TIP3   OH278783   2.392   2.204  12.999  0.0015  0.3490  0.1437
19123TIP3    H178784   2.440   2.215  12.917  0.3285 -2.3964 -0.1466
19123TIP3    H278785   2.457   2.171  13.061 -0.8612 -0.5798  0.5955
19124TIP3   OH278786   1.978   5.374   5.093 -0.4664  0.0930  0.1694
19124TIP3    H178787   1.948   5.430   5.021 -1.8087  1.7825  1.9241
19124TIP3    H278788   2.031   5.431   5.148  1.2983 -1.3999  0.1279
19125TIP3   OH278789   1.663   4.537  12.701 -0.8252  0.4012 -0.1291
19125TIP3    H178790   1.697   4.490  12.626 -0.4459 -0.9950  0.8812
19125TIP3    H278791   1.729   4.604  12.719  0.8178 -1.4358  0.9998
19126TIP3   OH278792   5.297   2.529  12.339  0.5210 -0.0127 -0.0260
19126TIP3    H178793   5.282   2.581  12.418 -0.3634  0.6494 -0.6067
19126TIP3    H278794   5.250   2.447  12.355 -1.4841  0.9363 -0.6738
19127TIP3   OH278795   1.855   5.300  16.959  0.3283 -0.5792  0.1210
19127TIP3    H178796   1.874   5.290  17.052 -0.6910  3.6240  0.9529
19127TIP3    H278797   1.770   5.343  16.956  2.1309  3.4029 -2.4029
19128TIP3   OH278798   4.708   1.169   6.372 -0.5508  0.0255 -0.6618
19128TIP3    H178799   4.779   1.136   6.318  0.1647  1.1043 -0.4039
19128TIP3    H278800   4.632   1.169   6.314  0.0255  0.4380 -1.4326
19129TIP3   OH278801   0.260   0.389   0.417 -0.3930 -0.2655  0.2314
19129TIP3    H178802   0.349   0.409   0.444  0.3547 -2.2785 -0.5598
19129TIP3    H278803   0.258   0.294   0.408 -2.6030 -0.2660  0.1159
19130TIP3   OH278804   5.049   3.385   4.988  0.3079  0.3091 -0.2442
19130TIP3    H178805   5.080   3.387   4.897  1.4299 -0.3486  0.1097
19130TIP3    H278806   5.077   3.468   5.025  0.4571  0.2845 -0.3016
19131TIP3   OH278807   1.433   4.745   4.449 -0.1812 -0.0559 -0.2246
19131TIP3    H178808   1.344   4.709   4.452  0.4074 -1.4819  1.2640
19131TIP3    H278809   1.425   4.830   4.492 -0.6062 -0.7225  1.0536
19132TIP3   OH278810   5.614   4.457   0.236  0.3757  0.5074 -0.5017
19132TIP3    H178811   5.585   4.412   0.315 -1.3741 -0.2789 -1.5263
19132TIP3    H278812   5.634   4.387   0.174 -0.0734  1.1050 -1.3452
19133TIP3   OH278813   4.985   4.761  13.065 -0.0388  0.1116 -0.1826
19133TIP3    H178814   4.960   4.852  13.050 -0.3985  0.0743  0.1711
19133TIP3    H278815   5.074   4.754  13.031  0.0930  0.6680  0.0397
19134TIP3   OH278816   5.930   3.906  13.083  0.2427 -0.1811 -0.1565
19134TIP3    H178817   5.885   3.829  13.050 -0.4151  0.8079 -1.6514
19134TIP3    H278818   6.015   3.906  13.038  1.5508 -1.6654  2.1401
19135TIP3   OH278819   3.642   6.185   5.364 -0.4202 -0.6227 -0.6696
19135TIP3    H178820   3.590   6.258   5.397 -1.4284 -0.7524 -1.9144
19135TIP3    H278821   3.718   6.182   5.422 -1.1141  0.4388  0.3459
19136TIP3   OH278822   2.413   3.015  11.573  0.9496  0.4001  0.1389
19136TIP3    H178823   2.322   2.987  11.564  1.3041 -0.7383 -0.0797
19136TIP3    H278824   2.436   2.994  11.664  0.7179  1.5554  0.4714
19137TIP3   OH278825   6.665   4.536  13.007  0.0876 -0.0944 -0.0813
19137TIP3    H178826   6.579   4.570  12.981 -0.1776  0.4097  1.3593
19137TIP3    H278827   6.720   4.549  12.930 -0.8352  0.6120 -0.6483
19138TIP3   OH278828   4.194   1.354  13.803 -0.6499 -0.4927 -0.2850
19138TIP3    H178829   4.265   1.290  13.807 -0.9170 -0.8657 -1.2805
19138TIP3    H278830   4.189   1.390  13.892  0.7845 -0.4410 -0.2053
19139TIP3   OH278831   2.603   5.240   2.840  0.0129 -0.4331  0.1743
19139TIP3    H178832   2.515   5.236   2.805 -0.7288 -1.7502  2.0100
19139TIP3    H278833   2.653   5.291   2.776 -2.1086  0.5344 -0.7799
19140TIP3   OH278834   1.189   4.977  11.467  0.1135  0.0379  0.0930
19140TIP3    H178835   1.132   4.924  11.523  0.9833 -1.4816 -0.3875
19140TIP3    H278836   1.274   4.932  11.472  0.9928  1.6370 -0.0260
19141TIP3   OH278837   4.906   0.677  14.196  0.2479  0.0509  0.5059
19141TIP3    H178838   4.988   0.632  14.175  0.8806  1.5889 -0.4626
19141TIP3    H278839   4.921   0.716  14.282 -0.4543 -1.8371  1.5520
19142TIP3   OH278840   6.685   5.931   4.975  0.0400  0.0006 -0.0917
19142TIP3    H178841   6.765   5.971   4.941 -0.6105  0.6381 -0.9372
19142TIP3    H278842   6.714   5.874   5.046  1.1716  0.7088  0.0348
19143TIP3   OH278843   5.673   3.331   4.667 -0.1353  0.0706  0.5225
19143TIP3    H178844   5.657   3.392   4.595  0.2866  0.4945  0.7828
19143TIP3    H278845   5.757   3.290   4.647 -0.0766  0.0972  0.7138
19144TIP3   OH278846   1.366   6.010  16.705 -0.0271 -0.2541  0.1796
19144TIP3    H178847   1.314   6.083  16.740 -1.1738 -0.5547 -0.8223
19144TIP3    H278848   1.310   5.933  16.717  0.6292 -0.7609  0.0318
19145TIP3   OH278849   0.228   0.238  10.658 -0.2896  0.2712 -0.0384
19145TIP3    H178850   0.173   0.194  10.723 -0.3799  0.0548 -0.2612
19145TIP3    H278851   0.167   0.284  10.601 -0.3212 -0.8482 -0.9423
19146TIP3   OH278852   5.439   2.914   3.536 -0.0787 -0.7067 -0.0155
19146TIP3    H178853   5.384   2.837   3.523 -3.3177  1.4001 -0.0730
19146TIP3    H278854   5.435   2.961   3.452 -0.2079  0.6947  0.7389
19147TIP3   OH278855   3.802   1.577   2.836  0.3098  0.5398  0.0779
19147TIP3    H178856   3.881   1.556   2.787  0.7429  1.6565  0.2545
19147TIP3    H278857   3.735   1.517   2.803  1.7539 -2.0213  1.5374
19148TIP3   OH278858   3.356   6.632  14.286 -0.4012 -0.8148 -0.0540
19148TIP3    H178859   3.404   6.551  14.272 -1.7400 -1.5478 -0.5944
19148TIP3    H278860   3.281   6.606  14.339  0.8994  0.6935  2.7413
19149TIP3   OH278861   4.392   4.787   1.594 -0.0480  0.4107  0.8978
19149TIP3    H178862   4.348   4.870   1.576 -0.0365  0.3434  0.5564
19149TIP3    H278863   4.463   4.810   1.654 -0.0487  0.6451  0.8094
19150TIP3   OH278864   3.298   2.239   1.596  0.5360 -0.4727  0.0387
19150TIP3    H178865   3.252   2.156   1.582  1.1843 -0.9976  0.9355
19150TIP3    H278866   3.316   2.271   1.508 -0.3820 -0.9090 -0.3197
19151TIP3   OH278867   6.165   5.332  12.393  0.4697  0.1130  0.2277
19151TIP3    H178868   6.218   5.411  12.383 -0.6293  0.7336 -1.0755
19151TIP3    H278869   6.189   5.278  12.317  0.3924 -0.2966  0.4946
19152TIP3   OH278870   4.775   6.048   5.037 -0.1418  0.1889  0.0043
19152TIP3    H178871   4.862   6.061   5.074 -0.1068 -0.2206  0.0628
19152TIP3    H278872   4.729   5.995   5.102 -0.5185  0.6112  0.0926
19153TIP3   OH278873   1.892   2.325  13.026  0.3970  0.7174 -0.5008
19153TIP3    H178874   1.912   2.411  12.989 -0.6075  0.7276 -1.0509
19153TIP3    H278875   1.802   2.307  12.998  0.6969 -0.6571 -0.6496
19154TIP3   OH278876   5.330   6.320   5.625 -0.5241  0.0829 -0.0759
19154TIP3    H178877   5.304   6.237   5.585 -2.7506  0.3539  0.6264
19154TIP3    H278878   5.272   6.329   5.701  0.1135  1.9514  0.2567
19155TIP3   OH278879   3.454   1.506   0.533  0.4330  0.0727 -0.1416
19155TIP3    H178880   3.415   1.545   0.455 -0.7336 -0.1546  0.3144
19155TIP3    H278881   3.384   1.452   0.571  1.3980 -0.9027  0.3159
19156TIP3   OH278882   1.986   6.739  12.206  0.2841 -0.5714  0.0637
19156TIP3    H178883   2.031   6.786  12.136  0.7024 -0.9728  0.0559
19156TIP3    H278884   1.938   6.669  12.162  0.3678 -0.6880  0.1552
19157TIP3   OH278885   0.383   1.868  16.538 -0.2559 -0.0365  0.4877
19157TIP3    H178886   0.401   1.874  16.632 -2.0284  1.4322  0.7866
19157TIP3    H278887   0.289   1.881  16.530 -0.0684  0.4586 -1.5476
19158TIP3   OH278888   3.597   3.738  16.786  0.3059  0.0893  0.1154
19158TIP3    H178889   3.512   3.746  16.829 -0.5585 -0.2525 -1.4488
19158TIP3    H278890   3.646   3.814  16.817 -0.6579  0.4374  0.8516
19159TIP3   OH278891   3.107   4.057  17.246  0.2042  0.1385  0.3256
19159TIP3    H178892   3.162   4.128  17.214  0.2786  0.4478  1.1243
19159TIP3    H278893   3.051   4.034  17.172 -0.3674  1.5493  0.2869
19160TIP3   OH278894   3.682   5.897   0.825 -0.3950  0.1084  0.3369
19160TIP3    H178895   3.748   5.872   0.760 -0.8791 -1.8276  0.5495
19160TIP3    H278896   3.603   5.913   0.774  0.0338  1.8360  0.1478
19161TIP3   OH278897   6.680   1.810   3.471 -0.4843 -0.0678  0.1264
19161TIP3    H178898   6.633   1.844   3.548  0.2074 -0.3827  0.7037
19161TIP3    H278899   6.721   1.887   3.432 -0.7787  0.0853  0.1155
19162TIP3   OH278900   0.978   0.310  15.669 -0.5606  0.4540  0.1800
19162TIP3    H178901   1.024   0.387  15.634 -0.2811  0.6882  1.0296
19162TIP3    H278902   1.033   0.236  15.643 -0.2128  0.6475  0.3521
19163TIP3   OH278903   5.392   2.690   3.251  0.3691 -0.2234 -0.0958
19163TIP3    H178904   5.320   2.740   3.213 -0.1761 -0.3003  0.7940
19163TIP3    H278905   5.375   2.692   3.345  1.0631 -0.9709  0.0563
19164TIP3   OH278906   3.245   0.339   3.991 -0.2008 -0.1281  0.3211
19164TIP3    H178907   3.294   0.369   4.067 -0.0724  1.5982 -0.4085
19164TIP3    H278908   3.269   0.399   3.921 -1.3035 -0.8968 -0.7639
19165TIP3   OH278909   0.983   4.973   2.272  0.1568  0.0152 -0.0131
19165TIP3    H178910   1.029   4.969   2.355 -1.4489  0.0987  0.9213
19165TIP3    H278911   1.050   4.997   2.208  1.9346 -2.4010  0.8230
19166TIP3   OH278912   2.270   1.921  13.216  0.0124  0.4365  0.0704
19166TIP3    H178913   2.328   1.888  13.284  2.0933  1.6029 -1.0331
19166TIP3    H278914   2.305   2.007  13.193 -2.1566  1.2088 -0.7034
19167TIP3   OH278915   6.315   5.365  15.607  0.8090  0.5407  0.3412
19167TIP3    H178916   6.267   5.431  15.657 -0.9075  0.8087 -1.5388
19167TIP3    H278917   6.274   5.282  15.630  0.1509  0.6416 -0.4264
19168TIP3   OH278918   1.698   4.938  14.938  0.6838 -0.2098  0.0925
19168TIP3    H178919   1.771   4.933  15.000 -0.8023  0.3699  2.0013
19168TIP3    H278920   1.683   4.847  14.910  2.2336 -0.3057 -0.5103
19169TIP3   OH278921   5.343   5.668   2.533  0.2794 -0.1147 -0.6640
19169TIP3    H178922   5.375   5.752   2.500  0.4807 -0.5245 -1.5340
19169TIP3    H278923   5.280   5.638   2.467  0.1742 -0.6271 -0.3390
19170TIP3   OH278924   3.047   2.263   0.295 -0.4833  0.0119 -0.0691
19170TIP3    H178925   3.075   2.242   0.206 -0.4128  0.5962 -0.1908
19170TIP3    H278926   2.952   2.267   0.291 -0.4675  0.2872 -0.1763
19171TIP3   OH278927   3.998   6.267  14.864 -0.0649  0.7965  0.4082
19171TIP3    H178928   4.080   6.222  14.846 -0.2944 -0.6680  2.6519
19171TIP3    H278929   3.932   6.217  14.817  0.1358  1.2467 -0.3845
19172TIP3   OH278930   1.273   4.037   1.178 -0.2550  0.0734  0.2943
19172TIP3    H178931   1.285   4.012   1.087 -1.7300 -1.4010  0.4524
19172TIP3    H278932   1.254   4.130   1.175  0.0198  0.1088 -0.8595
19173TIP3   OH278933   5.215   5.424  10.980  0.6164 -0.3422 -0.3492
19173TIP3    H178934   5.303   5.394  11.003  0.4868 -1.1291 -0.8331
19173TIP3    H278935   5.167   5.425  11.062  0.9286 -0.4317 -0.1650
19174TIP3   OH278936   2.220   2.730  14.543  0.0153  0.2673 -0.1745
19174TIP3    H178937   2.184   2.703  14.458 -0.3135 -1.5206  0.4814
19174TIP3    H278938   2.149   2.778  14.585 -1.7845 -3.0666  1.0344
19175TIP3   OH278939   1.154   4.363  15.532 -0.2460 -0.2510 -0.3562
19175TIP3    H178940   1.135   4.308  15.456  2.0837  0.9897 -1.9545
19175TIP3    H278941   1.088   4.432  15.528 -0.4059 -0.4319 -0.9909
19176TIP3   OH278942   3.409   3.501  14.880 -0.1267  0.4171  0.3208
19176TIP3    H178943   3.333   3.499  14.938  0.4998 -0.4198  1.1443
19176TIP3    H278944   3.403   3.420  14.829 -0.1773  0.7039 -0.1376
19177TIP3   OH278945   0.146   5.418  16.135  0.1120 -0.5538 -1.1917
19177TIP3    H178946   0.093   5.439  16.212  1.6410  0.3720 -0.3464
19177TIP3    H278947   0.188   5.335  16.157  3.4337  1.3852  0.7090
19178TIP3   OH278948   2.152   2.567   2.133 -0.6477 -0.6389 -0.1736
19178TIP3    H178949   2.216   2.500   2.159  1.5179  0.6698 -1.7503
19178TIP3    H278950   2.069   2.520   2.126  0.7507 -3.1780 -1.1722
19179TIP3   OH278951   6.597   1.127   2.107 -0.4995 -0.2491 -0.2200
19179TIP3    H178952   6.501   1.131   2.116 -0.5239  0.9696 -0.8203
19179TIP3    H278953   6.622   1.051   2.158 -1.5805  0.6707  1.7950
19180TIP3   OH278954   6.331   3.130   5.395  0.7470  0.8236 -0.0335
19180TIP3    H178955   6.409   3.085   5.428  0.7654  0.1893 -0.9294
19180TIP3    H278956   6.325   3.209   5.449  0.0526 -0.7598  2.4049
19181TIP3   OH278957   5.672   4.988   2.833  0.4611 -0.2378  0.7867
19181TIP3    H178958   5.728   5.012   2.907 -1.9697  1.2672  2.2957
19181TIP3    H278959   5.709   5.035   2.758  1.7958 -0.1365  1.4811
19182TIP3   OH278960   2.484   2.216   2.755  0.0387 -0.1961  0.2251
19182TIP3    H178961   2.416   2.282   2.762 -0.2658 -0.5738  0.9069
19182TIP3    H278962   2.551   2.256   2.701 -1.4954 -0.4458 -2.0272
19183TIP3   OH278963   5.236   4.917   6.271  0.1892 -0.3917 -0.0231
19183TIP3    H178964   5.208   4.923   6.363  0.1161 -1.2043  0.0152
19183TIP3    H278965   5.329   4.899   6.275  0.4138  0.6814 -0.1332
19184TIP3   OH278966   0.415   3.474  15.967  0.3125 -0.4033  0.4922
19184TIP3    H178967   0.482   3.513  15.910  0.2739 -0.3005  0.5160
19184TIP3    H278968   0.417   3.381  15.946 -0.8585 -0.1376 -0.8940
19185TIP3   OH278969   6.234   1.808  15.015 -0.6204  0.3015  0.0360
19185TIP3    H178970   6.256   1.762  14.934  0.1199 -0.1685  0.4904
19185TIP3    H278971   6.138   1.806  15.019 -0.6022 -2.2213  0.6025
19186TIP3   OH278972   0.317   6.549  14.558  0.5709 -0.3167  0.1714
19186TIP3    H178973   0.252   6.560  14.628  0.6737  2.5673 -0.0386
19186TIP3    H278974   0.359   6.635  14.552  1.3036 -0.7926 -2.7097
19187TIP3   OH278975   6.620   6.350  15.959 -0.4437 -0.0865 -0.2380
19187TIP3    H178976   6.684   6.289  15.995  0.6667  0.0918 -1.7964
19187TIP3    H278977   6.550   6.353  16.024  0.8895 -0.6715  1.2799
19188TIP3   OH278978   4.116   1.790   4.255  0.0800  0.2206  0.2517
19188TIP3    H178979   4.209   1.809   4.238  0.3015 -0.6618  0.4129
19188TIP3    H278980   4.072   1.874   4.243  1.1899  1.1667  2.2934
19189TIP3   OH278981   2.176   0.761  15.603 -0.1182  0.7454  0.5877
19189TIP3    H178982   2.265   0.737  15.577  0.1981 -1.7780  3.4961
19189TIP3    H278983   2.120   0.699  15.557 -0.1286  0.4541  0.9966
19190TIP3   OH278984   1.375   3.743   0.375 -0.4263  0.4761 -0.2327
19190TIP3    H178985   1.375   3.749   0.471 -0.2456 -2.4987  0.0636
19190TIP3    H278986   1.305   3.682   0.355  0.3628  0.0535 -1.8875
19191TIP3   OH278987   1.561   1.892  11.856 -0.5015 -0.5466  0.0656
19191TIP3    H178988   1.648   1.851  11.855 -0.2613 -0.1452  1.7645
19191TIP3    H278989   1.505   1.829  11.810  0.2322 -1.9021  0.9385
19192TIP3   OH278990   3.716   5.605  13.003 -0.3022  0.0870  0.2297
19192TIP3    H178991   3.660   5.530  12.984 -2.2617  1.3744  0.6118
19192TIP3    H278992   3.729   5.647  12.918  0.1845 -0.2486  0.1305
19193TIP3   OH278993   3.133   0.854  11.573  0.4445 -0.4302 -0.1014
19193TIP3    H178994   3.186   0.801  11.633  0.7261 -0.7514 -0.6294
19193TIP3    H278995   3.161   0.944  11.590  0.7579 -0.5486  0.0197
19194TIP3   OH278996   6.628   0.447   5.599  0.3251  0.2079 -0.2203
19194TIP3    H178997   6.635   0.473   5.507 -0.1956  1.1514 -0.0110
19194TIP3    H278998   6.567   0.510   5.637 -1.2152 -1.5123  0.2879
19195TIP3   OH278999   1.364   4.843  14.424 -0.0731 -0.2950  0.0126
19195TIP3    H179000   1.322   4.839  14.338 -0.5920 -0.6302  0.2699
19195TIP3    H279001   1.455   4.865  14.406  0.0916 -1.5041 -0.7024
19196TIP3   OH279002   1.792   5.156  15.506  0.2327 -0.0259 -0.0895
19196TIP3    H179003   1.862   5.213  15.475 -0.7372  0.2605 -1.8919
19196TIP3    H279004   1.788   5.172  15.600  0.8843  1.8392 -0.3378
19197TIP3   OH279005   1.655   5.095  10.679  0.0649  0.4084 -0.0307
19197TIP3    H179006   1.717   5.027  10.655  1.3028  1.0328  1.2385
19197TIP3    H279007   1.581   5.048  10.717  0.6859 -0.2560  0.3830
19198TIP3   OH279008   1.178   0.614  13.880 -0.2632 -0.1702  0.3138
19198TIP3    H179009   1.090   0.649  13.895 -0.5111 -1.4620  2.2691
19198TIP3    H279010   1.196   0.560  13.957  2.5449  0.6267  0.3319
19199TIP3   OH279011   4.057   3.216  11.205 -0.7961  0.2964 -0.7476
19199TIP3    H179012   4.031   3.147  11.144 -0.3942  0.3504 -0.9836
19199TIP3    H279013   4.104   3.171  11.275  1.0647  0.4951 -1.7975
19200TIP3   OH279014   3.950   6.240  12.127  0.8798  0.3960  0.0536
19200TIP3    H179015   3.955   6.215  12.034  0.8344  1.1748 -0.1619
19200TIP3    H279016   3.858   6.261  12.142  0.9630  0.6884  0.1629
19201TIP3   OH279017   6.368   5.348  10.606 -0.3741  0.2222  0.0035
19201TIP3    H179018   6.303   5.338  10.536  0.4721 -1.3939 -0.6044
19201TIP3    H279019   6.452   5.351  10.560  0.4701 -3.7347  0.9604
19202TIP3   OH279020   2.320   5.434   4.731 -0.6471 -1.2084 -0.1166
19202TIP3    H179021   2.281   5.362   4.780 -1.4030 -0.3038  0.6494
19202TIP3    H279022   2.265   5.510   4.752 -0.4058 -0.5922 -1.6048
19203TIP3   OH279023   2.300   2.445   4.191  0.3674 -0.1176  0.0634
19203TIP3    H179024   2.355   2.462   4.267  0.9717 -3.5204  0.5518
19203TIP3    H279025   2.360   2.445   4.117  0.4072 -0.2719  0.0948
19204TIP3   OH279026   5.106   1.482   0.680 -0.2256 -0.2031 -0.1237
19204TIP3    H179027   5.040   1.443   0.624  0.7199 -3.2560  0.6883
19204TIP3    H279028   5.163   1.530   0.620 -1.3480 -0.2044 -1.2261
19205TIP3   OH279029   6.463   6.293   4.947 -0.4045  0.6074  0.5180
19205TIP3    H179030   6.543   6.299   4.895  0.4002 -0.7057  1.5400
19205TIP3    H279031   6.493   6.285   5.037 -1.7293  0.9802  1.0277
19206TIP3   OH279032   4.393   5.507  13.688  0.1665 -0.4883 -0.4202
19206TIP3    H179033   4.417   5.483  13.598  0.9588 -0.4311 -0.2318
19206TIP3    H279034   4.395   5.424  13.736  2.0601 -0.2184  0.0444
19207TIP3   OH279035   1.539   1.640   2.278 -0.2814  0.2901 -0.4402
19207TIP3    H179036   1.517   1.559   2.231 -0.2810  0.1884 -0.2677
19207TIP3    H279037   1.556   1.704   2.209  0.2999 -0.0139 -0.5886
19208TIP3   OH279038   1.942   2.691   0.263 -0.3223  0.2733  0.1256
19208TIP3    H179039   2.002   2.643   0.206 -0.5558  0.3373 -0.1724
19208TIP3    H279040   1.893   2.622   0.308  1.6973  0.1150  2.2841
19209TIP3   OH279041   6.699   3.616  17.285 -0.3458  0.4853  0.2788
19209TIP3    H179042   6.772   3.614  17.348  0.6742  1.0664 -0.8509
19209TIP3    H279043   6.739   3.595  17.201 -1.9304 -1.7149 -0.0140
19210TIP3   OH279044   1.556   5.722   5.253 -0.3221  0.6978 -0.3862
19210TIP3    H179045   1.592   5.644   5.297 -0.5267  1.5940  1.4449
19210TIP3    H279046   1.542   5.785   5.323  1.9206  3.2690 -2.0289
19211TIP3   OH279047   6.139   0.731   0.122  0.1344 -0.2023 -0.2929
19211TIP3    H179048   6.171   0.685   0.200 -1.3211 -0.8140 -0.0080
19211TIP3    H279049   6.157   0.823   0.139  0.7316 -0.4236  0.3181
19212TIP3   OH279050   1.797   0.964  16.876 -0.2634  0.3883  0.0978
19212TIP3    H179051   1.805   0.974  16.971  0.3105  1.4820 -0.0450
19212TIP3    H279052   1.709   0.997  16.856 -0.5856 -0.3356  0.3042
19213TIP3   OH279053   6.027   2.390   6.068  0.0762  0.3941  0.4521
19213TIP3    H179054   6.004   2.386   5.975 -1.1914  1.3990  0.6942
19213TIP3    H279055   6.012   2.301   6.100 -0.9067  0.3798 -0.0043
19214TIP3   OH279056   2.158   4.859  14.638  0.0799 -0.5111  0.5222
19214TIP3    H179057   2.173   4.879  14.546  0.7637  1.1333  0.9656
19214TIP3    H279058   2.063   4.865  14.649  0.1895  3.8916  0.8159
19215TIP3   OH279059   1.548   5.477  13.866  0.2958 -0.6787  0.1428
19215TIP3    H179060   1.569   5.507  13.954 -0.8673 -0.9352  0.5383
19215TIP3    H279061   1.576   5.385  13.865 -1.0292 -1.1206  0.7802
19216TIP3   OH279062   0.536   0.421   2.828 -0.0751  0.6444  0.2699
19216TIP3    H179063   0.466   0.400   2.766 -0.9575 -0.2792  1.5237
19216TIP3    H279064   0.602   0.354   2.812 -0.5732  0.0323  0.7167
19217TIP3   OH279065   3.401   1.506   0.138  0.1474  0.2596  0.6068
19217TIP3    H179066   3.363   1.420   0.121  0.0399  0.3593  0.3411
19217TIP3    H279067   3.360   1.534   0.220  2.2038 -1.1342  2.2439
19218TIP3   OH279068   1.435   6.052   0.147  0.0432 -0.1243  0.1198
19218TIP3    H179069   1.510   5.999   0.119  0.1636 -0.0566  0.3144
19218TIP3    H279070   1.473   6.123   0.198  0.0476  1.2271 -1.6847
19219TIP3   OH279071   4.328   0.039   1.210  0.2272 -0.0819 -0.2329
19219TIP3    H179072   4.367  -0.009   1.137 -0.2584  1.8039 -1.8098
19219TIP3    H279073   4.238   0.007   1.214  1.1489 -2.7771  1.9410
19220TIP3   OH279074   4.942   4.274  14.643  0.1968  0.1225  0.2468
19220TIP3    H179075   4.921   4.350  14.698 -0.7557  0.0850 -0.0453
19220TIP3    H279076   4.934   4.199  14.701  1.7774  0.2861  0.6985
19221TIP3   OH279077   0.646   4.324   4.309 -0.2204 -0.1421 -0.0279
19221TIP3    H179078   0.621   4.347   4.399  0.0097 -0.1430  0.0368
19221TIP3    H279079   0.721   4.381   4.289  1.0932 -1.5920  0.5411
19222TIP3   OH279080   3.207   3.791  17.283 -0.4365  0.0407  0.2142
19222TIP3    H179081   3.205   3.885  17.266 -0.4327  0.5423  2.6418
19222TIP3    H279082   3.126   3.757  17.243 -2.8877  1.8969  3.1761
19223TIP3   OH279083   1.096   4.841   1.927 -0.1456 -0.0366 -0.2834
19223TIP3    H179084   1.070   4.906   1.862  0.2981  0.8178  0.3761
19223TIP3    H279085   1.128   4.893   2.002  0.6308 -1.0135  0.0838
19224TIP3   OH279086   0.223   4.737  11.910 -0.2164  0.0930 -0.5590
19224TIP3    H179087   0.206   4.814  11.963  0.7775 -0.2665  0.3131
19224TIP3    H279088   0.195   4.663  11.964  0.4660 -0.2543 -0.6652
19225TIP3   OH279089   4.626   1.483  16.673  0.0981  0.5770 -0.1344
19225TIP3    H179090   4.649   1.519  16.587 -0.2220 -0.8104 -0.8365
19225TIP3    H279091   4.561   1.544  16.708 -2.4139 -0.5960 -2.4267
19226TIP3   OH279092   5.546   5.358  14.500  0.1445 -0.2703 -0.2964
19226TIP3    H179093   5.581   5.416  14.568  1.3152  0.0921 -1.1829
19226TIP3    H279094   5.533   5.274  14.545 -0.6181  0.3761  0.7516
19227TIP3   OH279095   4.478   5.445  10.526 -0.1117 -0.4335  0.1888
19227TIP3    H179096   4.419   5.514  10.495 -0.6553 -0.9646 -0.0005
19227TIP3    H279097   4.467   5.375  10.461  2.6774  0.4063 -1.3262
19228TIP3   OH279098   5.021   3.868  13.598 -0.2419  0.5382  0.4549
19228TIP3    H179099   4.951   3.927  13.569 -0.4645 -0.6561 -1.7282
19228TIP3    H279100   5.049   3.824  13.517  2.0504 -0.0721  1.5060
19229TIP3   OH279101   1.154   3.210   4.305  0.6899 -0.3095  0.5981
19229TIP3    H179102   1.236   3.181   4.265 -0.3542 -1.5853 -0.7201
19229TIP3    H279103   1.144   3.300   4.275  1.1967 -0.4159  0.0697
19230TIP3   OH279104   4.790   3.649  17.297  0.3562 -0.2933 -0.0076
19230TIP3    H179105   4.701   3.682  17.288 -0.4587 -2.3844 -0.2467
19230TIP3    H279106   4.835   3.714  17.351 -1.3402  0.7397  0.2297
19231TIP3   OH279107   1.873   6.521   0.863  0.1195  0.1743  0.4372
19231TIP3    H179108   1.839   6.529   0.952  0.9133  2.2299  0.6006
19231TIP3    H279109   1.926   6.599   0.850  1.8496 -1.1723 -1.0767
19232TIP3   OH279110   1.401   2.922  14.179  0.1949  0.1958  0.2148
19232TIP3    H179111   1.314   2.914  14.139 -0.5430  1.1726  1.5249
19232TIP3    H279112   1.392   2.877  14.264  1.0068  0.2132  0.3131
19233TIP3   OH279113   4.867   1.661   6.042 -0.0288  0.7022 -0.4327
19233TIP3    H179114   4.842   1.662   6.134 -1.0806 -0.3219 -0.6881
19233TIP3    H279115   4.957   1.694   6.041 -0.1694  1.1748  0.8985
19234TIP3   OH279116   1.385   4.242   3.037 -0.2908 -0.3366  0.7162
19234TIP3    H179117   1.342   4.193   3.107 -0.7051  0.7267  1.2267
19234TIP3    H279118   1.427   4.174   2.983 -2.7291 -1.4313  0.0702
19235TIP3   OH279119   0.362   2.297  13.442 -0.0013  0.7120  0.0446
19235TIP3    H179120   0.455   2.302  13.463 -0.0442  0.2548  0.3498
19235TIP3    H279121   0.329   2.385  13.459  0.2445  0.7046  0.5718
19236TIP3   OH279122   4.485   2.862   0.343 -0.6302  0.1375  0.1686
19236TIP3    H179123   4.517   2.948   0.368 -0.0446 -0.5209  1.8435
19236TIP3    H279124   4.390   2.867   0.356 -0.5420  0.3956  0.7861
19237TIP3   OH279125   3.155   0.359   0.820 -0.0408  0.5688 -0.7321
19237TIP3    H179126   3.149   0.387   0.729 -0.6948  1.4640 -0.4291
19237TIP3    H279127   3.096   0.418   0.868 -0.5867 -0.6019  0.1100
19238TIP3   OH279128   0.318   4.655   6.324 -0.1842  0.5343  0.3581
19238TIP3    H179129   0.395   4.637   6.379  0.2841 -0.1316 -0.4938
19238TIP3    H279130   0.269   4.574   6.323 -1.0650  1.0356  1.1099
19239TIP3   OH279131   6.271   3.097  12.488  0.4244 -0.2976  0.2477
19239TIP3    H179132   6.183   3.066  12.513  1.0060 -0.0438  3.0112
19239TIP3    H279133   6.265   3.192  12.496  0.7806 -0.2346 -0.2296
19240TIP3   OH279134   5.760   6.392   4.288  0.8966 -0.5359  0.6694
19240TIP3    H179135   5.705   6.326   4.330  0.1534 -1.0663 -1.0472
19240TIP3    H279136   5.844   6.349   4.276  1.1458 -0.3516  1.6282
19241TIP3   OH279137   0.796   1.011   5.130 -0.2193 -0.1291  0.0794
19241TIP3    H179138   0.764   0.955   5.200  0.6499 -0.2427  0.4079
19241TIP3    H279139   0.864   1.065   5.172  2.4901 -2.2605 -1.2606
19242TIP3   OH279140   3.561   5.019   5.163 -0.4393  0.1395 -0.0818
19242TIP3    H179141   3.559   5.011   5.258 -2.2916  1.6870  0.0474
19242TIP3    H279142   3.590   5.108   5.146 -1.0394  0.1871 -0.9367
19243TIP3   OH279143   1.462   1.952   4.152  0.5194 -0.5000 -0.2085
19243TIP3    H179144   1.370   1.929   4.143  0.0565  1.4894 -1.2063
19243TIP3    H279145   1.472   1.977   4.244 -0.1617  0.0757 -0.2817
19244TIP3   OH279146   1.398   2.075  16.816  0.0310 -0.1386 -0.4566
19244TIP3    H179147   1.402   1.984  16.786 -0.5074 -0.3076 -0.0308
19244TIP3    H279148   1.464   2.080  16.885  0.1866 -0.1575 -0.6030
19245TIP3   OH279149   3.882   4.879  15.515 -0.1610  0.1198  0.3475
19245TIP3    H179150   3.808   4.827  15.483  0.2322  0.4862 -1.2509
19245TIP3    H279151   3.842   4.957  15.554 -0.6483  0.6161 -1.0560
19246TIP3   OH279152   3.465   4.209   3.777 -0.4906 -0.2395  0.7680
19246TIP3    H179153   3.536   4.242   3.721 -0.6983  0.4351  0.8973
19246TIP3    H279154   3.396   4.274   3.768 -1.4998 -1.3903 -0.1402
19247TIP3   OH279155   0.078   4.565  10.468  0.0363  0.3450 -0.6737
19247TIP3    H179156   0.164   4.601  10.492  0.3788 -1.5888  1.3496
19247TIP3    H279157   0.015   4.624  10.509  0.5961 -1.5750  3.4851
19248TIP3   OH279158   2.597   2.558   5.453  0.0567 -0.0821 -0.5183
19248TIP3    H179159   2.606   2.508   5.371  0.7171 -1.5884  0.4297
19248TIP3    H279160   2.686   2.577   5.480 -0.1786  1.1193 -0.5432
19249TIP3   OH279161   5.577   4.747   5.052 -0.1320 -0.4310 -0.4945
19249TIP3    H179162   5.607   4.772   5.139 -0.7676 -2.7630  0.4616
19249TIP3    H279163   5.627   4.803   4.993  1.2474  0.3294  1.2932
19250TIP3   OH279164   4.343   4.599  14.069 -0.2437  0.0586  0.0070
19250TIP3    H179165   4.419   4.561  14.025 -0.4170 -0.8770  0.5021
19250TIP3    H279166   4.353   4.694  14.057  1.4318  0.0042  0.7701
19251TIP3   OH279167   0.421   5.444  11.311 -0.0062  0.3183 -0.0241
19251TIP3    H179168   0.484   5.386  11.352  0.0102  1.2459  1.3130
19251TIP3    H279169   0.474   5.509  11.266 -0.0238 -0.7073 -1.6025
19252TIP3   OH279170   0.275   0.581  14.226  0.1137  0.3259  0.0316
19252TIP3    H179171   0.283   0.608  14.317  1.3589  0.2939 -0.0401
19252TIP3    H279172   0.191   0.615  14.197  0.8664  2.6638  0.4257
19253TIP3   OH279173   1.075   5.522  13.318  0.1709  0.0009 -0.2347
19253TIP3    H179174   1.116   5.437  13.338  1.7757  0.7548 -0.1730
19253TIP3    H279175   1.097   5.577  13.393  0.4065  0.8974 -0.9567
19254TIP3   OH279176   4.233   0.019  17.033 -0.1802 -0.1852 -0.0887
19254TIP3    H179177   4.252  -0.036  17.109 -0.5633 -1.0968 -0.6310
19254TIP3    H279178   4.221  -0.043  16.961  0.6267  0.6689 -1.0064
19255TIP3   OH279179   5.864   1.316   5.708  0.3385  0.0663  0.2037
19255TIP3    H179180   5.888   1.253   5.776 -1.1999  0.4181  1.1163
19255TIP3    H279181   5.869   1.402   5.751 -1.2455  0.2503  0.0974
19256TIP3   OH279182   4.432   0.340  12.437  0.2261  0.1848 -0.9270
19256TIP3    H179183   4.416   0.409  12.373  0.4865  1.1061 -0.0416
19256TIP3    H279184   4.468   0.267  12.386 -1.0962  0.2835 -2.0461
19257TIP3   OH279185   5.175   0.907   3.638 -1.0630  0.7195  0.1997
19257TIP3    H179186   5.103   0.855   3.602 -1.2522  0.3759  1.0657
19257TIP3    H279187   5.230   0.926   3.562 -1.5081  0.0888 -0.2929
19258TIP3   OH279188   3.834   3.509  11.713  0.3480  0.1610 -0.2438
19258TIP3    H179189   3.808   3.600  11.722 -3.1943 -0.8205  1.4213
19258TIP3    H279190   3.820   3.471  11.800 -1.7353 -2.6372 -1.6179
19259TIP3   OH279191   1.714   4.732  11.355 -0.0707  0.3196 -0.1318
19259TIP3    H179192   1.749   4.777  11.433  1.1674  2.0209 -1.5742
19259TIP3    H279193   1.634   4.689  11.386 -0.6482  2.4882  1.6948
19260TIP3   OH279194   4.331   1.288   2.299 -0.3026 -1.6436  0.1779
19260TIP3    H179195   4.340   1.300   2.204  3.1965 -1.3357  0.4199
19260TIP3    H279196   4.386   1.212   2.318  2.5866  0.8006  2.3993
19261TIP3   OH279197   2.589   6.464  17.291 -0.0445 -0.1802  0.5047
19261TIP3    H179198   2.680   6.495  17.293  0.1339 -0.7076  0.8339
19261TIP3    H279199   2.596   6.371  17.271 -0.5391 -0.1377  0.1258
19262TIP3   OH279200   3.496   1.439   3.407 -0.3984  0.6653  0.1486
19262TIP3    H179201   3.496   1.534   3.391 -0.6483  0.6631  0.1463
19262TIP3    H279202   3.587   1.413   3.392 -0.5451  0.7250 -0.8671
19263TIP3   OH279203   5.635   6.045   3.038  0.0566  0.3257  0.2153
19263TIP3    H179204   5.555   6.065   3.087 -0.3996 -1.0177  0.0762
19263TIP3    H279205   5.617   6.076   2.949  0.6416  2.1936  0.7072
19264TIP3   OH279206   2.171   1.693  14.653  0.2781 -0.0240 -0.0261
19264TIP3    H179207   2.185   1.628  14.584 -0.1312  1.6613 -1.7802
19264TIP3    H279208   2.158   1.776  14.607  0.6195  1.3212  2.1119
19265TIP3   OH279209   5.305   3.589   4.008  0.1869 -0.3358 -0.5172
19265TIP3    H179210   5.310   3.574   4.102  2.5237 -1.9120 -0.8069
19265TIP3    H279211   5.384   3.639   3.988 -0.0150 -0.4747 -1.7204
19266TIP3   OH279212   3.613   3.114   6.174 -0.4524  0.1557 -0.5615
19266TIP3    H179213   3.692   3.167   6.166 -2.0488  2.9174  0.4539
19266TIP3    H279214   3.557   3.144   6.103 -0.9806 -1.0919 -0.6995
19267TIP3   OH279215   5.005   1.148   5.889 -0.2234  0.6243  0.2872
19267TIP3    H179216   4.990   1.067   5.938  0.6496  0.5897  0.5157
19267TIP3    H279217   5.095   1.140   5.857 -0.6514  0.8135 -1.0212
19268TIP3   OH279218   5.099   5.823  14.766  0.1899  0.3985  0.1862
19268TIP3    H179219   5.015   5.869  14.761 -0.5728 -0.8062  1.2559
19268TIP3    H279220   5.104   5.773  14.684  0.6564  1.7210 -0.6195
19269TIP3   OH279221   4.726   5.368   0.262 -0.3835 -0.3219 -0.6348
19269TIP3    H179222   4.649   5.347   0.208  0.4246  0.2383 -2.0816
19269TIP3    H279223   4.800   5.334   0.211  0.2675 -2.1939  1.4215
19270TIP3   OH279224   6.418   4.336   0.102  0.4332  0.4064  0.5795
19270TIP3    H179225   6.466   4.403   0.054 -0.5259 -0.6553 -2.0619
19270TIP3    H279226   6.330   4.372   0.111  0.1123 -0.1495 -0.1946
19271TIP3   OH279227   3.637   4.219   5.790 -0.4190  0.0046 -0.1045
19271TIP3    H179228   3.709   4.269   5.830 -1.3048  2.5939 -1.5732
19271TIP3    H279229   3.559   4.272   5.806 -1.2429 -0.3109 -2.6785
19272TIP3   OH279230   2.795   5.611  17.248  0.2116 -0.2444 -0.3248
19272TIP3    H179231   2.870   5.560  17.218  0.3443  0.1605 -0.6740
19272TIP3    H279232   2.736   5.545  17.286 -0.2688 -0.8729 -2.0516
19273TIP3   OH279233   3.096   4.903  14.896 -0.5870  0.5044  0.1552
19273TIP3    H179234   3.186   4.936  14.900 -0.6029  0.4910  0.6936
19273TIP3    H279235   3.043   4.982  14.886 -0.6844  0.7454  2.2500
19274TIP3   OH279236   1.522   2.072  14.957  0.1570  0.4702 -0.0750
19274TIP3    H179237   1.433   2.097  14.935  0.1160  0.2269 -0.1838
19274TIP3    H279238   1.530   1.981  14.928  0.6589  0.7076 -0.6900
19275TIP3   OH279239   1.054   6.051   1.003  0.3908  0.3727  0.8398
19275TIP3    H179240   1.002   5.970   1.002 -0.4226  0.8889 -0.3955
19275TIP3    H279241   0.996   6.117   1.040  0.6298  0.6644  0.7042
19276TIP3   OH279242   5.607   2.784  11.586  0.2344  0.0201 -0.0049
19276TIP3    H179243   5.679   2.748  11.534  1.2014  3.0882 -1.0089
19276TIP3    H279244   5.643   2.793  11.674  0.5010 -0.0586 -0.1034
19277TIP3   OH279245   2.445   1.072   5.214  0.7207 -0.3384 -0.1545
19277TIP3    H179246   2.537   1.084   5.191  0.6170  2.0707  0.4328
19277TIP3    H279247   2.423   1.150   5.265 -1.1541 -1.7625  1.3402
19278TIP3   OH279248   2.707   4.938   4.471  0.2528  0.2825 -0.4150
19278TIP3    H179249   2.636   4.931   4.407  0.6604 -0.0803 -0.8387
19278TIP3    H279250   2.721   5.032   4.481  0.3750  0.3439 -1.0870
19279TIP3   OH279251   6.604   1.609   2.749  0.6623  0.1711  0.4321
19279TIP3    H179252   6.631   1.613   2.841  0.1510 -2.0992  0.7419
19279TIP3    H279253   6.584   1.517   2.734 -0.0993  0.6334 -1.7395
19280TIP3   OH279254   0.698   6.366   6.200 -0.2304 -0.1189 -0.2640
19280TIP3    H179255   0.718   6.428   6.270 -2.0412 -0.7886  0.9205
19280TIP3    H279256   0.605   6.347   6.210  0.1168 -2.5991 -0.9371
19281TIP3   OH279257   5.726   3.708   1.026  0.1245  0.0305  0.2161
19281TIP3    H179258   5.718   3.613   1.034 -2.2709  0.0868 -0.8761
19281TIP3    H279259   5.733   3.738   1.117 -0.4302 -1.1039  0.6614
19282TIP3   OH279260   0.216   2.451  15.928 -0.0362 -0.1386 -0.1134
19282TIP3    H179261   0.133   2.407  15.906  0.5643 -1.5386  0.2842
19282TIP3    H279262   0.196   2.504  16.004 -0.5377 -0.5994  0.0850
19283TIP3   OH279263   1.245   0.187  14.111 -0.2426 -0.4748  0.4628
19283TIP3    H179264   1.173   0.126  14.096 -1.3276  1.0242 -0.8547
19283TIP3    H279265   1.274   0.212  14.023  0.2378  0.7949  0.9523
19284TIP3   OH279266   4.961   2.302  13.761 -0.0860 -0.0674 -0.6150
19284TIP3    H179267   4.907   2.231  13.795 -0.2915 -0.7391 -2.2360
19284TIP3    H279268   4.905   2.346  13.696  0.8266  0.0886 -1.3276
19285TIP3   OH279269   3.936   5.152  13.463  0.3568  0.0031 -0.7354
19285TIP3    H179270   4.030   5.170  13.474  0.5432  0.2903 -2.5522
19285TIP3    H279271   3.892   5.226  13.504  0.9512  0.4970 -0.9773
19286TIP3   OH279272   1.688   0.279  12.230  0.1569 -0.3191  0.3833
19286TIP3    H179273   1.634   0.203  12.250  0.1566  0.1261  2.2764
19286TIP3    H279274   1.756   0.279  12.298  0.3238  1.1903  0.2566
19287TIP3   OH279275   0.800   4.747   2.640 -0.3708  0.4858  0.0049
19287TIP3    H179276   0.847   4.769   2.560  0.0160 -1.7878 -0.4605
19287TIP3    H279277   0.825   4.815   2.702 -0.5981  2.2582 -1.7304
19288TIP3   OH279278   5.805   1.099   1.506 -0.4242 -0.3954  0.5424
19288TIP3    H179279   5.818   1.188   1.540 -0.8142 -0.5263  1.0273
19288TIP3    H279280   5.853   1.043   1.566  1.4885 -0.3653 -0.8333
19289TIP3   OH279281   6.583   3.209   1.690  0.0120  0.2188  0.0672
19289TIP3    H179282   6.598   3.216   1.784  0.2696 -0.4393  0.0823
19289TIP3    H279283   6.662   3.245   1.650 -0.6482  1.7251  0.0780
19290TIP3   OH279284   0.022   4.823   6.171 -0.3109  0.2371  0.1859
19290TIP3    H179285   0.091   4.808   6.107  0.2292  1.0314  0.5551
19290TIP3    H279286  -0.043   4.756   6.153 -0.5329  0.9131 -1.6853
19291TIP3   OH279287   2.347   2.864  15.666  0.0442  0.0282  0.9421
19291TIP3    H179288   2.358   2.959  15.664  0.6009 -0.0301  1.1611
19291TIP3    H279289   2.360   2.840  15.757  1.3120 -0.4182  0.6664
19292TIP3   OH279290   1.803   4.855   0.856  0.5605  0.5466  0.3570
19292TIP3    H179291   1.765   4.920   0.915 -0.1939  0.9828 -0.6039
19292TIP3    H279292   1.808   4.898   0.771 -0.9760 -0.9796 -0.5781
19293TIP3   OH279293   3.218   3.050  13.877  0.5036 -0.1047 -0.4613
19293TIP3    H179294   3.244   2.968  13.921  0.7308  0.7796  1.1136
19293TIP3    H279295   3.160   3.093  13.939  0.0614  0.7581 -1.4517
19294TIP3   OH279296   1.286   2.950  13.399 -0.3077  0.2123 -0.0117
19294TIP3    H179297   1.231   2.890  13.348 -0.6420  0.2677  0.2768
19294TIP3    H279298   1.229   3.023  13.420 -0.5018 -0.2992  1.3446
19295TIP3   OH279299   0.219   5.478  16.629 -0.1660  0.0735  0.7559
19295TIP3    H179300   0.240   5.538  16.700 -2.4202  2.5839 -0.5357
19295TIP3    H279301   0.124   5.469  16.632 -0.2416 -0.3992 -1.4453
19296TIP3   OH279302   5.269   4.063   3.117  0.2949 -0.3260  0.2014
19296TIP3    H179303   5.350   4.114   3.117 -0.2280  0.6445 -2.0122
19296TIP3    H279304   5.297   3.973   3.134  1.6237  0.2342  1.0726
19297TIP3   OH279305   4.260   4.902  10.812  0.0438 -0.1083  0.1609
19297TIP3    H179306   4.195   4.936  10.750 -0.8571 -1.2483  0.4488
19297TIP3    H279307   4.328   4.970  10.815 -1.0671  1.0597 -0.2352
19298TIP3   OH279308   0.512   4.326   1.831 -0.1643  0.3823 -0.3154
19298TIP3    H179309   0.558   4.368   1.758 -0.2136 -1.3722 -1.4255
19298TIP3    H279310   0.579   4.314   1.898  0.3177  0.4022 -0.7878
19299TIP3   OH279311   0.175   0.724   4.882 -0.1023 -0.1986  0.7275
19299TIP3    H179312   0.203   0.637   4.853 -1.4455 -0.2785 -0.4284
19299TIP3    H279313   0.147   0.712   4.973  2.1459 -0.4023  1.4450
19300TIP3   OH279314   6.690   2.604  14.136  0.3566  0.0053 -0.1923
19300TIP3    H179315   6.718   2.681  14.086  0.1853 -1.5281 -2.8852
19300TIP3    H279316   6.737   2.610  14.219  1.7243  2.0699 -1.0392
19301TIP3   OH279317   6.305   0.726   4.045 -0.3414 -0.1263  0.8704
19301TIP3    H179318   6.318   0.644   3.999 -2.2389  0.3078 -0.5553
19301TIP3    H279319   6.385   0.776   4.029 -0.4645 -0.4688 -0.9698
19302TIP3   OH279320   3.123   0.211   4.336 -0.0036  0.6887 -0.0349
19302TIP3    H179321   3.185   0.153   4.291  0.0319  0.2020  0.6218
19302TIP3    H279322   3.161   0.224   4.422 -1.0663 -0.0582  0.5710
19303TIP3   OH279323   2.072   3.450  14.465 -0.2365 -0.0994 -0.2829
19303TIP3    H179324   2.020   3.530  14.475  1.1638  0.8679 -0.4942
19303TIP3    H279325   2.109   3.435  14.552 -1.8979 -1.5758  0.2380
19304TIP3   OH279326   5.808   6.069   1.818  0.9098 -0.0710  0.6209
19304TIP3    H179327   5.881   6.075   1.880  0.2127 -1.4172  1.6090
19304TIP3    H279328   5.744   6.013   1.861  0.6455 -1.5733 -1.5796
19305TIP3   OH279329   3.847   4.355  15.642  0.7131  0.8527 -0.7328
19305TIP3    H179330   3.787   4.350  15.567 -0.4888 -2.2169  0.2889
19305TIP3    H279331   3.934   4.355  15.603  0.0985 -0.0654 -2.1839
19306TIP3   OH279332   0.546   2.648   3.720 -0.4906  0.3179 -0.7283
19306TIP3    H179333   0.492   2.618   3.647  0.4762  0.5872 -1.5610
19306TIP3    H279334   0.496   2.623   3.798 -0.7023 -1.6379 -1.4265
19307TIP3   OH279335   4.295   1.483   2.581  0.4116  0.1338 -0.7247
19307TIP3    H179336   4.320   1.426   2.653  1.7028  0.2263 -1.0702
19307TIP3    H279337   4.286   1.424   2.506 -0.0578  0.1553 -0.6891
19308TIP3   OH279338   5.837   6.129   1.124 -0.3176 -0.1075  0.1634
19308TIP3    H179339   5.878   6.181   1.055  0.0339  0.1721  0.5804
19308TIP3    H279340   5.815   6.046   1.081  1.0843 -0.4354  0.0292
19309TIP3   OH279341   2.149   0.241  13.742  0.0752 -0.0139 -0.5499
19309TIP3    H179342   2.168   0.297  13.817  1.2326 -1.0168 -0.0661
19309TIP3    H279343   2.076   0.284  13.698 -1.6190 -0.1822  1.9543
19310TIP3   OH279344   2.536   0.031  13.504 -0.4767 -0.2284  0.4018
19310TIP3    H179345   2.442   0.045  13.507 -0.5828 -0.5969 -0.6498
19310TIP3    H279346   2.545  -0.063  13.486  0.1057 -0.2883  0.9611
19311TIP3   OH279347   0.991   0.487  16.510  0.1328  0.0355 -0.3545
19311TIP3    H179348   1.078   0.451  16.490 -0.2862 -1.6319  0.6888
19311TIP3    H279349   0.972   0.545  16.436  1.3967 -0.9173 -1.4787
19312TIP3   OH279350   6.652   1.504   5.200  0.9145  0.6847 -0.1881
19312TIP3    H179351   6.700   1.575   5.157  0.1873  1.8595  0.8610
19312TIP3    H279352   6.578   1.548   5.242 -0.6811 -0.9914 -1.1703
19313TIP3   OH279353   5.617   0.115   5.770 -0.5393 -0.1993 -0.6248
19313TIP3    H179354   5.615   0.020   5.782 -2.3460 -0.1671 -0.3221
19313TIP3    H279355   5.543   0.133   5.713  0.1702  0.9776 -1.2018
19314TIP3   OH279356   2.225   1.918  12.340 -0.0408 -0.1965 -0.2576
19314TIP3    H179357   2.302   1.861  12.338 -0.4820 -0.8280  0.5357
19314TIP3    H279358   2.239   1.976  12.415 -0.2473 -0.1837 -0.2273
19315TIP3   OH279359   5.460   0.116   2.290 -0.1966  0.8525 -0.2103
19315TIP3    H179360   5.454   0.208   2.315  0.1948  1.0484 -0.7976
19315TIP3    H279361   5.549   0.106   2.256 -1.0729  0.9562 -2.7425
19316TIP3   OH279362   5.105   0.630  11.232  0.1986  0.3372  0.7903
19316TIP3    H179363   5.115   0.601  11.141  1.6236 -0.0592  1.0504
19316TIP3    H279364   5.095   0.725  11.225 -2.7431  0.0953  0.0605
19317TIP3   OH279365   1.416   2.220   2.343  0.5929  0.2565  0.3519
19317TIP3    H179366   1.361   2.241   2.268  0.4191  1.4659  0.7891
19317TIP3    H279367   1.445   2.305   2.376  1.5930 -0.2996  0.9731
19318TIP3   OH279368   1.056   4.799  14.540  0.0875  0.1929 -0.1179
19318TIP3    H179369   1.029   4.795  14.631  0.5499  1.5362  0.1018
19318TIP3    H279370   1.151   4.807  14.543  0.0883  0.5010 -0.7026
19319TIP3   OH279371   4.533   0.902  14.273 -0.2072 -0.1408 -0.5955
19319TIP3    H179372   4.551   0.993  14.297  0.2169  0.0075 -1.4538
19319TIP3    H279373   4.444   0.886  14.305 -0.6492  0.8758 -1.2688
19320TIP3   OH279374   3.137   0.983  16.782  0.4198 -0.1875  0.0890
19320TIP3    H179375   3.085   0.967  16.861  0.2027  0.4720  0.0902
19320TIP3    H279376   3.140   0.899  16.737  0.5701 -0.5735  0.8150
19321TIP3   OH279377   3.695   3.444   2.063 -0.3108 -0.2318 -0.3553
19321TIP3    H179378   3.687   3.424   2.156 -0.4270  1.4273  0.0242
19321TIP3    H279379   3.775   3.496   2.056 -2.7669  4.1012 -0.2554
19322TIP3   OH279380   0.321   0.772  12.066 -0.0734  0.5564  0.7711
19322TIP3    H179381   0.249   0.812  12.116 -0.3590  0.5185  0.3910
19322TIP3    H279382   0.368   0.846  12.029 -1.6314  0.5495 -1.3960
19323TIP3   OH279383   3.949   4.154   5.065 -0.2761  0.3113 -0.6501
19323TIP3    H179384   3.999   4.077   5.093  0.4814  1.8043  2.5687
19323TIP3    H279385   3.996   4.188   4.989  1.0789 -0.7570 -0.3296
19324TIP3   OH279386   3.160   5.717   6.272  0.3823 -0.4454  0.2619
19324TIP3    H179387   3.191   5.796   6.227 -1.7705  1.5665  2.0608
19324TIP3    H279388   3.189   5.727   6.362  0.9186 -2.2842  0.3487
19325TIP3   OH279389   4.468   0.764   5.512 -0.3628  0.2135 -0.5323
19325TIP3    H179390   4.489   0.854   5.535 -0.4558 -0.1670  1.1718
19325TIP3    H279391   4.389   0.771   5.458 -1.9163  1.0764  1.6731
19326TIP3   OH279392   6.560   2.192   1.117 -0.5814  0.3783 -0.5447
19326TIP3    H179393   6.479   2.170   1.073 -1.1808 -0.9443  1.1354
19326TIP3    H279394   6.566   2.132   1.191  1.5050  1.0004 -0.1116
19327TIP3   OH279395   1.884   0.807  16.678 -0.4659 -0.6823 -0.2522
19327TIP3    H179396   1.850   0.843  16.759  1.0179 -0.2889  0.2276
19327TIP3    H279397   1.831   0.848  16.609 -0.9993 -0.1592  0.4603
19328TIP3   OH279398   3.467   0.138  12.978 -0.3239  0.2211 -0.7003
19328TIP3    H179399   3.378   0.161  12.953 -1.5201  1.0331  3.5180
19328TIP3    H279400   3.458   0.081  13.054  2.4080  3.9306  2.9354
19329TIP3   OH279401   6.019   1.350  12.388 -1.2804  0.2378  0.2501
19329TIP3    H179402   6.078   1.309  12.451  1.4962  0.9949 -1.6675
19329TIP3    H279403   6.037   1.444  12.397 -1.4704  0.4086 -1.0223
19330TIP3   OH279404   3.305   2.496  16.893  0.6667 -0.2112 -0.3668
19330TIP3    H179405   3.291   2.405  16.917  0.3920 -0.1846 -0.4257
19330TIP3    H279406   3.218   2.533  16.887  0.7954  0.2047  0.2202
19331TIP3   OH279407   3.732   0.189  11.429  0.3131  0.0114 -0.4454
19331TIP3    H179408   3.821   0.154  11.435  0.0351 -0.5509  0.5150
19331TIP3    H279409   3.690   0.136  11.361  1.0208  1.0104 -1.7165
19332TIP3   OH279410   0.956   5.132   2.723 -0.5258  0.0453  0.0362
19332TIP3    H179411   0.865   5.105   2.731 -0.4229 -0.1953  0.4115
19332TIP3    H279412   1.005   5.067   2.774 -0.1342  0.1056 -0.2595
19333TIP3   OH279413   6.434   5.733  14.522 -0.8884 -0.3597  0.7120
19333TIP3    H179414   6.527   5.713  14.525 -0.2008  2.1716 -0.8930
19333TIP3    H279415   6.396   5.683  14.594  2.0733  0.3636  2.9438
19334TIP3   OH279416   0.590   1.903   0.659  0.3565  0.3424 -0.5947
19334TIP3    H179417   0.668   1.846   0.661  0.4470  0.3086  3.2349
19334TIP3    H279418   0.518   1.843   0.642  0.6086 -0.8472  1.9974
19335TIP3   OH279419   0.494   1.180  14.819 -0.3188  0.5389  0.3840
19335TIP3    H179420   0.578   1.225  14.810  1.4887 -2.6677 -0.4647
19335TIP3    H279421   0.503   1.130  14.900 -0.7101 -1.0728 -0.5276
19336TIP3   OH279422   1.918   3.204  14.141 -0.1905 -0.1846  0.2790
19336TIP3    H179423   1.859   3.153  14.196  0.4725 -0.6886  0.5401
19336TIP3    H279424   2.004   3.165  14.156  0.2676  0.7833  0.1929
19337TIP3   OH279425   4.517   1.508   4.678  0.6252  0.2367 -0.1617
19337TIP3    H179426   4.585   1.471   4.734  1.2067  1.4228 -0.0602
19337TIP3    H279427   4.546   1.489   4.589 -0.3680 -1.7735 -0.1305
19338TIP3   OH279428   6.185   1.740   4.376  0.0325  0.1010  0.1913
19338TIP3    H179429   6.136   1.706   4.450  0.4393 -1.1738 -0.0890
19338TIP3    H279430   6.228   1.663   4.338 -1.0997  0.4940 -2.0729
19339TIP3   OH279431   2.329   1.922   1.326 -0.3977  0.5356  0.3804
19339TIP3    H179432   2.249   1.947   1.280 -0.3916  0.5570  0.3815
19339TIP3    H279433   2.398   1.932   1.261 -0.7509 -2.3638 -0.5652
19340TIP3   OH279434   1.913   3.929  16.634 -0.2386  0.0843 -0.3149
19340TIP3    H179435   1.904   3.904  16.542 -0.7821 -0.1957 -0.1913
19340TIP3    H279436   1.854   4.003  16.644 -0.9039 -0.4799  0.0261
19341TIP3   OH279437   3.099   1.673   0.635  0.4322 -0.3244 -0.6012
19341TIP3    H179438   3.035   1.722   0.584 -0.5295 -0.4599  0.4453
19341TIP3    H279439   3.055   1.655   0.718  1.9225 -0.2120  0.2397
19342TIP3   OH279440   2.034   3.348  13.218  0.3092  0.1278  0.7299
19342TIP3    H179441   2.049   3.419  13.280  1.6130  0.3496  0.2073
19342TIP3    H279442   2.052   3.387  13.133  0.1216 -0.5927  0.3554
19343TIP3   OH279443   2.519   5.003  12.363  1.0171 -0.1035 -0.0220
19343TIP3    H179444   2.472   5.013  12.281 -1.7982 -1.1085  1.3518
19343TIP3    H279445   2.537   5.092  12.392 -1.7939  0.4416  0.2843
19344TIP3   OH279446   2.767   2.014  15.294  0.2272 -0.5443 -0.0311
19344TIP3    H179447   2.807   1.999  15.208 -0.9406 -2.2894 -0.3217
19344TIP3    H279448   2.691   1.956  15.295 -1.1706  1.1968  1.2651
19345TIP3   OH279449   1.905   4.323  14.511 -0.4105 -0.2369  0.9401
19345TIP3    H179450   1.872   4.234  14.515 -1.7160  0.2320  1.1201
19345TIP3    H279451   1.991   4.320  14.555 -0.2503 -1.4662  0.5613
19346TIP3   OH279452   1.247   2.807   1.061  0.2121  0.1537 -0.3172
19346TIP3    H179453   1.283   2.869   1.124  0.2378  1.1749 -1.2982
19346TIP3    H279454   1.293   2.725   1.079 -0.1879  0.2494  1.3420
19347TIP3   OH279455   3.642   4.065  10.915  0.0400  0.3647 -0.4440
19347TIP3    H179456   3.608   3.975  10.915  0.8069  0.0231 -2.1844
19347TIP3    H279457   3.702   4.067  10.989 -0.7896 -0.2130  0.2717
19348TIP3   OH279458   2.484   4.468   3.319 -0.3498 -0.6088 -0.7546
19348TIP3    H179459   2.512   4.434   3.235 -0.4384  0.4131 -1.2076
19348TIP3    H279460   2.483   4.563   3.309 -0.8895 -0.4840  0.2243
19349TIP3   OH279461   5.221   4.927  15.771  0.2657 -0.1801  0.2286
19349TIP3    H179462   5.280   4.997  15.801 -2.1133  2.5255 -0.9409
19349TIP3    H279463   5.154   4.922  15.839 -1.3220  1.0360 -1.1684
19350TIP3   OH279464   4.403   5.517  12.478  0.0876  0.4340  0.3459
19350TIP3    H179465   4.382   5.570  12.554  1.1222  1.5948 -0.1354
19350TIP3    H279466   4.477   5.462  12.507  2.1339  2.5977 -0.4330
19351TIP3   OH279467   2.591   2.133   3.216  0.0850  0.4720 -0.0226
19351TIP3    H179468   2.547   2.218   3.208 -2.9061 -0.9567 -0.0464
19351TIP3    H279469   2.604   2.104   3.126  2.2098  1.3366 -0.0541
19352TIP3   OH279470   3.591   5.248  15.140  0.3570 -0.2086 -0.2635
19352TIP3    H179471   3.508   5.225  15.183  0.4046 -0.4806 -0.3159
19352TIP3    H279472   3.657   5.198  15.188  0.6262  0.7938  0.4486
19353TIP3   OH279473   3.734   3.255   1.874  0.4821  0.5245  0.0994
19353TIP3    H179474   3.725   3.324   1.940  3.3215  1.0620  0.0544
19353TIP3    H279475   3.813   3.278   1.826 -0.7735 -0.5859 -2.6891
19354TIP3   OH279476   3.593   0.025  16.211 -0.2092 -0.6177  0.0801
19354TIP3    H179477   3.643   0.057  16.136  1.2370 -4.6945 -0.9733
19354TIP3    H279478   3.659   0.013  16.280 -0.9436  0.0001  0.9066
19355TIP3   OH279479   4.998   6.703   2.557  0.5691 -0.0926  0.3524
19355TIP3    H179480   4.992   6.668   2.646  1.2085 -1.5026 -0.1316
19355TIP3    H279481   4.996   6.798   2.568 -0.8644 -0.2489  1.7520
19356TIP3   OH279482   0.789   1.836  10.829 -0.0398  0.0503 -0.4408
19356TIP3    H179483   0.704   1.805  10.800  0.1142 -1.3429  0.5265
19356TIP3    H279484   0.847   1.821  10.754 -0.7126  1.4903 -1.2929
19357TIP3   OH279485   2.688   0.367   3.525  0.1643 -0.5901 -0.2716
19357TIP3    H179486   2.773   0.410   3.521 -0.2818  0.5940  1.7311
19357TIP3    H279487   2.666   0.349   3.434  3.9794 -3.9389 -0.8692
19358TIP3   OH279488   6.545   4.013   3.981  0.9508  0.0132 -0.2046
19358TIP3    H179489   6.512   3.999   3.892  0.4244  2.5130 -0.4804
19358TIP3    H279490   6.470   3.994   4.037  1.9377 -4.1372  0.0922
19359TIP3   OH279491   4.277   0.800  16.021  0.2123 -0.0930 -0.4712
19359TIP3    H179492   4.329   0.769  15.946  1.5526 -1.0479  0.7902
19359TIP3    H279493   4.343   0.828  16.085 -0.9299  1.8765 -0.0969
19360TIP3   OH279494   5.529   4.976  15.115  0.1189 -0.0073 -0.0724
19360TIP3    H179495   5.487   4.891  15.123 -0.2227  0.2134  0.6003
19360TIP3    H279496   5.599   4.964  15.050  1.1668 -1.2254  1.2295
19361TIP3   OH279497   1.211   5.441   3.085  0.0196 -0.2627  0.0588
19361TIP3    H179498   1.129   5.478   3.052  0.5082  0.4794 -0.3667
19361TIP3    H279499   1.213   5.352   3.049  0.0033  0.1515 -1.0103
19362TIP3   OH279500   5.801   3.872  15.661 -0.2000 -0.6104  0.5953
19362TIP3    H179501   5.715   3.830  15.668 -0.0880 -1.0657 -0.5163
19362TIP3    H279502   5.817   3.878  15.567  0.2853  0.9379  0.7523
19363TIP3   OH279503   4.010   5.435   3.123  0.4451 -0.0777  0.8430
19363TIP3    H179504   3.955   5.365   3.159 -1.8928  1.6604  0.8686
19363TIP3    H279505   4.082   5.444   3.185 -1.5205  0.3829  3.1774
19364TIP3   OH279506   5.694   3.822   5.884  0.3592 -0.3226  0.0319
19364TIP3    H179507   5.785   3.826   5.912  0.2362  1.4925  0.3304
19364TIP3    H279508   5.664   3.913   5.889 -0.9535 -0.6014 -1.7543
19365TIP3   OH279509   0.282   1.154  17.218 -0.7973 -0.0737 -0.2924
19365TIP3    H179510   0.355   1.093  17.209 -0.7217  0.0061 -0.2218
19365TIP3    H279511   0.208   1.099  17.242 -0.7048 -0.1253 -0.1218
19366TIP3   OH279512   3.911   4.699  13.239 -0.0038 -0.0213  0.5095
19366TIP3    H179513   3.965   4.779  13.232 -1.8833  1.2132 -0.9423
19366TIP3    H279514   3.854   4.715  13.314  0.6652 -0.7297  1.1898
19367TIP3   OH279515   0.889   2.058  10.998 -0.3531  0.0811 -0.1560
19367TIP3    H179516   0.959   2.112  10.961 -0.0043  0.3234  0.8127
19367TIP3    H279517   0.914   1.968  10.977  0.4278  0.1470  0.4650
19368TIP3   OH279518   5.569   4.263   3.958 -0.3285  0.6808 -0.1131
19368TIP3    H179519   5.545   4.255   3.866  1.4908 -3.2127 -0.4449
19368TIP3    H279520   5.651   4.214   3.966  0.9595  3.0071  3.1561
19369TIP3   OH279521   2.699   5.193  14.468  0.4320  0.7032 -0.6198
19369TIP3    H179522   2.794   5.197  14.461  0.5221  3.7236  0.7071
19369TIP3    H279523   2.667   5.232  14.387  0.2592 -0.8731 -1.3394
19370TIP3   OH279524   0.009   0.940  15.758 -0.1731 -0.0040 -0.1676
19370TIP3    H179525  -0.022   0.884  15.687 -0.7960 -0.4753  0.4511
19370TIP3    H279526  -0.062   1.003  15.772 -0.0328  0.1210 -0.0055
19371TIP3   OH279527   1.062   1.668   1.191 -0.1274 -0.1735 -0.2672
19371TIP3    H179528   1.082   1.739   1.252  1.1122  0.2427 -1.0950
19371TIP3    H279529   1.140   1.612   1.194 -1.3396 -1.8657  0.8293
19372TIP3   OH279530   2.483   6.422  16.375 -0.3475 -0.1555 -0.2175
19372TIP3    H179531   2.569   6.432  16.333 -0.0489  0.3900  0.5059
19372TIP3    H279532   2.443   6.508  16.368 -0.6405 -0.2828 -0.1270
19373TIP3   OH279533   3.648   1.108   4.115 -0.0010 -0.4016 -0.2160
19373TIP3    H179534   3.626   1.050   4.188  1.5204 -0.7517 -0.0134
19373TIP3    H279535   3.657   1.050   4.039  0.7180 -0.3411 -0.1842
19374TIP3   OH279536   2.557   6.060  15.494  0.1632  0.0372  0.1493
19374TIP3    H179537   2.635   6.085  15.445  0.8804 -3.2150 -0.6450
19374TIP3    H279538   2.586   5.988  15.551 -2.1430 -1.0926  0.0368
19375TIP3   OH279539   2.186   3.354   2.298  0.3798  0.1155  0.2833
19375TIP3    H179540   2.125   3.285   2.274 -0.4178  0.0052  2.4376
19375TIP3    H279541   2.226   3.381   2.215 -0.0498 -2.1861 -0.7327
19376TIP3   OH279542   0.570   6.126  12.999  0.0123 -0.5395 -0.4499
19376TIP3    H179543   0.582   6.074  13.079  1.3579  0.5426  0.0992
19376TIP3    H279544   0.641   6.190  13.002 -0.1680 -0.2101 -2.3256
19377TIP3   OH279545   4.505   0.170  10.522  0.2007  0.1710  0.0719
19377TIP3    H179546   4.587   0.134  10.556 -0.2865 -2.1047 -0.9202
19377TIP3    H279547   4.437   0.114  10.560 -0.3447 -3.3266 -5.0054
19378TIP3   OH279548   1.416   6.337   2.894  0.1906  0.2896  0.3409
19378TIP3    H179549   1.504   6.322   2.927 -0.0836 -0.5246  0.7347
19378TIP3    H279550   1.381   6.408   2.948 -0.0942 -0.7331  1.5372
19379TIP3   OH279551   2.028   3.175   0.201 -0.4799 -0.1542  0.1787
19379TIP3    H179552   2.006   3.139   0.287  0.8464 -1.9561 -0.1757
19379TIP3    H279553   2.120   3.154   0.190 -0.1746  1.6666 -0.9450
19380TIP3   OH279554   2.521   6.374  12.476  0.1321  0.3890  0.0586
19380TIP3    H179555   2.525   6.421  12.393 -1.5481  0.2323 -0.1337
19380TIP3    H279556   2.530   6.442  12.543 -2.9472  1.1713 -0.1971
19381TIP3   OH279557   0.160   2.813  13.691  0.1106 -0.0792  0.0486
19381TIP3    H179558   0.167   2.734  13.744 -0.2183 -0.9923 -1.2143
19381TIP3    H279559   0.250   2.834  13.666  0.1633 -0.3325  0.0192
19382TIP3   OH279560   0.306   2.928  16.726 -0.3270  0.1755  0.0767
19382TIP3    H179561   0.353   2.995  16.776 -0.2670  0.6976 -0.6581
19382TIP3    H279562   0.296   2.966  16.639  2.9765 -2.1959 -1.5383
19383TIP3   OH279563   2.190   2.298  11.566  0.4248  0.4909  0.1236
19383TIP3    H179564   2.239   2.245  11.628 -1.1295 -0.1859  0.8267
19383TIP3    H279565   2.133   2.352  11.620  0.1451  1.0112 -0.6783
19384TIP3   OH279566   6.347   3.622   5.954 -0.1901  0.6946  0.9819
19384TIP3    H179567   6.277   3.559   5.935  0.6563 -0.0372  0.2430
19384TIP3    H279568   6.301   3.704   5.973 -1.2343  0.3659 -0.0409
19385TIP3   OH279569   5.890   4.632  16.997 -0.2596 -0.0549  0.1348
19385TIP3    H179570   5.857   4.671  16.916  1.7002  1.8909  0.1579
19385TIP3    H279571   5.843   4.550  17.006 -1.3101  0.1911 -2.4038
19386TIP3   OH279572   4.611   1.028  13.246  0.6850  0.0855 -0.0083
19386TIP3    H179573   4.577   1.104  13.293  1.9599  1.8864 -1.8401
19386TIP3    H279574   4.649   0.973  13.315 -0.2048  1.1284  1.3658
19387TIP3   OH279575   5.014   3.522  14.193  0.3099 -0.6312 -0.0171
19387TIP3    H179576   4.986   3.498  14.282 -1.7734  2.0989  0.2061
19387TIP3    H279577   4.950   3.482  14.136  0.1064 -0.2309 -0.0725
19388TIP3   OH279578   2.366   0.673   4.335  0.0207 -0.4450  0.4448
19388TIP3    H179579   2.336   0.598   4.386  1.4725 -0.8962  0.6886
19388TIP3    H279580   2.319   0.748   4.371 -0.2929 -1.0147  1.2410
19389TIP3   OH279581   6.467   0.677  15.874 -0.3032 -0.4311 -0.0838
19389TIP3    H179582   6.389   0.710  15.919 -1.1242 -0.6229 -1.3124
19389TIP3    H279583   6.451   0.696  15.781  0.4534 -1.7726 -0.5238
19390TIP3   OH279584   3.548   1.844   2.268  0.1620  0.1692 -0.1772
19390TIP3    H179585   3.532   1.800   2.185  1.4417  0.5064 -0.6236
19390TIP3    H279586   3.572   1.933   2.244  2.3316 -0.2073  0.4133
19391TIP3   OH279587   4.999   6.321   0.820  0.3483  0.5205  0.4431
19391TIP3    H179588   5.017   6.397   0.765  0.5593  0.0131 -0.1821
19391TIP3    H279589   5.084   6.294   0.853  0.4450 -0.2937 -0.4494
19392TIP3   OH279590   3.670   1.924  11.453  0.7649  0.3056 -0.5709
19392TIP3    H179591   3.661   1.829  11.451  0.6545  0.3298 -1.3571
19392TIP3    H279592   3.586   1.957  11.423  0.8786  0.6547 -0.5132
19393TIP3   OH279593   3.413   0.067  14.490  0.4842  0.1492 -0.2784
19393TIP3    H179594   3.344   0.132  14.502  1.3470  1.1296 -0.5255
19393TIP3    H279595   3.400   0.035  14.400 -1.0603 -1.3939  0.4324
19394TIP3   OH279596   3.582   5.905   2.460 -0.5274  0.2056  1.1627
19394TIP3    H179597   3.562   5.858   2.379  1.0093 -1.8943  1.8892
19394TIP3    H279598   3.621   5.988   2.432  0.8639 -0.8739 -0.3134
19395TIP3   OH279599   1.555   5.283   3.778  0.4903  0.0317 -0.1745
19395TIP3    H179600   1.587   5.198   3.748  0.9860  0.4082 -0.7338
19395TIP3    H279601   1.481   5.303   3.720 -0.0341 -0.3103  0.3724
19396TIP3   OH279602   5.092   6.271   2.256 -0.9233 -0.0801 -0.2755
19396TIP3    H179603   5.062   6.357   2.285 -0.2478  0.0353  0.1278
19396TIP3    H279604   5.139   6.288   2.174  0.5950  0.2064  0.5989
19397TIP3   OH279605   3.809   6.580   0.897  0.1423  0.3585 -0.0014
19397TIP3    H179606   3.843   6.509   0.952 -0.4849  0.0074 -0.0566
19397TIP3    H279607   3.715   6.577   0.911 -0.0889 -0.0770 -1.5042
19398TIP3   OH279608   6.522   2.816  11.665 -0.2908 -0.1166 -0.6758
19398TIP3    H179609   6.597   2.828  11.606  0.5159 -0.2720  0.2865
19398TIP3    H279610   6.529   2.887  11.728 -1.6640  0.5740 -1.2549
19399TIP3   OH279611   2.371   6.566  15.901  0.1520 -0.4610  0.2290
19399TIP3    H179612   2.456   6.603  15.877 -0.2174 -0.4705 -1.2079
19399TIP3    H279613   2.313   6.591  15.829 -0.9495 -0.8541  0.9600
19400TIP3   OH279614   4.224   2.097   1.053  0.1161  0.4470 -0.0761
19400TIP3    H179615   4.207   2.148   0.974 -1.5342  0.2140  0.0873
19400TIP3    H279616   4.206   2.157   1.126 -0.9120 -0.0694  0.1120
19401TIP3   OH279617   5.078   5.013   4.388 -0.4048 -0.8292  0.3205
19401TIP3    H179618   5.110   4.925   4.403 -0.6002 -0.4093  4.2934
19401TIP3    H279619   4.985   5.009   4.411  0.1208  0.8103  3.1848
19402TIP3   OH279620   5.462   0.408   0.402  0.2879  0.2437 -0.5082
19402TIP3    H179621   5.416   0.437   0.481  0.6590  1.5217 -0.7433
19402TIP3    H279622   5.476   0.488   0.352  0.1191 -0.5381 -1.8484
19403TIP3   OH279623   6.683   1.224  17.043 -0.5607  0.2092  0.0821
19403TIP3    H179624   6.726   1.302  17.009 -1.4511  0.3823 -0.6629
19403TIP3    H279625   6.689   1.160  16.972 -0.9912  0.0290  0.2043
19404TIP3   OH279626   1.125   3.815   5.718  0.1734  0.1962  0.9804
19404TIP3    H179627   1.170   3.853   5.643 -3.1917  1.9241 -0.3735
19404TIP3    H279628   1.121   3.886   5.782 -2.5174  0.9635  0.1009
19405TIP3   OH279629   2.837   0.238  12.154  0.0287  0.1357 -0.2900
19405TIP3    H179630   2.741   0.247  12.160  0.0297 -0.4141  0.7381
19405TIP3    H279631   2.870   0.327  12.163 -0.2846  0.0560  2.1885
19406TIP3   OH279632   6.060   3.369  16.723  0.2406 -0.2494  0.2069
19406TIP3    H179633   6.150   3.368  16.756  0.0668  0.8414  0.7958
19406TIP3    H279634   6.057   3.299  16.658  1.5938 -0.1216 -0.0335
19407TIP3   OH279635   0.317   3.392  14.183  0.5279 -0.1141  0.4443
19407TIP3    H179636   0.324   3.361  14.274  0.8340  0.4059  0.5998
19407TIP3    H279637   0.237   3.445  14.182  1.6171  1.6097  0.9339
19408TIP3   OH279638   5.096   5.904  11.353 -0.0962  0.0681 -0.2040
19408TIP3    H179639   5.170   5.881  11.409 -0.5010  0.7518  0.6308
19408TIP3    H279640   5.132   5.899  11.264  1.1099  0.8693  0.2051
19409TIP3   OH279641   4.619   0.292   3.275  0.0723 -0.5811 -0.1103
19409TIP3    H179642   4.596   0.246   3.356  2.3902 -2.3522 -0.3500
19409TIP3    H279643   4.606   0.384   3.296 -1.9435 -1.1191  1.3666
19410TIP3   OH279644   5.246   2.284   2.552 -0.3313 -0.2895 -0.3777
19410TIP3    H179645   5.328   2.296   2.505 -0.0320 -0.1967  0.1660
19410TIP3    H279646   5.188   2.353   2.518 -0.6194 -1.1570 -1.7015
19411TIP3   OH279647   2.172   6.753  15.306  0.0428  0.3100 -0.5854
19411TIP3    H179648   2.207   6.835  15.272 -2.5265  2.0964  0.8363
19411TIP3    H279649   2.147   6.772  15.396 -1.3442 -1.8153 -0.4498
19412TIP3   OH279650   6.100   2.542   5.391  0.1883 -0.4698 -0.5243
19412TIP3    H179651   6.079   2.635   5.381  0.4218 -0.2573  0.7997
19412TIP3    H279652   6.037   2.510   5.455  1.4504 -0.7089  0.6360
19413TIP3   OH279653   6.231   2.973   2.843  0.5390 -1.0894 -0.1498
19413TIP3    H179654   6.321   3.002   2.830  0.6515 -0.7735  1.1498
19413TIP3    H279655   6.238   2.879   2.861  0.6527 -0.9929  0.3217
19414TIP3   OH279656   1.981   4.192   4.224 -0.2924 -0.5207 -0.3888
19414TIP3    H179657   2.066   4.231   4.247 -1.0265  0.3834  0.9441
19414TIP3    H279658   1.954   4.147   4.304 -2.0698  1.0958 -0.0074
19415TIP3   OH279659   1.417   3.515  15.076  0.2091 -0.2017  0.3135
19415TIP3    H179660   1.406   3.428  15.038  1.1748 -0.6333  0.9923
19415TIP3    H279661   1.423   3.500  15.170 -0.5805  0.7075  0.5260
19416TIP3   OH279662   5.423   1.284  12.827  0.4219  0.2384 -0.1813
19416TIP3    H179663   5.400   1.355  12.887  0.6601 -0.4072  0.6958
19416TIP3    H279664   5.338   1.247  12.800  0.3353 -0.0852  0.5224
19417TIP3   OH279665   3.117   6.494   2.345  0.5585  0.1141 -0.6372
19417TIP3    H179666   3.138   6.497   2.438  0.0763  1.4197 -0.5436
19417TIP3    H279667   3.039   6.439   2.339 -0.3473  1.2748 -0.0403
19418TIP3   OH279668   1.963   6.330  16.309 -0.1718 -0.0816 -0.3581
19418TIP3    H179669   1.934   6.267  16.375  0.0785 -0.0463 -0.2126
19418TIP3    H279670   1.989   6.407  16.360  0.4801 -0.2282 -0.4615
19419TIP3   OH279671   3.698   3.993   3.038 -0.1526  0.1822 -0.4260
19419TIP3    H179672   3.765   4.061   3.032 -0.4469  0.4964 -0.1444
19419TIP3    H279673   3.624   4.035   3.081  0.4979 -0.9571  1.9568
19420TIP3   OH279674   0.794   3.506   5.937  0.0779  0.2490  0.2674
19420TIP3    H179675   0.722   3.568   5.951  0.3193  0.8111 -0.8463
19420TIP3    H279676   0.797   3.454   6.017 -0.2114  1.6049  1.2020
19421TIP3   OH279677   0.472   6.121  12.033  0.3239  0.2781 -0.3376
19421TIP3    H179678   0.512   6.035  12.042 -1.6948 -0.9722 -2.3012
19421TIP3    H279679   0.401   6.121  12.098 -0.1466  0.1515 -0.8478
19422TIP3   OH279680   3.241   6.013  15.632  0.5414 -0.2339  0.1961
19422TIP3    H179681   3.272   6.095  15.593 -0.9497  0.3774  0.2634
19422TIP3    H279682   3.168   5.986  15.577  0.1097 -0.7649  1.0125
19423TIP3   OH279683   4.234   2.495  13.089 -0.0605 -0.1464  0.3078
19423TIP3    H179684   4.245   2.459  13.177  0.3478 -1.6646 -0.3293
19423TIP3    H279685   4.140   2.493  13.074 -0.1273  0.0647  0.6792
19424TIP3   OH279686   0.645   4.124   1.625 -0.4810  0.2274  0.1099
19424TIP3    H179687   0.584   4.124   1.699 -1.7623  1.7744 -0.8727
19424TIP3    H279688   0.702   4.199   1.641 -1.8303  1.5955 -1.2461
19425TIP3   OH279689   3.840   1.654  15.690 -0.0103  0.0156 -0.4576
19425TIP3    H179690   3.781   1.704  15.746  0.8318  1.5103 -0.8454
19425TIP3    H279691   3.862   1.577  15.741  0.2276  1.0218  1.0101
19426TIP3   OH279692   2.827   2.827  17.129 -0.4950 -0.3843  0.6199
19426TIP3    H179693   2.891   2.844  17.198 -0.3825  1.0921  0.1924
19426TIP3    H279694   2.814   2.913  17.087  0.3517 -1.4211 -1.9656
19427TIP3   OH279695   3.080   3.839  16.631 -0.2688 -0.1350 -0.0630
19427TIP3    H179696   3.173   3.839  16.612 -0.4988 -0.5680 -1.2902
19427TIP3    H279697   3.044   3.911  16.579 -0.6902 -0.2654  0.0362
19428TIP3   OH279698   1.000   2.391   4.728  0.0874  0.2207  0.0121
19428TIP3    H179699   1.082   2.419   4.686 -0.0613  0.7191  0.0496
19428TIP3    H279700   1.027   2.363   4.815  0.1964  0.5728  0.0963
19429TIP3   OH279701   6.599   2.336   5.941  0.2234 -0.4312 -0.9188
19429TIP3    H179702   6.594   2.250   5.897 -1.3238 -1.5085  1.1822
19429TIP3    H279703   6.514   2.376   5.923  0.6358  0.3280 -1.2007
19430TIP3   OH279704   2.255   5.989   6.538 -0.5396 -0.3673  0.0873
19430TIP3    H179705   2.195   5.924   6.576 -2.6154  0.3591 -1.7519
19430TIP3    H279706   2.238   5.986   6.444 -1.4734  3.4232 -0.0484
19431TIP3   OH279707   0.675   2.203  14.517 -0.1636  0.0939 -0.1174
19431TIP3    H179708   0.614   2.251  14.573  1.5718  2.5147 -0.1252
19431TIP3    H279709   0.621   2.173  14.444 -1.8071 -0.1324  1.1241
19432TIP3   OH279710   6.707   1.122  13.970  0.1894 -0.2557  0.0655
19432TIP3    H179711   6.758   1.203  13.966 -0.4628  0.1195 -0.9272
19432TIP3    H279712   6.633   1.137  13.911  0.4556 -1.8609 -0.7123
19433TIP3   OH279713   2.599   1.438  11.304 -0.2567  0.2656  0.0049
19433TIP3    H179714   2.572   1.432  11.212  0.3329 -0.3554 -0.1308
19433TIP3    H279715   2.688   1.471  11.301 -0.2342  0.2388  0.3575
19434TIP3   OH279716   0.926   6.757   4.289 -0.3255  0.2635  0.0843
19434TIP3    H179717   0.908   6.694   4.220  0.1019 -0.3507  0.5305
19434TIP3    H279718   0.976   6.709   4.354  1.1293  1.3848 -0.1494
19435TIP3   OH279719   1.391   5.017   3.198  0.1186 -0.0563 -0.5930
19435TIP3    H179720   1.364   4.942   3.252 -2.1719 -0.2298 -1.8392
19435TIP3    H279721   1.429   4.977   3.119  1.5903  0.1679 -0.0212
19436TIP3   OH279722   4.086   5.002  15.136 -0.1830 -0.5431 -0.3201
19436TIP3    H179723   4.061   4.952  15.058  2.1517  0.1495 -1.6251
19436TIP3    H279724   4.167   4.961  15.166  0.3095  0.7625  0.2070
19437TIP3   OH279725   0.470   2.945  14.615  0.7924 -0.0695  0.3564
19437TIP3    H179726   0.449   3.016  14.555 -0.8772 -1.7999 -1.2643
19437TIP3    H279727   0.394   2.939  14.673  0.9096 -0.5267  0.4687
19438TIP3   OH279728   3.455   6.251  16.408 -0.5085 -0.0856 -0.1463
19438TIP3    H179729   3.440   6.282  16.497 -1.5629 -1.0739  0.0294
19438TIP3    H279730   3.518   6.314  16.371  0.8723 -0.3310  1.6580
19439TIP3   OH279731   0.889   5.889   4.423  0.5182 -0.6413 -0.5105
19439TIP3    H179732   0.940   5.957   4.468  0.0705 -0.0161 -0.9368
19439TIP3    H279733   0.911   5.898   4.331 -0.0046 -0.6704 -0.6453
19440TIP3   OH279734   2.628   3.531   2.700  0.1500 -0.2989  0.5396
19440TIP3    H179735   2.537   3.515   2.725  0.2690 -1.5262  0.2625
19440TIP3    H279736   2.652   3.453   2.649  0.8914  0.6721 -0.6520
19441TIP3   OH279737   5.826   0.351  16.219  0.3146  0.0266  0.7962
19441TIP3    H179738   5.906   0.360  16.270 -0.1698  0.6712  1.4631
19441TIP3    H279739   5.821   0.431  16.168 -1.2908  1.3232  2.8106
19442TIP3   OH279740   1.167   5.150   3.348  0.1295 -0.2701  0.0233
19442TIP3    H179741   1.249   5.106   3.325  0.5128  0.5489 -0.2165
19442TIP3    H279742   1.130   5.178   3.264 -0.9571 -1.5675  0.0295
19443TIP3   OH279743   1.195   5.676   4.705  0.1592 -0.3313  0.3173
19443TIP3    H179744   1.236   5.656   4.621 -0.2150  0.6247 -0.1087
19443TIP3    H279745   1.212   5.599   4.759 -0.7522 -1.5623 -1.0620
19444TIP3   OH279746   3.776   1.577  15.415 -0.1521  0.6781  0.0025
19444TIP3    H179747   3.855   1.531  15.388 -0.5585  0.4375 -0.7854
19444TIP3    H279748   3.797   1.610  15.503  0.2239 -0.8032  0.5046
19445TIP3   OH279749   3.245   4.345   1.684 -0.2525 -0.1286 -0.6092
19445TIP3    H179750   3.240   4.250   1.686  0.4258 -0.1709  0.8204
19445TIP3    H279751   3.323   4.366   1.736 -1.6329  1.2566  1.0348
19446TIP3   OH279752   5.992   3.808  14.737 -0.0057  0.3177  0.3703
19446TIP3    H179753   6.024   3.843  14.654  3.6061  0.5898  1.6717
19446TIP3    H279754   5.908   3.851  14.751  1.0839  3.2987 -1.3206
19447TIP3   OH279755   5.511   1.815   1.329 -0.0301 -0.7187 -0.0409
19447TIP3    H179756   5.462   1.737   1.304  0.2587 -0.9557  0.1341
19447TIP3    H279757   5.599   1.783   1.349 -0.0871 -0.4454  0.6820
19448TIP3   OH279758   5.989   0.417   0.738 -0.6861  0.6092  0.6862
19448TIP3    H179759   6.024   0.506   0.735 -0.5801  0.6067  1.6442
19448TIP3    H279760   5.979   0.393   0.646  0.3707  1.1790  0.4074
19449TIP3   OH279761   6.230   5.822  16.227 -0.2837 -0.4152 -0.2262
19449TIP3    H179762   6.314   5.806  16.271 -1.0733 -0.6524  1.2689
19449TIP3    H279763   6.166   5.823  16.298 -1.9092 -2.7844 -1.5252
19450TIP3   OH279764   1.583   3.159  12.546 -0.0626  0.0276  0.6895
19450TIP3    H179765   1.662   3.213  12.548 -0.9273  1.5259 -1.1389
19450TIP3    H279766   1.543   3.170  12.632 -0.4869  2.9095  0.2323
19451TIP3   OH279767   5.373   1.482  14.585 -0.3094 -0.1731  0.0664
19451TIP3    H179768   5.457   1.455  14.547 -1.6872 -1.5634 -2.3012
19451TIP3    H279769   5.350   1.562  14.537  0.6805  1.6649  2.4302
19452TIP3   OH279770   4.514   1.477  16.288 -0.5046 -0.5628 -0.4891
19452TIP3    H179771   4.483   1.434  16.209 -0.8423 -1.9946  0.3905
19452TIP3    H279772   4.610   1.475  16.280 -0.5356 -0.6726 -0.8635
19453TIP3   OH279773   3.576   4.777  16.272  0.5162 -0.6196 -0.1556
19453TIP3    H179774   3.554   4.802  16.362 -1.0143 -1.0930 -0.3729
19453TIP3    H279775   3.496   4.793  16.222  0.9520 -1.5446 -1.1904
19454TIP3   OH279776   6.597   3.810   4.783 -0.4942  0.7864  0.1402
19454TIP3    H179777   6.625   3.843   4.869  0.0567  2.2100 -0.5479
19454TIP3    H279778   6.638   3.870   4.720  1.0902 -1.5791 -1.2571
19455TIP3   OH279779   2.405   2.341   0.470 -0.3880 -0.0466  0.1592
19455TIP3    H179780   2.431   2.401   0.400  0.3314 -0.7272 -0.1682
19455TIP3    H279781   2.396   2.256   0.427 -2.2508 -0.0361  0.4476
19456TIP3   OH279782   2.434   3.086  16.365  0.0352  0.2370  0.2096
19456TIP3    H179783   2.396   3.054  16.283  1.7891  0.1252 -0.6045
19456TIP3    H279784   2.527   3.100  16.345  0.1591  1.9198  1.6834
19457TIP3   OH279785   0.209   2.995  17.224  0.6796 -0.1185  0.2406
19457TIP3    H179786   0.200   3.090  17.227  0.7876 -0.0912 -0.3024
19457TIP3    H279787   0.121   2.964  17.203  1.1923  0.0178 -2.4351
19458TIP3   OH279788   3.854   4.675   0.815  0.2180  0.3555 -0.0990
19458TIP3    H179789   3.908   4.728   0.874  1.3970 -0.3215 -0.5296
19458TIP3    H279790   3.897   4.683   0.730 -0.4134 -0.1401 -0.4739
19459TIP3   OH279791   5.557   3.519  14.435  0.2037  0.7516 -0.5313
19459TIP3    H179792   5.517   3.604  14.416  0.6774  0.7193 -1.7802
19459TIP3    H279793   5.651   3.536  14.433  0.3136  0.1325 -1.2000
19460TIP3   OH279794   1.875   5.114  15.111  0.6397  0.4399  0.4889
19460TIP3    H179795   1.946   5.169  15.081  0.3210  0.6876  0.1866
19460TIP3    H279796   1.907   5.076  15.193  1.1158  0.5454  0.3540
19461TIP3   OH279797   5.566   0.703   5.062 -0.1540  0.4277  0.5401
19461TIP3    H179798   5.488   0.720   5.009  0.2713 -0.8540 -0.5606
19461TIP3    H279799   5.627   0.773   5.037 -0.8580  1.3249  1.2637
19462TIP3   OH279800   3.041   1.727  12.135  0.5179  0.2247 -0.4741
19462TIP3    H179801   3.082   1.707  12.051  1.3476  0.0822 -0.0507
19462TIP3    H279802   2.954   1.688  12.130  1.0603 -0.9705 -0.7512
19463TIP3   OH279803   4.446   0.510  11.013  0.4191  0.5615  0.2515
19463TIP3    H179804   4.406   0.597  11.010 -1.2706 -0.2065 -0.2167
19463TIP3    H279805   4.404   0.467  11.087  0.9993  0.0134  0.2670
19464TIP3   OH279806   4.368   1.125   0.260 -0.2433 -0.0230 -0.4922
19464TIP3    H179807   4.415   1.161   0.334 -2.2178 -2.5843  2.2385
19464TIP3    H279808   4.323   1.201   0.221  2.0829  1.6285 -0.2003
19465TIP3   OH279809   1.791   1.982  11.415 -0.2047  0.2384 -0.2833
19465TIP3    H179810   1.696   1.975  11.430 -0.0564  1.7072  1.6196
19465TIP3    H279811   1.825   2.027  11.493  2.2317 -1.2366 -0.3841
19466TIP3   OH279812   4.376   6.447   1.344 -0.6435  0.3983 -0.1124
19466TIP3    H179813   4.351   6.539   1.352 -0.1053  0.6209 -0.9345
19466TIP3    H279814   4.451   6.447   1.284  0.0642 -0.4614  0.7388
19467TIP3   OH279815   1.881   1.948   2.145 -0.2222  0.4058 -0.4270
19467TIP3    H179816   1.851   2.031   2.184  1.0923  1.8298 -2.2556
19467TIP3    H279817   1.975   1.961   2.131  0.1766 -1.7339 -0.0414
19468TIP3   OH279818   3.272   3.693  15.974 -0.3145  0.1330 -0.3026
19468TIP3    H179819   3.361   3.701  15.941  0.6005 -0.3687  1.8507
19468TIP3    H279820   3.245   3.604  15.950 -0.4777  0.4704 -1.4321
19469TIP3   OH279821   2.860   4.535   0.972 -0.7257 -0.3251 -0.5471
19469TIP3    H179822   2.831   4.608   1.025 -2.2815 -0.7559 -0.7634
19469TIP3    H279823   2.871   4.571   0.884 -0.3928 -0.1154 -0.4197
19470TIP3   OH279824   6.102   5.266   4.619 -0.0991 -0.9558 -0.3074
19470TIP3    H179825   6.160   5.332   4.581 -1.2166  0.2223 -0.0075
19470TIP3    H279826   6.068   5.218   4.544  1.5395 -1.9281 -0.4693
19471TIP3   OH279827   4.099   5.837  17.297 -0.0413 -0.0994 -0.0269
19471TIP3    H179828   4.191   5.849  17.273 -0.2454  1.2838 -0.2257
19471TIP3    H279829   4.093   5.873  17.385 -0.2381 -0.9405  0.3120
19472TIP3   OH279830   0.830   1.390   4.547 -0.0189 -0.3799  0.2054
19472TIP3    H179831   0.911   1.401   4.598 -0.7015 -1.2524  1.5338
19472TIP3    H279832   0.854   1.329   4.477  1.3570  2.0497 -1.6155
19473TIP3   OH279833   4.219   5.517  11.030  0.5881  0.1064  0.4039
19473TIP3    H179834   4.195   5.524  10.938  1.3565 -0.5374  0.1383
19473TIP3    H279835   4.138   5.498  11.076  0.4947 -1.6474 -0.4065
19474TIP3   OH279836   2.728   2.081  16.076 -0.0944 -0.4406 -0.2539
19474TIP3    H179837   2.703   1.992  16.101  0.1316 -0.1911  0.9029
19474TIP3    H279838   2.807   2.070  16.023 -0.0727 -0.9243 -0.1264
19475TIP3   OH279839   0.489   2.941  13.285  0.0878  0.4424  0.0775
19475TIP3    H179840   0.419   2.893  13.240  0.9513 -0.2184 -0.5833
19475TIP3    H279841   0.567   2.889  13.270  0.5142  0.4882  1.8980
19476TIP3   OH279842   4.077   0.329  12.701  0.1241 -0.1020 -0.8265
19476TIP3    H179843   4.106   0.369  12.619 -1.0758  0.1963 -1.1303
19476TIP3    H279844   4.024   0.397  12.743 -0.1198 -0.6135 -0.2913
19477TIP3   OH279845   0.454   3.226  16.577 -0.1178  0.2099 -0.3528
19477TIP3    H179846   0.410   3.162  16.520  0.3082 -0.6426  0.2397
19477TIP3    H279847   0.384   3.284  16.606 -0.4261  0.3404 -1.3271
19478TIP3   OH279848   0.432   1.963   4.760 -0.0396 -0.3162 -0.4795
19478TIP3    H179849   0.438   2.040   4.818 -0.1189  0.0885 -1.0022
19478TIP3    H279850   0.511   1.913   4.778 -0.1519 -0.2917  0.1147
19479TIP3   OH279851   3.442   6.571   1.250 -0.0717  0.1224  0.1913
19479TIP3    H179852   3.376   6.557   1.318  0.9813 -1.2500  0.9978
19479TIP3    H279853   3.454   6.484   1.211  0.5334  0.5674 -0.6323
19480TIP3   OH279854   6.562   5.480   3.267 -0.2257 -0.1405 -0.0160
19480TIP3    H179855   6.632   5.424   3.234  1.4761  1.3115  0.9335
19480TIP3    H279856   6.536   5.534   3.191 -0.0217 -0.3936 -0.2651
19481TIP3   OH279857   1.992   1.615  16.652 -0.1349 -0.4146  0.1137
19481TIP3    H179858   2.049   1.654  16.585  0.1626 -0.2278  0.4745
19481TIP3    H279859   1.960   1.534  16.612 -1.6211  0.6911 -1.0733
19482TIP3   OH279860   3.434   3.125   2.055 -0.2651 -0.2213  0.0913
19482TIP3    H179861   3.402   3.124   2.145 -1.8701  1.7040 -0.3705
19482TIP3    H279862   3.378   3.190   2.011 -0.4310 -2.0302 -2.6268
19483TIP3   OH279863   3.280   4.076  12.115  0.5132  0.5384 -0.5351
19483TIP3    H179864   3.260   3.983  12.109  0.7310  0.3233  1.3755
19483TIP3    H279865   3.367   4.079  12.156  1.0008  1.5802 -1.5702
19484TIP3   OH279866   4.485   0.676   1.405 -0.5271 -0.2763  0.0879
19484TIP3    H179867   4.419   0.621   1.446  0.0856 -2.6505 -1.8630
19484TIP3    H279868   4.564   0.661   1.457 -0.8729  0.5919  0.9007
19485TIP3   OH279869   2.325   5.197   2.292 -0.2800 -0.0494  0.3700
19485TIP3    H179870   2.394   5.157   2.344 -1.7417 -0.9969  1.6636
19485TIP3    H279871   2.323   5.288   2.321 -0.9323 -0.5108  1.8685
19486TIP3   OH279872   5.860   6.565   1.720  0.0529 -0.8873 -0.2319
19486TIP3    H179873   5.806   6.490   1.693 -1.2157  0.3421 -1.2693
19486TIP3    H279874   5.901   6.594   1.638 -2.4295  1.8066 -0.6787
19487TIP3   OH279875   5.925   0.610   4.166 -0.3851  0.6028  0.6719
19487TIP3    H179876   5.955   0.542   4.105 -0.4033  1.7278 -0.6474
19487TIP3    H279877   5.989   0.681   4.155 -1.1139  1.3222  1.0195
19488TIP3   OH279878   3.705   5.838   6.241  0.0893  0.1479 -0.1900
19488TIP3    H179879   3.619   5.878   6.224  0.1052  0.3675  0.2289
19488TIP3    H279880   3.707   5.824   6.335  0.7535  0.7170 -0.1052
19489TIP3   OH279881   5.643   4.277  11.766  0.1611  0.0646 -0.2439
19489TIP3    H179882   5.677   4.287  11.854  0.1452  0.7055 -0.3048
19489TIP3    H279883   5.594   4.195  11.768 -1.5843  1.0851  0.9119
19490TIP3   OH279884   5.259   1.892   4.731  0.0202  0.2846  0.1260
19490TIP3    H179885   5.238   1.875   4.639 -0.8968  2.0298 -0.0293
19490TIP3    H279886   5.228   1.981   4.746  0.6239  0.2091  2.0015
19491TIP3   OH279887   4.290   0.948  10.729 -0.2217  0.1181 -0.0996
19491TIP3    H179888   4.365   0.916  10.779 -1.4265 -0.4915  1.3808
19491TIP3    H279889   4.297   0.902  10.645  0.6964 -0.4115  0.2452
19492TIP3   OH279890   0.217   4.907  13.701  0.6296 -0.0573  0.8752
19492TIP3    H179891   0.289   4.961  13.668  0.6247 -0.5472  0.0356
19492TIP3    H279892   0.187   4.953  13.779  0.2786  1.4456 -0.1082
19493TIP3   OH279893   2.980   2.232   2.853 -0.1520  0.0036 -0.3827
19493TIP3    H179894   3.001   2.324   2.865 -0.6135  0.2253 -1.1788
19493TIP3    H279895   2.926   2.230   2.774  1.9327 -1.2368 -1.8722
19494TIP3   OH279896   4.705   2.985   2.783 -0.4856 -0.2135 -0.2789
19494TIP3    H179897   4.653   2.915   2.746  0.1816 -1.0414  0.3079
19494TIP3    H279898   4.733   3.038   2.708 -1.2935 -0.3526 -0.6857
19495TIP3   OH279899   3.769   1.636   3.118  0.0944  0.0501 -0.1575
19495TIP3    H179900   3.703   1.566   3.121  1.2515 -1.1410 -1.1888
19495TIP3    H279901   3.777   1.657   3.025  0.4326  0.9109  0.0593
19496TIP3   OH279902   6.270   3.897  14.714 -0.1087  0.3149 -0.6166
19496TIP3    H179903   6.175   3.900  14.728  0.1834 -0.4095  2.3370
19496TIP3    H279904   6.290   3.979  14.669 -2.0664  0.8356 -0.6303
19497TIP3   OH279905   5.926   1.296   0.686 -0.1849  0.6410  0.4082
19497TIP3    H179906   5.926   1.363   0.755 -0.9777  1.3527 -0.2480
19497TIP3    H279907   5.997   1.322   0.628  0.0691  0.4104  0.6154
19498TIP3   OH279908   5.840   4.428  13.172  0.3626  0.5726 -0.3065
19498TIP3    H179909   5.762   4.438  13.116  0.8616 -0.9275 -1.3151
19498TIP3    H279910   5.810   4.376  13.246  0.0191  1.4661  0.2089
19499TIP3   OH279911   6.183   5.036  16.521 -0.1464 -0.0050 -0.0268
19499TIP3    H179912   6.205   4.943  16.529  1.6271  0.2705 -1.1573
19499TIP3    H279913   6.173   5.051  16.427 -2.5475  0.5497  0.2382
19500TIP3   OH279914   1.713   0.848   2.215 -0.0628  0.0378 -0.0074
19500TIP3    H179915   1.651   0.795   2.265  0.1654  1.0206  1.3774
19500TIP3    H279916   1.721   0.802   2.132 -0.9970 -1.2801  0.5796
19501TIP3   OH279917   6.405   4.730  13.192 -0.0868 -0.5759  0.5381
19501TIP3    H179918   6.499   4.735  13.208 -0.1685  1.2123  0.6746
19501TIP3    H279919   6.364   4.759  13.273 -0.7228 -0.3049  0.1355
19502TIP3   OH279920   3.088   5.965  15.185 -0.4057 -0.0550  0.7015
19502TIP3    H179921   3.138   6.022  15.244  1.2225 -2.1611  1.4681
19502TIP3    H279922   2.996   5.981  15.209 -0.1435  2.9969  0.1036
19503TIP3   OH279923   0.750   3.006   0.550  0.4046  0.4212 -0.7724
19503TIP3    H179924   0.775   3.084   0.501  0.9431  0.8713  0.1920
19503TIP3    H279925   0.816   2.940   0.526  1.9615  1.2709  0.9055
19504TIP3   OH279926   4.420   4.884  14.128  0.1219 -0.0877 -0.3833
19504TIP3    H179927   4.383   4.959  14.175  2.7204  0.9114  0.2382
19504TIP3    H279928   4.362   4.872  14.053 -0.9349  1.9307  0.0369
19505TIP3   OH279929   5.462   1.738  15.370 -0.2203  0.4377  0.0157
19505TIP3    H179930   5.545   1.776  15.397  0.4004 -0.6084 -0.3691
19505TIP3    H279931   5.408   1.814  15.347  1.1368  1.1105 -1.1938
19506TIP3   OH279932   3.732   5.143   3.682  0.1886 -0.4228 -0.1577
19506TIP3    H179933   3.788   5.220   3.691 -0.8897  0.3204  0.4898
19506TIP3    H279934   3.742   5.096   3.765  0.3060 -0.5995 -0.2729
19507TIP3   OH279935   2.734   4.410   2.837 -0.3949  0.3017 -0.0253
19507TIP3    H179936   2.689   4.417   2.922 -0.0355  0.2655  0.1696
19507TIP3    H279937   2.807   4.351   2.853  0.0217  0.7624 -0.2119
19508TIP3   OH279938   3.990   2.453   3.390  0.2441  0.0841 -0.2909
19508TIP3    H179939   3.919   2.473   3.329  0.7694 -0.8979 -1.2444
19508TIP3    H279940   3.954   2.386   3.448 -0.0997  0.6855  0.2054
19509TIP3   OH279941   0.150   5.069   4.887 -0.2019 -0.0764 -0.0154
19509TIP3    H179942   0.104   4.985   4.893  0.7249 -0.6628 -0.9112
19509TIP3    H279943   0.081   5.134   4.897 -0.8179 -0.9098  1.7821
19510TIP3   OH279944   0.581   4.029  17.200 -0.0309  0.0731 -0.2035
19510TIP3    H179945   0.604   4.121  17.215 -0.6696  0.4454 -1.4460
19510TIP3    H279946   0.553   3.997  17.286  0.4159  0.9590  0.2875
19511TIP3   OH279947   1.565   4.503  14.617 -0.3830  0.5828  0.3342
19511TIP3    H179948   1.566   4.408  14.629 -0.7252  0.3196 -1.3755
19511TIP3    H279949   1.656   4.525  14.596 -0.8180  0.1047 -2.3974
19512TIP3   OH279950   1.060   2.219  10.855  0.1247 -0.2630  0.3023
19512TIP3    H179951   1.108   2.297  10.883 -1.2427  0.9455 -0.5968
19512TIP3    H279952   0.986   2.252  10.805  0.0012 -2.1795 -0.9058
19513TIP3   OH279953   0.201   5.908   3.637  0.1762 -0.1304  0.1500
19513TIP3    H179954   0.296   5.898   3.628  0.4525  1.7091  0.6374
19513TIP3    H279955   0.170   5.821   3.663  1.5028 -1.1672 -1.5200
19514TIP3   OH279956   6.401   6.455  12.189 -0.7596  0.2374 -0.1507
19514TIP3    H179957   6.376   6.508  12.113 -1.8042 -1.0337 -0.7514
19514TIP3    H279958   6.340   6.482  12.258 -0.2426  0.9258  0.0477
19515TIP3   OH279959   2.914   2.932  15.815  0.5852  0.1204 -0.0190
19515TIP3    H179960   2.863   2.963  15.741 -0.2652 -1.5949 -0.2117
19515TIP3    H279961   2.989   2.886  15.775 -0.0013 -1.0173  0.1320
19516TIP3   OH279962   0.714   4.120   4.177 -0.8327  0.0543  0.0737
19516TIP3    H179963   0.651   4.189   4.196 -0.8059  0.3187 -0.7681
19516TIP3    H279964   0.750   4.096   4.262 -1.9797 -0.0196  0.5586
19517TIP3   OH279965   2.815   0.021  16.723  0.2428 -0.3245 -0.7039
19517TIP3    H179966   2.793   0.107  16.760  1.8840 -0.2234  0.1366
19517TIP3    H279967   2.834  -0.033  16.799 -0.3766 -1.3423 -1.2501
19518TIP3   OH279968   2.818   2.311  15.593 -0.4764  0.0027 -0.5839
19518TIP3    H179969   2.914   2.302  15.590 -0.3884  0.8832 -0.8482
19518TIP3    H279970   2.792   2.311  15.501 -0.6545  0.3919 -0.5364
19519TIP3   OH279971   2.323   5.109  14.641 -0.3728  0.2579 -0.6429
19519TIP3    H179972   2.313   5.057  14.720 -0.1610  1.0307 -0.0992
19519TIP3    H279973   2.374   5.054  14.582  1.1961  0.4534  0.4912
19520TIP3   OH279974   5.780   0.488   5.695  0.3442 -0.2844 -0.1352
19520TIP3    H179975   5.839   0.535   5.636 -0.0213  0.4697  0.0809
19520TIP3    H279976   5.708   0.458   5.639 -2.1545  3.9144  0.3919
19521TIP3   OH279977   6.158   4.352  15.477  0.2422  0.7454 -0.9497
19521TIP3    H179978   6.066   4.373  15.459  0.6268  1.6483 -1.9458
19521TIP3    H279979   6.188   4.305  15.399  0.1927 -1.0864  0.0721
19522TIP3   OH279980   4.797   5.720   6.105  0.6124  0.0405  0.0544
19522TIP3    H179981   4.817   5.633   6.070  1.0222 -0.0236  0.4379
19522TIP3    H279982   4.860   5.732   6.176  0.0357  0.3210  0.5219
19523TIP3   OH279983   5.803   5.478  16.445  0.1690  0.5551 -0.2277
19523TIP3    H179984   5.806   5.400  16.390 -0.5579  0.3694 -0.0120
19523TIP3    H279985   5.711   5.487  16.470  0.2510  1.4539 -0.2064
19524TIP3   OH279986   4.857   3.934  10.541  0.7810 -0.0490  0.1729
19524TIP3    H179987   4.945   3.930  10.506  0.3147  0.1852 -1.0515
19524TIP3    H279988   4.817   3.851  10.516  0.1909  0.4483 -0.5614
19525TIP3   OH279989   6.624   0.436   3.007 -0.7212  0.4681  0.3956
19525TIP3    H179990   6.623   0.375   3.081 -1.3282 -0.5063 -0.3997
19525TIP3    H279991   6.582   0.515   3.042  0.6982  0.7281  1.6393
19526TIP3   OH279992   4.746   1.421   1.978 -0.1137  0.4765  0.7025
19526TIP3    H179993   4.797   1.490   1.936 -0.5978 -0.2398 -1.1472
19526TIP3    H279994   4.746   1.349   1.916 -1.1719 -0.5123  1.7900
19527TIP3   OH279995   2.849   2.327   5.638  0.0031  0.0842  0.5148
19527TIP3    H179996   2.884   2.412   5.613 -0.9085 -0.1287 -1.7827
19527TIP3    H279997   2.845   2.278   5.555 -2.9690 -0.8581  1.1012
19528TIP3   OH279998   3.553   3.426  14.515 -0.0127 -0.1374 -0.2288
19528TIP3    H179999   3.531   3.376  14.593 -1.5955 -1.4882 -1.4437
19528TIP3    H280000   3.605   3.500  14.547 -0.3207 -0.8179  2.0232
19529TIP3   OH280001   2.973   3.693  13.509 -0.1173 -0.1361  0.1648
19529TIP3    H180002   2.934   3.744  13.581 -0.2333  0.0329 -0.0176
19529TIP3    H280003   3.065   3.720  13.509  0.3388 -1.5579  1.4943
19530TIP3   OH280004   1.859   5.959  16.810  0.1222  0.3125  0.4518
19530TIP3    H180005   1.785   5.922  16.762  1.5289 -0.8264 -0.9591
19530TIP3    H280006   1.854   6.053  16.793  0.0286  0.0455 -1.2058
19531TIP3   OH280007   0.862   5.795  15.116  0.1283  0.2831  0.0543
19531TIP3    H180008   0.806   5.842  15.055  1.0845 -0.5608 -1.5286
19531TIP3    H280009   0.949   5.830  15.102  0.6556 -1.0887 -0.3018
19532TIP3   OH280010   3.414   6.772   6.444 -0.6476  0.5981 -0.4853
19532TIP3    H180011   3.320   6.793   6.441 -0.7679 -0.0162 -3.1495
19532TIP3    H280012   3.457   6.857   6.450 -1.3217  0.8570  1.7892
19533TIP3   OH280013   3.335   6.287   1.271 -0.4635 -0.5863  0.0033
19533TIP3    H180014   3.332   6.272   1.177  1.2972  1.9285 -0.5695
19533TIP3    H280015   3.401   6.226   1.304  0.1094 -0.3681 -0.7043
19534TIP3   OH280016   5.540   5.117  17.106  0.0858 -0.1210 -0.1289
19534TIP3    H180017   5.606   5.069  17.155  1.0131 -1.0092 -2.1555
19534TIP3    H280018   5.589   5.167  17.040 -1.2065 -0.7976 -1.6851
19535TIP3   OH280019   5.841   2.132  13.561  1.0625 -0.0807  0.2809
19535TIP3    H180020   5.834   2.226  13.577 -0.7989 -0.0250 -0.5569
19535TIP3    H280021   5.926   2.121  13.518  1.4708  1.1629  0.7433
19536TIP3   OH280022   1.526   5.742   0.270  0.2760  0.3127 -0.1167
19536TIP3    H180023   1.550   5.690   0.347  0.9183 -0.5270 -0.8677
19536TIP3    H280024   1.432   5.728   0.260  0.0244  1.0626  0.9645
19537TIP3   OH280025   5.718   0.150   3.708 -0.4535  0.2132 -0.0352
19537TIP3    H180026   5.727   0.237   3.668 -1.6070 -0.9843 -3.1940
19537TIP3    H280027   5.805   0.112   3.702 -0.2253  0.6890  0.2127
19538TIP3   OH280028   2.398   0.900  16.579  0.4274  0.0640 -0.6391
19538TIP3    H180029   2.483   0.898  16.536  0.6569 -0.6345 -0.1584
19538TIP3    H280030   2.365   0.988  16.561 -0.1741 -0.6440 -3.5627
19539TIP3   OH280031   2.050   5.956   0.080  0.4838  0.1706 -0.1501
19539TIP3    H180032   2.009   6.037   0.049 -0.8459  0.2569  1.6853
19539TIP3    H280033   2.088   5.918   0.001 -0.2081  1.8028 -1.3439
19540TIP3   OH280034   4.778   3.041  16.437 -0.3768 -0.2174  0.5691
19540TIP3    H180035   4.775   2.995  16.353 -2.1106  1.7450 -0.5332
19540TIP3    H280036   4.743   2.977  16.499  0.8174 -1.6692 -0.1711
19541TIP3   OH280037   0.595   3.667   6.033  0.6243 -0.0713 -0.2788
19541TIP3    H180038   0.599   3.621   6.117  1.0689 -1.3717 -0.9948
19541TIP3    H280039   0.541   3.744   6.051  0.9193 -0.1881  1.2586
19542TIP3   OH280040   1.666   3.943  14.064  0.0392  0.2211  0.7338
19542TIP3    H180041   1.659   3.920  14.156  1.0684  2.2303  1.3693
19542TIP3    H280042   1.730   4.014  14.061 -1.4278  1.6060 -1.2545
19543TIP3   OH280043   6.358   3.920   5.513 -0.4227 -0.3800  0.2948
19543TIP3    H180044   6.285   3.979   5.527 -0.6681 -0.2164 -1.4710
19543TIP3    H280045   6.318   3.834   5.500 -0.2125 -0.5252  0.5895
19544TIP3   OH280046   3.486   5.196   0.317  0.1377 -0.0350 -0.4692
19544TIP3    H180047   3.477   5.230   0.228 -2.3064  0.1392 -0.2205
19544TIP3    H280048   3.552   5.127   0.310  0.1370  0.1142 -2.3775
19545TIP3   OH280049   1.636   2.673  13.850 -0.2393 -0.2293  0.1200
19545TIP3    H180050   1.554   2.684  13.898 -0.0092 -0.0406  0.4764
19545TIP3    H280051   1.644   2.578  13.839 -1.8242 -0.1779 -2.2640
19546TIP3   OH280052   0.339   0.451   5.861  0.0691 -0.7861 -0.4449
19546TIP3    H180053   0.297   0.366   5.867 -0.5601 -0.4995 -0.6909
19546TIP3    H280054   0.281   0.503   5.806 -0.9140  0.6073  1.7751
19547TIP3   OH280055   2.586   2.304  11.435 -0.1313 -0.0051  0.0485
19547TIP3    H180056   2.589   2.334  11.526  1.8213 -2.5028  0.9400
19547TIP3    H280057   2.536   2.223  11.438 -0.5093  0.1487 -1.2472
19548TIP3   OH280058   4.420   4.883   1.210 -0.3527 -0.1883  0.5947
19548TIP3    H180059   4.394   4.960   1.260  1.9785  1.2756 -0.2937
19548TIP3    H280060   4.510   4.867   1.236  0.0552 -0.9795 -1.1876
19549TIP3   OH280061   5.210   4.119  11.366  0.0064  0.1808 -0.0061
19549TIP3    H180062   5.116   4.105  11.358 -0.1880 -0.2381  2.3046
19549TIP3    H280063   5.241   4.045  11.419  1.2924  1.3229  0.9114
19550TIP3   OH280064   4.098   1.793   3.702  0.1511  0.4296 -0.0836
19550TIP3    H180065   4.192   1.782   3.718 -0.0171 -0.4500  0.3887
19550TIP3    H280066   4.060   1.708   3.724 -0.7007  0.6213 -0.7392
19551TIP3   OH280067   1.131   2.609   3.466  0.0352 -0.3141 -0.4231
19551TIP3    H180068   1.106   2.517   3.456 -0.0554 -0.4438  0.8571
19551TIP3    H280069   1.226   2.609   3.469  0.0137 -0.5057  0.6518
19552TIP3   OH280070   0.385   1.558  14.363  0.0047  0.2783 -0.0950
19552TIP3    H180071   0.298   1.596  14.370  0.4247  1.4210 -0.8497
19552TIP3    H280072   0.428   1.582  14.445 -0.7055 -1.2067  0.7586
19553TIP3   OH280073   4.003   1.797   0.679  0.0320  0.2986 -0.0865
19553TIP3    H180074   4.066   1.869   0.681  0.1396  0.1930  0.6333
19553TIP3    H280075   3.929   1.831   0.629 -1.0113  1.8627  2.3400
19554TIP3   OH280076   2.223   4.637  11.981 -0.1409 -0.0699 -0.2664
19554TIP3    H180077   2.277   4.609  12.056 -0.1675  2.7426  0.9170
19554TIP3    H280078   2.153   4.571  11.977 -0.9188  0.3474  3.1030
19555TIP3   OH280079   2.591   1.720  16.195  0.5180  0.3145  0.6534
19555TIP3    H180080   2.679   1.735  16.229  0.3919 -0.0886  1.1706
19555TIP3    H280081   2.533   1.766  16.256  0.3698  0.5568  0.3294
19556TIP3   OH280082   0.561   6.587   0.818  0.0486 -0.7023  0.4373
19556TIP3    H180083   0.525   6.624   0.737 -1.5181  0.7953  1.7422
19556TIP3    H280084   0.647   6.627   0.828 -0.9255  1.3816  0.9373
19557TIP3   OH280085   5.817   0.035  16.901  0.1651  0.3199 -0.5810
19557TIP3    H180086   5.742   0.052  16.958  0.8027  0.5420  0.2202
19557TIP3    H280087   5.857  -0.045  16.937  1.4483  1.2924  0.2579
19558TIP3   OH280088   1.914   0.031   5.186  0.1330  0.2592 -0.3452
19558TIP3    H180089   1.821   0.017   5.172  0.0553  0.5536 -0.1248
19558TIP3    H280090   1.945  -0.047   5.231 -0.4117  1.0150  1.4302
19559TIP3   OH280091   0.202   3.851   2.352  0.2311  0.0639  0.3049
19559TIP3    H180092   0.291   3.886   2.350  0.6948 -1.0896  0.0261
19559TIP3    H280093   0.192   3.815   2.440  0.8961 -1.8811 -0.3687
19560TIP3   OH280094   5.083   6.591  16.120 -0.3586 -0.0426 -0.3855
19560TIP3    H180095   5.075   6.667  16.179  1.9437  0.3834 -0.5099
19560TIP3    H280096   5.042   6.620  16.039  0.0743  0.9303 -0.2774
19561TIP3   OH280097   2.751   0.117   0.350  0.1944  0.2791 -1.1520
19561TIP3    H180098   2.704   0.048   0.304  1.6956 -1.5601 -0.0493
19561TIP3    H280099   2.728   0.197   0.302 -3.2851 -0.5866 -1.2036
19562TIP3   OH280100   1.895   6.494  13.058 -0.0115 -0.7256  0.3562
19562TIP3    H180101   1.822   6.504  12.997  1.3909  0.6459 -1.2094
19562TIP3    H280102   1.857   6.509  13.145 -1.2458  2.1132 -0.5778
19563TIP3   OH280103   0.694   6.575   4.187  0.3453 -0.0380 -0.0605
19563TIP3    H180104   0.759   6.507   4.171  0.5587  0.2353 -0.3696
19563TIP3    H280105   0.653   6.589   4.101 -2.0903 -2.1807  0.6117
19564TIP3   OH280106   3.354   1.363   0.913 -0.0303  0.2251  0.2883
19564TIP3    H180107   3.297   1.390   0.841 -0.7681  0.4984  0.9591
19564TIP3    H280108   3.311   1.285   0.948  1.7222 -1.5035 -1.2085
19565TIP3   OH280109   3.400   5.340  15.961  0.0014 -0.5505 -0.3122
19565TIP3    H180110   3.326   5.384  15.920 -0.6654 -0.7846  0.6150
19565TIP3    H280111   3.477   5.374  15.915 -0.4509  1.8201  0.5458
19566TIP3   OH280112   5.993   5.863  14.070  0.2502 -0.0067  0.2700
19566TIP3    H180113   5.913   5.826  14.108 -1.3869  1.4778 -1.5276
19566TIP3    H280114   6.038   5.903  14.145 -1.6423  0.7169  1.1034
19567TIP3   OH280115   5.923   4.941  15.601 -0.6070 -0.1774 -0.3005
19567TIP3    H180116   5.960   4.871  15.655  0.8570  0.1522 -0.8098
19567TIP3    H280117   5.918   5.016  15.660 -1.2091 -0.4292 -0.0253
19568TIP3   OH280118   6.333   3.337  12.918  0.2427  0.4502  0.3838
19568TIP3    H180119   6.248   3.326  12.875  0.1902 -0.2330  0.6500
19568TIP3    H280120   6.384   3.261  12.890 -0.7273 -1.6227  3.6864
19569TIP3   OH280121   1.590   1.303   0.268 -0.0818 -0.2926  0.2223
19569TIP3    H180122   1.547   1.380   0.305  1.2755  1.2429 -1.1987
19569TIP3    H280123   1.523   1.260   0.215 -1.1086 -0.6500  1.7801
19570TIP3   OH280124   6.037   4.116   2.053 -0.1157 -0.0366  0.1720
19570TIP3    H180125   6.065   4.175   2.122  0.8810 -2.4056  1.9606
19570TIP3    H280126   6.104   4.124   1.985 -0.8179  1.9186 -0.3463
19571TIP3   OH280127   5.780   6.480  14.865  0.1940  0.2549 -0.4863
19571TIP3    H180128   5.757   6.389  14.886  0.5262  0.2226 -0.2628
19571TIP3    H280129   5.852   6.501  14.924 -0.2901  0.8688 -0.0954
19572TIP3   OH280130   6.101   1.980   1.040 -0.1078 -0.1755  0.2460
19572TIP3    H180131   6.083   1.899   0.992 -2.2234 -0.5670  1.5791
19572TIP3    H280132   6.017   2.004   1.079  0.4452  2.7332 -0.1551
19573TIP3   OH280133   3.795   3.603  14.595  0.1982 -0.1885  0.0369
19573TIP3    H180134   3.761   3.691  14.611 -0.7770 -0.9339  2.6073
19573TIP3    H280135   3.861   3.614  14.526 -1.0180  2.2572 -0.8404
19574TIP3   OH280136   2.910   0.094  12.726  0.1668  0.0986  0.2178
19574TIP3    H180137   2.836   0.094  12.666 -0.2865 -1.6638  0.7171
19574TIP3    H280138   2.927   0.187  12.743 -0.9923  0.5721 -1.0186
19575TIP3   OH280139   4.146   1.566   3.500 -0.1828  0.4499  0.0908
19575TIP3    H180140   4.209   1.557   3.571  0.7321 -0.8238 -0.8444
19575TIP3    H280141   4.076   1.505   3.522  0.2781 -0.2154 -0.2870
19576TIP3   OH280142   1.075   1.424  15.221  0.3082 -0.1989  0.2916
19576TIP3    H180143   1.100   1.493  15.283  2.0306 -1.1631  0.7152
19576TIP3    H280144   1.051   1.350  15.276 -1.7009  0.0502 -0.1609
19577TIP3   OH280145   1.780   6.573  12.099 -0.3097  0.7822 -0.3218
19577TIP3    H180146   1.728   6.536  12.171  0.7747  0.0092  0.0803
19577TIP3    H280147   1.714   6.601  12.035 -1.2228 -1.2610 -0.3634
19578TIP3   OH280148   3.723   6.334  11.675  0.4928  0.1855  0.6726
19578TIP3    H180149   3.725   6.270  11.746 -0.5130  1.7396  2.1782
19578TIP3    H280150   3.724   6.419  11.719 -0.3788  1.2087 -1.1646
19579TIP3   OH280151   2.721   2.604  12.848  0.0813  0.4067  0.4680
19579TIP3    H180152   2.753   2.580  12.935  2.1862  0.3884 -0.2549
19579TIP3    H280153   2.730   2.699  12.844  0.7778  0.3300  0.0061
19580TIP3   OH280154   4.922   0.652   5.389 -0.1729 -0.1824  0.1350
19580TIP3    H180155   5.015   0.663   5.372  0.1812 -0.9642  1.4565
19580TIP3    H280156   4.879   0.692   5.313  1.1792  2.4411  0.6287
19581TIP3   OH280157   1.303   0.264  12.547  0.1974 -0.5321 -0.2091
19581TIP3    H180158   1.329   0.321  12.475  0.1103  0.0755  0.2305
19581TIP3    H280159   1.249   0.320  12.603  1.1246 -0.6880  0.8757
19582TIP3   OH280160   3.832   3.559   4.334  0.1887 -0.4025  0.1276
19582TIP3    H180161   3.859   3.568   4.242 -0.7180  1.2232 -0.0061
19582TIP3    H280162   3.912   3.578   4.384  0.2284  0.6429 -0.3121
19583TIP3   OH280163   0.348   3.850  14.181 -0.6889  0.6001  0.3134
19583TIP3    H180164   0.306   3.836  14.096 -0.3993  1.1280  0.0784
19583TIP3    H280165   0.277   3.866  14.242 -0.8640  0.7565  0.0647
19584TIP3   OH280166   6.666   4.593  15.512 -0.4779 -0.2261 -0.1946
19584TIP3    H180167   6.715   4.580  15.593 -2.4759 -0.4747  1.0462
19584TIP3    H280168   6.670   4.509  15.467 -2.9164 -1.5576  1.7945
19585TIP3   OH280169   5.794   0.386  12.840 -0.3551  0.0482  0.2181
19585TIP3    H180170   5.890   0.385  12.843 -0.3218  2.1155  1.0073
19585TIP3    H280171   5.773   0.393  12.747  0.2893  0.4994  0.0997
19586TIP3   OH280172   5.351   5.663   4.769 -0.1794 -0.6169 -0.2305
19586TIP3    H180173   5.399   5.744   4.756 -0.0972 -0.4823  0.8345
19586TIP3    H280174   5.260   5.691   4.782 -0.1151 -0.6780  0.3581
19587TIP3   OH280175   1.361   0.959  15.532  0.4495 -0.5777  0.3320
19587TIP3    H180176   1.392   0.932  15.445  1.5100 -0.6066  0.6972
19587TIP3    H280177   1.403   1.044  15.546  0.8322 -0.8892  1.0958
19588TIP3   OH280178   2.318   6.566  15.183  0.0153  0.4845  0.3168
19588TIP3    H180179   2.264   6.635  15.221 -3.1619 -0.9239 -1.2583
19588TIP3    H280180   2.325   6.589  15.090  3.2222  1.1592  0.5892
19589TIP3   OH280181   3.327   1.410  14.892  0.5870  0.6281  0.1855
19589TIP3    H180182   3.246   1.373  14.927  0.2392  0.0843 -1.1382
19589TIP3    H280183   3.300   1.486  14.841  0.9815  0.8636  0.3204
19590TIP3   OH280184   2.682   2.640  17.017 -0.3894 -0.2426  0.4916
19590TIP3    H180185   2.751   2.695  17.054 -1.7646 -0.1897  3.2303
19590TIP3    H280186   2.676   2.565  17.076 -2.7306 -0.1542  0.4768
19591TIP3   OH280187   6.027   3.144   4.122 -0.1354 -0.1511 -0.1592
19591TIP3    H180188   6.019   3.049   4.128  0.4336 -0.2286 -0.4807
19591TIP3    H280189   6.121   3.160   4.137 -0.6736  0.6336  3.2403
19592TIP3   OH280190   0.642   2.024  12.087  0.2162  0.5757  0.3518
19592TIP3    H180191   0.626   1.969  12.164  1.2399  0.7374  0.6963
19592TIP3    H280192   0.556   2.035  12.047  0.0585 -1.9835 -0.2092
19593TIP3   OH280193   3.686   4.454  12.357 -0.3871 -0.2780  0.1805
19593TIP3    H180194   3.727   4.417  12.435  1.2903  1.9532  0.4537
19593TIP3    H280195   3.751   4.443  12.287  0.9126  3.2453  0.6043
19594TIP3   OH280196   4.545   6.115   2.756  0.6834  0.0557  0.6661
19594TIP3    H180197   4.640   6.109   2.771  0.9617 -0.2230 -1.0100
19594TIP3    H280198   4.525   6.038   2.703  0.1649  1.8670 -1.9276
19595TIP3   OH280199   3.254   6.233   1.728 -0.4088  0.1304 -0.3693
19595TIP3    H180200   3.335   6.228   1.780 -1.1793  0.2292  0.8880
19595TIP3    H280201   3.258   6.157   1.670 -0.2141 -0.8601  0.9042
19596TIP3   OH280202   6.553   4.409   3.833 -0.2612  0.3715 -0.2509
19596TIP3    H180203   6.483   4.422   3.769  0.8640  3.0218 -1.0655
19596TIP3    H280204   6.517   4.441   3.915 -0.9207 -0.9465  0.0156
19597TIP3   OH280205   1.763   1.812  16.683  0.0831  0.1682  0.2843
19597TIP3    H180206   1.782   1.720  16.702 -0.5079 -0.3036 -1.2482
19597TIP3    H280207   1.791   1.859  16.761  1.7373 -1.1566  0.5442
19598TIP3   OH280208   0.377   4.566  12.881  0.0498  0.2021  0.1290
19598TIP3    H180209   0.413   4.609  12.803 -0.3056  0.2316 -0.0261
19598TIP3    H280210   0.296   4.615  12.899  0.8695  1.1303  1.3971
19599TIP3   OH280211   3.397   5.240  10.768  0.3543  0.5302  0.2559
19599TIP3    H180212   3.332   5.280  10.825  1.0565  2.4774 -0.2242
19599TIP3    H280213   3.394   5.292  10.687  0.1279 -1.4992 -1.1035
19600TIP3   OH280214   2.981   2.650   5.282 -0.2686  0.0814  0.2048
19600TIP3    H180215   3.022   2.564   5.271  2.7031  1.2867  1.0569
19600TIP3    H280216   2.914   2.635   5.349  1.0935 -1.3452  1.3391
19601TIP3   OH280217   0.335   5.989  12.215 -0.0986  0.3927 -0.4462
19601TIP3    H180218   0.255   5.949  12.180  1.2855 -2.4324 -0.6703
19601TIP3    H280219   0.352   5.942  12.296  1.5376  0.6856 -0.5948
19602TIP3   OH280220   5.835   0.685   0.506  0.6703  0.3294 -0.2989
19602TIP3    H180221   5.772   0.742   0.461  2.1354  0.6718 -2.0397
19602TIP3    H280222   5.831   0.713   0.597 -0.4049  1.5662 -0.6872
19603TIP3   OH280223   2.187   0.034   1.106 -0.0545  0.3625  0.0313
19603TIP3    H180224   2.175   0.053   1.013  0.0366  2.2506  0.3647
19603TIP3    H280225   2.182  -0.061   1.112  2.1211  0.0245 -2.2158
19604TIP3   OH280226   1.339   5.977  11.333  0.8316  0.3244 -0.0329
19604TIP3    H180227   1.347   6.060  11.379  1.8941  1.0173 -1.4107
19604TIP3    H280228   1.415   5.973  11.276  1.7434 -2.3773  1.1677
19605TIP3   OH280229   1.267   1.489   1.082 -0.3389 -0.1232 -0.0270
19605TIP3    H180230   1.228   1.402   1.095  0.0938  0.0057  2.9770
19605TIP3    H280231   1.361   1.474   1.085 -0.2604  0.4490  0.8861
19606TIP3   OH280232   2.739   4.978  13.986 -0.0357 -0.2971 -1.0422
19606TIP3    H180233   2.752   5.019  13.901 -1.4600  0.4059 -0.9529
19606TIP3    H280234   2.818   4.926  14.000  0.2483 -0.3825 -2.7607
19607TIP3   OH280235   1.401   3.996  15.442 -0.0766 -0.1759 -0.1193
19607TIP3    H180236   1.468   3.986  15.509 -0.2954  1.0981  0.3214
19607TIP3    H280237   1.323   4.026  15.490 -0.9387 -1.4947 -0.6389
19608TIP3   OH280238   2.521   0.179   0.561  0.2448 -0.0478 -0.4203
19608TIP3    H180239   2.610   0.156   0.532  0.2246  1.3250 -1.7278
19608TIP3    H280240   2.471   0.187   0.479 -0.6748  0.7533  0.1991
19609TIP3   OH280241   3.803   6.591   4.824 -0.0132  0.2198  0.0493
19609TIP3    H180242   3.707   6.586   4.823 -0.0377  0.1568 -2.3557
19609TIP3    H280243   3.822   6.682   4.846 -0.4997 -0.2863  2.9830
19610TIP3   OH280244   1.099   5.955   0.525  0.2240 -0.1248 -0.3126
19610TIP3    H180245   1.125   5.965   0.434  0.6725  0.4310 -0.1223
19610TIP3    H280246   1.105   5.860   0.541  0.6181 -0.1700 -0.7147
19611TIP3   OH280247   4.633   2.451   4.311  0.4226 -0.1272 -0.8527
19611TIP3    H180248   4.688   2.529   4.307 -0.4491  0.6174  0.7043
19611TIP3    H280249   4.611   2.442   4.404 -2.1828 -0.3024 -1.4133
19612TIP3   OH280250   1.740   3.697   5.002 -0.6115  0.7891  0.8977
19612TIP3    H180251   1.776   3.785   4.996 -0.2992  0.6475  0.5670
19612TIP3    H280252   1.689   3.686   4.922 -0.9512  0.7987  1.1125
19613TIP3   OH280253   5.145   2.432   1.009 -0.2250  0.0179 -0.4137
19613TIP3    H180254   5.113   2.342   1.019 -3.0273  0.8610 -1.0495
19613TIP3    H280255   5.226   2.422   0.958  0.0379 -2.1699  0.2943
19614TIP3   OH280256   3.419   3.273  14.734  0.0539 -0.1450 -0.0899
19614TIP3    H180257   3.349   3.231  14.783 -0.7665 -0.2718 -1.3396
19614TIP3    H280258   3.493   3.213  14.741 -0.6763 -1.1327 -0.6889
19615TIP3   OH280259   2.474   4.899  15.402 -0.7526 -0.9982  0.1026
19615TIP3    H180260   2.462   4.805  15.415  0.1419 -1.0849  0.3191
19615TIP3    H280261   2.531   4.927  15.473  0.7467 -0.6932 -1.1756
19616TIP3   OH280262   4.564   1.571   1.190 -0.1735 -0.5071 -0.3799
19616TIP3    H180263   4.566   1.499   1.253  0.6094  0.7553  1.1054
19616TIP3    H280264   4.483   1.618   1.210 -0.7148 -0.9714 -1.3872
19617TIP3   OH280265   4.880   6.023   0.332  0.0979  0.2346  0.3049
19617TIP3    H180266   4.880   5.941   0.380 -1.6828  0.3971  0.6354
19617TIP3    H280267   4.963   6.064   0.355  1.6589 -2.0205 -0.9021
19618TIP3   OH280268   5.281   2.396   6.013  0.1588 -0.1383  0.2206
19618TIP3    H180269   5.216   2.454   6.053  0.3403  0.1188  0.1469
19618TIP3    H280270   5.308   2.338   6.085 -0.8879 -0.9223  0.0041
19619TIP3   OH280271   3.372   3.509   6.482 -0.1557  0.1788  0.1045
19619TIP3    H180272   3.296   3.552   6.522 -0.3128 -1.0196  1.1590
19619TIP3    H280273   3.337   3.426   6.449  0.2335  0.6232 -1.4814
19620TIP3   OH280274   4.742   1.791  16.021 -0.4177  0.5863 -0.0399
19620TIP3    H180275   4.834   1.766  16.032 -0.8720 -1.0892  0.2250
19620TIP3    H280276   4.709   1.730  15.955 -1.2920  1.3188 -0.2889
19621TIP3   OH280277   3.981   3.363   1.752 -0.1380 -0.9722  0.0808
19621TIP3    H180278   3.977   3.425   1.826 -0.0035 -0.4459 -0.3513
19621TIP3    H280279   4.067   3.323   1.759 -0.1407 -0.9552  0.2312
19622TIP3   OH280280   1.157   2.408   4.491  0.4748 -0.3388  0.3229
19622TIP3    H180281   1.193   2.323   4.518 -0.4261 -0.9362 -0.3316
19622TIP3    H280282   1.166   2.409   4.396  0.6921  0.4144  0.3392
19623TIP3   OH280283   6.336   6.216   1.320  0.2233  0.2603  0.3259
19623TIP3    H180284   6.284   6.253   1.392  1.0298  1.3336  0.3831
19623TIP3    H280285   6.273   6.165   1.269 -0.2199 -1.1713  2.2028
19624TIP3   OH280286   4.306   4.029  14.550  0.1641 -0.0639  0.0481
19624TIP3    H180287   4.296   4.096  14.482  1.8497 -0.3951 -0.5689
19624TIP3    H280288   4.231   3.970  14.537 -0.1771  0.5283 -0.7607
19625TIP3   OH280289   5.466   1.459  13.911  0.1131  0.7591  0.2545
19625TIP3    H180290   5.395   1.489  13.854  1.2376  1.0808 -1.0404
19625TIP3    H280291   5.424   1.396  13.969 -1.1443  0.5629 -0.7916
19626TIP3   OH280292   5.624   1.462  14.798 -0.3331  0.1210 -0.4040
19626TIP3    H180293   5.681   1.489  14.726 -0.8883  0.8702 -0.5779
19626TIP3    H280294   5.535   1.475  14.764 -0.5967  0.7201  0.4981
19627TIP3   OH280295   3.534   2.590   0.589 -0.4002 -0.2168 -0.7833
19627TIP3    H180296   3.498   2.598   0.501 -1.1775 -0.7580 -0.5290
19627TIP3    H280297   3.460   2.610   0.647  0.5225  1.8954 -0.2316
19628TIP3   OH280298   5.792   3.129   1.021 -0.3438  0.3409 -0.1937
19628TIP3    H180299   5.818   3.037   1.029  0.0047  0.3902 -0.7083
19628TIP3    H280300   5.852   3.165   0.956 -0.4647  0.9415  0.0236
19629TIP3   OH280301   0.252   5.889   0.908  0.6622 -0.0429 -0.3185
19629TIP3    H180302   0.282   5.942   0.833  0.1588 -1.2608 -1.4215
19629TIP3    H280303   0.324   5.830   0.926  0.8913  0.4386  0.3530
19630TIP3   OH280304   4.364   5.591  12.202  0.5168  0.2786 -0.3605
19630TIP3    H180305   4.386   5.577  12.294 -2.4825 -2.0597  0.1335
19630TIP3    H280306   4.408   5.519  12.155 -2.3891 -1.9729  0.1123
19631TIP3   OH280307   1.919   3.654  14.674 -0.1609  0.3707 -0.1382
19631TIP3    H180308   1.842   3.597  14.666  1.1187 -1.2857 -1.5689
19631TIP3    H280309   1.928   3.694  14.587  2.2798 -1.8884 -1.0659
19632TIP3   OH280310   3.191   4.002   4.168 -0.0766 -0.6929  0.7382
19632TIP3    H180311   3.134   3.996   4.091  0.0802 -0.9164  0.6388
19632TIP3    H280312   3.131   3.993   4.242  0.0669 -3.5307  0.6358
19633TIP3   OH280313   0.078   4.549   2.808 -0.0732  0.3477 -0.4230
19633TIP3    H180314   0.053   4.506   2.727 -0.4019 -0.5837  0.1561
19633TIP3    H280315   0.030   4.502   2.876 -1.1847  2.2069  0.1625
19634TIP3   OH280316   6.543   5.709   4.586  0.0207 -0.0443  0.0229
19634TIP3    H180317   6.545   5.804   4.576 -0.6943 -0.0236  0.0476
19634TIP3    H280318   6.552   5.696   4.681 -3.2256  0.1551  0.4597
19635TIP3   OH280319   4.002   2.425   0.006 -0.5434  0.4737 -0.0943
19635TIP3    H180320   4.040   2.350  -0.039  0.6378  1.7459 -1.3411
19635TIP3    H280321   4.061   2.442   0.079 -0.7691  0.2377  0.1437
19636TIP3   OH280322   2.214   4.520  11.478 -0.5684  0.2013 -0.1579
19636TIP3    H180323   2.284   4.520  11.412 -0.7507 -0.2493 -0.3498
19636TIP3    H280324   2.232   4.599  11.530 -0.6936  0.8225 -1.0303
19637TIP3   OH280325   2.469   1.676  14.285 -0.0686 -0.6222 -0.1432
19637TIP3    H180326   2.516   1.745  14.333  0.8901 -3.0965  2.7440
19637TIP3    H280327   2.538   1.625  14.242 -0.2522 -2.5197  1.6782
19638TIP3   OH280328   0.611   0.085  15.900 -0.0540 -0.0566  0.5233
19638TIP3    H180329   0.678   0.149  15.876 -1.8044  3.1566  3.3892
19638TIP3    H280330   0.656   0.023  15.957  1.4552 -0.8968 -1.4753
19639TIP3   OH280331   0.528   0.271   5.642 -0.3063  0.0385 -0.5448
19639TIP3    H180332   0.553   0.208   5.709  1.3717 -0.8733 -1.9245
19639TIP3    H280333   0.611   0.302   5.606 -1.0794  2.6950 -0.2893
19640TIP3   OH280334   3.291   1.933  11.437  0.2379  0.3859 -0.0970
19640TIP3    H180335   3.229   1.985  11.385 -0.5766  1.4544  1.8426
19640TIP3    H280336   3.263   1.842  11.423 -2.5743  0.8696  1.5602
19641TIP3   OH280337   5.684   6.213  13.536  0.0556  0.8116  1.0299
19641TIP3    H180338   5.725   6.246  13.455 -0.4659  2.7653  1.5083
19641TIP3    H280339   5.600   6.178  13.507  1.2623 -1.6977  0.2821
19642TIP3   OH280340   1.103   2.772  12.247 -0.2894  0.2293 -0.3645
19642TIP3    H180341   1.133   2.815  12.167 -0.9013  0.8730 -0.2597
19642TIP3    H280342   1.033   2.828  12.280  1.1023  0.9300  1.5734
19643TIP3   OH280343   0.274   0.916  12.395  0.8961 -0.1490  0.0137
19643TIP3    H180344   0.368   0.900  12.406  1.2609  1.7321 -0.0328
19643TIP3    H280345   0.267   1.011  12.392 -1.1020 -0.2493  0.6569
19644TIP3   OH280346   0.326   5.073  16.459  0.3344  0.1042  0.5008
19644TIP3    H180347   0.318   4.985  16.420 -3.5074 -0.0167  1.1528
19644TIP3    H280348   0.372   5.058  16.542  0.4246 -1.1671  0.2457
19645TIP3   OH280349   3.217   1.570   1.530 -0.1461 -0.2475  0.3611
19645TIP3    H180350   3.212   1.486   1.485  3.1504 -0.9526  1.0540
19645TIP3    H280351   3.248   1.549   1.618 -0.1216  1.6476  0.8631
19646TIP3   OH280352   5.341   4.210  15.771 -0.6873  0.3469  0.0122
19646TIP3    H180353   5.342   4.237  15.862 -2.1311 -1.4157  0.6180
19646TIP3    H280354   5.357   4.116  15.773 -2.3710 -0.0292 -1.3713
19647TIP3   OH280355   4.639   3.842   3.065  0.2590 -0.0827 -0.0292
19647TIP3    H180356   4.553   3.827   3.104  0.1035 -0.7068 -0.6109
19647TIP3    H280357   4.624   3.846   2.971  0.8674 -0.2022 -0.1403
19648TIP3   OH280358   6.602   5.788  11.473  0.3354  0.7262 -0.6173
19648TIP3    H180359   6.618   5.883  11.468 -1.2556  0.9909 -1.8674
19648TIP3    H280360   6.565   5.775  11.560  0.0282  1.3802 -0.6373
19649TIP3   OH280361   5.339   3.671   3.642  0.0134 -0.3843  0.4631
19649TIP3    H180362   5.353   3.590   3.593 -0.4508 -0.8603  1.0971
19649TIP3    H280363   5.254   3.658   3.684  0.9594 -0.5383  2.4333
19650TIP3   OH280364   6.096   4.199  15.243 -0.5499 -0.3444 -0.2004
19650TIP3    H180365   6.048   4.125  15.279 -0.4808 -0.1137  0.3929
19650TIP3    H280366   6.044   4.228  15.168 -1.5441  0.1128  0.6215
19651TIP3   OH280367   0.552   4.797  12.983  0.2934  0.3206  0.3439
19651TIP3    H180368   0.459   4.774  12.990  0.6466 -0.8425  1.8856
19651TIP3    H280369   0.583   4.750  12.906 -0.4111  0.8154 -0.2564
19652TIP3   OH280370   2.779   1.965   3.991  0.0326  0.0274  0.1594
19652TIP3    H180371   2.702   1.992   4.041  0.7006  1.3825  0.5163
19652TIP3    H280372   2.744   1.928   3.910 -1.0648 -1.8395  1.3932
19653TIP3   OH280373   0.554   5.435   0.013 -0.1821 -0.1840 -0.2946
19653TIP3    H180374   0.604   5.368   0.059 -3.2951 -2.6258 -0.1527
19653TIP3    H280375   0.517   5.489   0.083  1.5162  1.1828 -0.3780
19654TIP3   OH280376   4.428   4.908   4.753  0.3305 -0.0445  0.2399
19654TIP3    H180377   4.336   4.933   4.742  0.5792  0.3763 -1.0090
19654TIP3    H280378   4.427   4.848   4.828 -1.4937 -2.6993 -1.6968
19655TIP3   OH280379   3.863   6.485   2.621  0.0270  0.3163  0.1040
19655TIP3    H180380   3.822   6.467   2.537 -1.4982 -0.0858  0.8981
19655TIP3    H280381   3.941   6.430   2.622  0.1144  0.3975 -1.0675
19656TIP3   OH280382   2.056   2.331   3.879 -0.3822  0.2348 -0.3077
19656TIP3    H180383   1.996   2.391   3.921 -0.3796 -0.7603  1.1877
19656TIP3    H280384   2.011   2.303   3.799 -0.7323  1.5238 -0.5865
19657TIP3   OH280385   1.005   5.507   6.579  0.0241  0.3695 -0.2183
19657TIP3    H180386   0.940   5.564   6.538 -1.3930 -0.9212  0.1159
19657TIP3    H280387   1.085   5.522   6.529 -0.8158  1.1969 -1.3898
19658TIP3   OH280388   4.282   4.067   4.886 -0.5041 -0.4498 -0.4626
19658TIP3    H180389   4.214   4.133   4.902  1.4073  2.1233 -2.1750
19658TIP3    H280390   4.241   4.006   4.824 -2.3862 -1.0748  1.2961
19659TIP3   OH280391   2.906   0.486   5.967 -0.1356  0.2318  0.0792
19659TIP3    H180392   2.875   0.434   6.040 -2.1762 -1.0401 -1.5844
19659TIP3    H280393   2.953   0.424   5.911  0.1930  0.8711 -0.3726
19660TIP3   OH280394   2.834   0.926   4.321 -0.1290  0.2488 -0.0528
19660TIP3    H180395   2.854   0.965   4.406  1.0804 -2.7724  1.1768
19660TIP3    H280396   2.741   0.901   4.327  0.4938 -2.0033  1.3838
19661TIP3   OH280397   0.926   4.643   4.677 -0.2475  0.2167 -0.6611
19661TIP3    H180398   0.971   4.574   4.629  2.6135  2.1840 -1.0858
19661TIP3    H280399   0.881   4.695   4.610 -0.4928  0.0676 -0.6122
19662TIP3   OH280400   1.292   6.326  13.677 -0.2872  0.0373  0.5506
19662TIP3    H180401   1.351   6.259  13.644 -2.2261 -1.0084 -1.0042
19662TIP3    H280402   1.322   6.342  13.767  1.6235 -1.2309  0.1997
19663TIP3   OH280403   1.246   0.910  15.123 -0.0093 -0.3756 -0.6418
19663TIP3    H180404   1.242   0.995  15.166  1.9178 -0.0850 -0.9399
19663TIP3    H280405   1.168   0.864  15.153  0.2600  0.5251  1.6449
19664TIP3   OH280406   6.306   2.962   0.032 -0.8266  0.1655 -0.0261
19664TIP3    H180407   6.374   2.897   0.050 -1.0868 -0.4043 -1.0482
19664TIP3    H280408   6.353   3.038  -0.001 -0.3933  1.0100  2.3220
19665TIP3   OH280409   5.045   1.139   1.598  0.3907 -0.1911 -0.0520
19665TIP3    H180410   5.091   1.075   1.543  0.6878  0.6306 -0.7795
19665TIP3    H280411   4.965   1.160   1.549 -0.9301 -1.7466  1.2816
19666TIP3   OH280412   4.332   1.644   3.696 -0.2753  0.3270  0.4088
19666TIP3    H180413   4.383   1.591   3.756  0.5993 -0.8462 -1.2831
19666TIP3    H280414   4.396   1.699   3.651 -0.4836 -0.7110 -1.2820
19667TIP3   OH280415   1.091   3.733  14.681  0.2569  0.3184  0.2629
19667TIP3    H180416   1.021   3.723  14.617  0.7918  0.1710 -0.3044
19667TIP3    H280417   1.046   3.737  14.766 -0.3456 -1.2319  0.0445
19668TIP3   OH280418   5.176   6.371   5.860  0.6950  0.1662 -0.5069
19668TIP3    H180419   5.089   6.406   5.839  1.4191  0.7155 -2.8600
19668TIP3    H280420   5.186   6.388   5.954 -0.9694  1.8240 -0.5593
19669TIP3   OH280421   1.327   1.604  14.890 -0.1599 -0.0987 -0.9361
19669TIP3    H180422   1.413   1.587  14.929 -0.8292  1.0626  1.1952
19669TIP3    H280423   1.278   1.524  14.905 -1.0189  0.8875  2.6024
19670TIP3   OH280424   4.014   6.227   0.856  0.1241  0.0330 -0.1809
19670TIP3    H180425   4.051   6.204   0.771 -1.9559  2.3684 -1.8963
19670TIP3    H280426   3.968   6.148   0.885 -0.1704 -0.4481 -1.8732
19671TIP3   OH280427   4.814   2.755   2.163 -0.1505  0.2772  0.1689
19671TIP3    H180428   4.762   2.807   2.224 -0.9911 -1.8830  1.4056
19671TIP3    H280429   4.862   2.693   2.218  0.9617 -0.1473 -1.2084
19672TIP3   OH280430   6.654   3.226  16.446 -0.5162 -0.0372  0.2571
19672TIP3    H180431   6.586   3.158  16.451 -0.0656 -0.6902 -1.7850
19672TIP3    H280432   6.704   3.204  16.368  1.4051  1.0529  1.1165
19673TIP3   OH280433   2.623   2.550   2.450 -0.3557  0.1676 -0.6316
19673TIP3    H180434   2.659   2.535   2.538 -1.1561  2.6901  0.2050
19673TIP3    H280435   2.556   2.482   2.440 -0.5036  0.0517  0.8714
19674TIP3   OH280436   5.273   5.786   2.183  0.2283 -0.5142  0.0368
19674TIP3    H180437   5.210   5.848   2.147 -0.2057 -1.2737 -0.5460
19674TIP3    H280438   5.220   5.712   2.213  0.8857 -1.7168 -1.5652
19675TIP3   OH280439   0.628   2.574   1.700 -0.1184  0.2440  0.1128
19675TIP3    H180440   0.586   2.523   1.769 -0.2272  0.1135 -0.0488
19675TIP3    H280441   0.609   2.665   1.722  0.7514  0.2592  0.8429
19676TIP3   OH280442   5.856   3.872  16.629 -0.0461 -0.2115 -0.5239
19676TIP3    H180443   5.911   3.863  16.707 -1.7327  1.4675  0.9643
19676TIP3    H280444   5.806   3.791  16.625 -1.5818  0.5718  1.5458
19677TIP3   OH280445   0.884   5.802  11.271  0.5590  0.2725 -0.3399
19677TIP3    H180446   0.948   5.803  11.341  0.9336 -2.0049 -0.5669
19677TIP3    H280447   0.930   5.764  11.196 -0.7436 -0.5321 -0.7843
19678TIP3   OH280448   4.396   0.341   3.607  0.6938  0.3322  0.4800
19678TIP3    H180449   4.434   0.330   3.694 -1.3915  0.3511  1.4474
19678TIP3    H280450   4.405   0.255   3.566  0.7289  0.0282  1.1101
19679TIP3   OH280451   1.276   0.315   2.138 -0.1142 -0.3492  0.1624
19679TIP3    H180452   1.281   0.291   2.231  2.0541  0.2500  0.2689
19679TIP3    H280453   1.196   0.368   2.132  0.3973  0.7606  2.0181
19680TIP3   OH280454   2.883   6.581   3.932  0.0810 -0.1226 -0.0687
19680TIP3    H180455   2.842   6.663   3.960  0.4805 -0.1748  0.7069
19680TIP3    H280456   2.820   6.513   3.958 -0.2332 -0.0711 -0.6773
19681TIP3   OH280457   1.563   1.110   5.324  0.2843 -0.3765 -0.4668
19681TIP3    H180458   1.553   1.075   5.236  0.3915 -1.8034  0.0567
19681TIP3    H280459   1.475   1.105   5.362 -0.2176  2.1674 -1.1250
19682TIP3   OH280460   6.604   3.022  11.222  0.5735 -0.4048 -0.2827
19682TIP3    H180461   6.658   3.062  11.155  0.2521 -0.4353 -0.5645
19682TIP3    H280462   6.595   3.090  11.290 -2.0870  1.0233 -1.8955
19683TIP3   OH280463   1.587   6.738   1.138  0.3465  0.1609 -0.0408
19683TIP3    H180464   1.522   6.694   1.191  1.0743 -1.0593 -0.1121
19683TIP3    H280465   1.649   6.669   1.114  1.6697  1.2735  0.0346
19684TIP3   OH280466   4.778   4.844  13.808  0.0706 -0.3859  0.5103
19684TIP3    H180467   4.705   4.800  13.764 -0.1601  0.5729 -0.0928
19684TIP3    H280468   4.854   4.825  13.753  0.1212 -0.6737  0.6761
19685TIP3   OH280469   5.725   3.509  15.451 -0.3262  0.2148  0.0149
19685TIP3    H180470   5.660   3.508  15.521 -2.1957 -2.4794 -1.5549
19685TIP3    H280471   5.687   3.565  15.383 -0.2203 -0.0177 -0.2410
19686TIP3   OH280472   5.643   5.244   0.681  0.0081  0.3194  0.6538
19686TIP3    H180473   5.555   5.264   0.714 -2.1578 -4.5697 -1.2150
19686TIP3    H280474   5.680   5.185   0.747  0.7678  0.2261  0.1541
19687TIP3   OH280475   2.223   2.225   4.057  0.1800  0.0894 -0.3151
19687TIP3    H180476   2.233   2.293   4.124  3.4878 -0.3090 -0.2200
19687TIP3    H280477   2.162   2.262   3.994 -0.9059  1.6165  1.5014
19688TIP3   OH280478   3.457   4.191  16.890  0.1989 -0.4043  0.1480
19688TIP3    H180479   3.416   4.277  16.885 -0.2486 -0.6944 -2.3923
19688TIP3    H280480   3.392   4.136  16.933  1.3877  0.8872  4.0491
19689TIP3   OH280481   3.840   4.730  16.184  0.1567 -0.5460  0.3599
19689TIP3    H180482   3.748   4.750  16.203 -0.1018 -1.9089  0.6960
19689TIP3    H280483   3.889   4.798  16.230 -0.6852  0.6925 -0.5015
19690TIP3   OH280484   5.109   1.739  14.817 -0.2500  0.0756  0.3124
19690TIP3    H180485   5.047   1.800  14.777  0.4521  0.0675 -0.8152
19690TIP3    H280486   5.195   1.777  14.800  0.0766  0.3324  2.2635
19691TIP3   OH280487   6.769   1.130  16.749  0.4901  0.4310 -0.1724
19691TIP3    H180488   6.692   1.074  16.756  1.9258 -1.4905  2.1491
19691TIP3    H280489   6.745   1.197  16.685 -3.0447 -0.0843  0.4127
19692TIP3   OH280490   4.567   6.750   7.058  0.2329 -0.2420 -0.1223
19692TIP3    H180491   4.480   6.711   7.063 -0.2265  0.8366  0.5157
19692TIP3    H280492   4.622   6.691   7.109 -0.0054 -1.1873 -0.9168
19693TIP3   OH280493   0.575   4.622  14.355 -0.1881 -0.4295  0.2400
19693TIP3    H180494   0.668   4.610  14.371  0.1584  1.3793 -0.2728
19693TIP3    H280495   0.546   4.684  14.422 -0.1167  2.1360 -1.9698
19694TIP3   OH280496   5.869   4.318  11.907  0.1144 -0.1253 -0.3391
19694TIP3    H180497   5.959   4.331  11.876 -0.1765  0.8099 -0.8065
19694TIP3    H280498   5.837   4.406  11.927 -0.6821 -0.4612 -0.1093
19695TIP3   OH280499   5.313   2.015  16.528 -0.2262 -0.0462 -0.6417
19695TIP3    H180500   5.295   1.944  16.590 -1.2736  0.5634 -0.2328
19695TIP3    H280501   5.289   1.979  16.443 -0.3716 -0.3243 -0.4855
19696TIP3   OH280502   5.994   2.793   5.311 -0.6342  0.0034 -0.5537
19696TIP3    H180503   6.057   2.859   5.283 -1.6108 -0.1953 -3.6300
19696TIP3    H280504   5.977   2.812   5.403  1.1637  2.2861 -0.6187
19697TIP3   OH280505   5.924   3.038  14.336  0.2993  0.3249 -0.0721
19697TIP3    H180506   5.934   3.054  14.430  1.3865  1.3782 -0.3414
19697TIP3    H280507   5.897   2.947  14.330 -2.1946  0.8650  1.3730
19698TIP3   OH280508   3.125   3.034  13.184 -0.2142 -0.4412  0.0426
19698TIP3    H180509   3.100   2.974  13.254  0.8126  0.8185  1.5505
19698TIP3    H280510   3.057   3.101  13.185 -0.1170 -0.3410 -0.0742
19699TIP3   OH280511   2.606   4.926   0.765 -0.4587  0.2617 -0.3226
19699TIP3    H180512   2.667   4.975   0.710 -0.6805  1.8064  0.7410
19699TIP3    H280513   2.648   4.840   0.777  0.5964  0.6377 -1.1368
19700TIP3   OH280514   5.962   0.130  11.864 -0.2864  0.4448 -0.2704
19700TIP3    H180515   5.904   0.141  11.789  0.5950 -1.4024 -1.2759
19700TIP3    H280516   6.051   0.131  11.827  0.1395 -1.0925  0.6343
19701TIP3   OH280517   1.653   3.392   2.943 -0.4010  0.0785 -0.1393
19701TIP3    H180518   1.700   3.339   3.009 -0.1451 -1.2801 -1.3505
19701TIP3    H280519   1.594   3.330   2.901 -2.8684  1.6117  0.8765
19702TIP3   OH280520   2.161   0.041  11.986  0.2517  0.3971  0.5450
19702TIP3    H180521   2.253   0.028  12.006  0.4486  2.1910  0.9263
19702TIP3    H280522   2.148  -0.006  11.903  0.7273 -2.4206  1.9236
19703TIP3   OH280523   3.680   0.111  10.993 -0.0923 -0.0740 -0.1143
19703TIP3    H180524   3.767   0.115  11.031  0.1741 -1.3285 -0.5471
19703TIP3    H280525   3.688   0.050  10.919 -0.9426  1.1176 -1.2432
19704TIP3   OH280526   3.678   5.938  16.151  0.5336  0.5446 -0.0304
19704TIP3    H180527   3.585   5.931  16.130 -0.0612 -0.6473  2.6137
19704TIP3    H280528   3.710   6.010  16.096 -1.7686  0.5680 -1.4638
19705TIP3   OH280529   6.268   4.779  11.335  0.0662  0.4878  0.1539
19705TIP3    H180530   6.269   4.690  11.301  0.3381  0.4450  0.2732
19705TIP3    H280531   6.339   4.781  11.400 -1.1217  0.2475  1.5259
19706TIP3   OH280532   6.338   4.175   1.578  0.4008 -0.3488  0.1510
19706TIP3    H180533   6.402   4.104   1.576  0.4456 -0.3023 -0.8465
19706TIP3    H280534   6.391   4.255   1.584  0.4867 -0.2910 -0.9964
19707TIP3   OH280535   4.054   1.837  11.912 -0.0301  0.7452 -0.2154
19707TIP3    H180536   4.043   1.821  11.818  1.2466  0.9508 -0.4130
19707TIP3    H280537   3.976   1.886  11.937 -0.6078  0.2978 -1.0700
19708TIP3   OH280538   4.861   6.158  15.374 -0.0642  0.1477 -0.6539
19708TIP3    H180539   4.877   6.064  15.384  0.8335  0.5042  2.0313
19708TIP3    H280540   4.928   6.188  15.312  2.6303 -0.3146  1.8558
19709TIP3   OH280541   0.883   5.818   5.626  0.0602  0.0480  0.3428
19709TIP3    H180542   0.920   5.731   5.618  0.1637  0.0132  1.0947
19709TIP3    H280543   0.811   5.820   5.563  1.9509  0.4790 -1.9272
19710TIP3   OH280544   4.778   5.984  13.606 -0.0461 -0.1902 -0.5873
19710TIP3    H180545   4.866   5.949  13.603  0.2580  0.5838 -0.9547
19710TIP3    H280546   4.728   5.930  13.545  0.5197  0.2800 -1.4875
19711TIP3   OH280547   3.251   4.938   4.073  0.0947 -0.4940 -0.4063
19711TIP3    H180548   3.215   5.012   4.120  1.7282  1.3183 -1.8404
19711TIP3    H280549   3.314   4.899   4.133 -0.2802 -0.2994  0.1146
19712TIP3   OH280550   0.668   0.768  12.167  0.4585 -0.5259 -0.2899
19712TIP3    H180551   0.605   0.767  12.096  0.3754  1.1415 -0.2849
19712TIP3    H280552   0.752   0.786  12.125  0.2198  1.7682  0.0973
19713TIP3   OH280553   1.862   0.847   1.754 -0.3242 -0.3809 -0.5258
19713TIP3    H180554   1.937   0.790   1.735 -0.0882  0.1149 -1.1205
19713TIP3    H280555   1.876   0.925   1.700 -0.8938  0.0380 -0.0903
19714TIP3   OH280556   0.592   0.898  15.448 -0.1073 -0.5652 -0.6552
19714TIP3    H180557   0.606   0.912  15.542 -2.6049  0.4580 -0.3721
19714TIP3    H280558   0.587   0.803  15.439 -1.1449 -0.6504  0.4906
19715TIP3   OH280559   3.307   6.527   4.356  0.1272  0.6785  0.3835
19715TIP3    H180560   3.379   6.493   4.302 -0.4270  0.7497 -0.4186
19715TIP3    H280561   3.263   6.448   4.388 -0.7428  0.6087 -0.9151
19716TIP3   OH280562   3.970   4.245  16.935  0.5560  0.3510  0.7286
19716TIP3    H180563   3.987   4.155  16.964  0.7730  0.0054 -0.4236
19716TIP3    H280564   4.051   4.271  16.892 -0.3839  0.1448 -1.2644
19717TIP3   OH280565   4.280   2.540   3.102  0.7319 -0.0039 -0.1345
19717TIP3    H180566   4.326   2.515   3.021  1.3789 -1.1986  0.5696
19717TIP3    H280567   4.251   2.456   3.139 -1.9220  0.6907 -0.4664
19718TIP3   OH280568   4.039   5.324  13.830 -0.3525  0.3346 -0.1137
19718TIP3    H180569   4.003   5.363  13.750  1.7021 -0.3039 -1.4313
19718TIP3    H280570   4.053   5.398  13.888 -2.3726  0.7537 -0.0698
19719TIP3   OH280571   2.627   2.248   2.470 -0.1553  0.1380  0.2298
19719TIP3    H180572   2.537   2.215   2.462 -0.1960  0.6194 -1.7863
19719TIP3    H280573   2.670   2.219   2.390  1.1142  1.0611  0.5520
19720TIP3   OH280574   2.219   4.673  15.980 -0.7655 -0.3735 -0.1435
19720TIP3    H180575   2.296   4.722  16.008 -1.0510  0.0733 -0.1356
19720TIP3    H280576   2.179   4.642  16.062 -1.7492  1.1597 -0.0175
19721TIP3   OH280577   3.946   3.752  12.587 -0.2628  0.0491 -0.1029
19721TIP3    H180578   3.956   3.673  12.533  1.5417 -0.2432  0.5807
19721TIP3    H280579   3.913   3.719  12.671  2.5976 -0.3873  0.9667
19722TIP3   OH280580   3.600   4.407   2.778  0.0049  0.1003 -0.5473
19722TIP3    H180581   3.619   4.322   2.738  0.9467 -0.8580  1.7406
19722TIP3    H280582   3.519   4.394   2.826 -0.4694  0.8790 -1.1000
19723TIP3   OH280583   3.269   0.084   1.811 -0.5068 -0.2270 -0.6382
19723TIP3    H180584   3.321   0.162   1.796  1.7735 -1.3647  0.6512
19723TIP3    H280585   3.276   0.069   1.906 -1.5088 -1.5527 -0.7439
19724TIP3   OH280586   6.259   3.529  13.443  0.0185  0.0394  0.2570
19724TIP3    H180587   6.299   3.540  13.356 -0.3365  0.1440  0.1047
19724TIP3    H280588   6.245   3.619  13.474 -1.3007  0.0197 -0.2537
19725TIP3   OH280589   5.880   6.221  11.195  0.9792  0.0413 -0.4991
19725TIP3    H180590   5.799   6.175  11.175  0.1925  0.4015  1.5928
19725TIP3    H280591   5.911   6.254  11.110 -0.6595 -0.7172 -1.4328
19726TIP3   OH280592   3.636   6.276  15.848  0.6767 -0.4452  0.2518
19726TIP3    H180593   3.691   6.224  15.906  1.2021  0.6425  0.7729
19726TIP3    H280594   3.635   6.229  15.765  1.3702 -1.1088  0.6126
19727TIP3   OH280595   4.686   3.726  14.732 -0.4973 -0.1059 -0.1025
19727TIP3    H180596   4.719   3.684  14.652  1.5731  0.1206  0.5667
19727TIP3    H280597   4.673   3.818  14.707  0.8688  0.1324 -0.0377
19728TIP3   OH280598   0.496   2.547  14.288  0.3722  0.6682  0.1591
19728TIP3    H180599   0.545   2.465  14.276 -0.6031  0.0663  0.1756
19728TIP3    H280600   0.525   2.579  14.373 -0.1853 -0.3610  0.7646
19729TIP3   OH280601   5.994   3.271   2.489 -0.1230  0.3462 -0.1090
19729TIP3    H180602   6.002   3.224   2.571 -1.4384 -0.3409 -0.3422
19729TIP3    H280603   5.982   3.363   2.514  0.3746  0.2698  0.4177
19730TIP3   OH280604   4.815   4.699  16.816  0.0916  0.2662 -0.6439
19730TIP3    H180605   4.900   4.715  16.774 -0.0778 -0.5275 -1.3280
19730TIP3    H280606   4.770   4.784  16.813  0.7800  0.6425 -0.4587
19731TIP3   OH280607   6.026   6.051   0.410 -0.2135  0.6113 -0.2336
19731TIP3    H180608   6.088   6.093   0.470 -0.2956 -1.4945  1.4583
19731TIP3    H280609   6.039   5.957   0.424 -1.7715  0.0677 -1.9871
19732TIP3   OH280610   1.798   2.166   1.036 -0.8202  0.1055 -0.5019
19732TIP3    H180611   1.884   2.207   1.043 -0.4347 -0.9098  1.0300
19732TIP3    H280612   1.777   2.172   0.942 -0.4045  2.9361 -0.4962
19733TIP3   OH280613   5.310   4.307   0.659  0.0714 -0.0712 -0.2096
19733TIP3    H180614   5.367   4.241   0.698 -0.4401 -1.9514 -2.3854
19733TIP3    H280615   5.313   4.381   0.719  3.8293 -0.5340  0.3885
19734TIP3   OH280616   6.016   0.955  11.175  0.3982  0.3935 -0.2576
19734TIP3    H180617   5.965   0.975  11.096 -1.4513  0.7473  0.9643
19734TIP3    H280618   6.011   1.035  11.227  1.0488 -0.0553  0.5038
19735TIP3   OH280619   0.994   2.639  10.359  0.5827 -0.0703  0.0695
19735TIP3    H180620   0.936   2.567  10.382  1.4747 -0.7585  0.2353
19735TIP3    H280621   0.971   2.709  10.419  1.3396 -1.0676  1.6012
19736TIP3   OH280622   0.993   3.136  17.121 -0.1583  0.1937  0.3886
19736TIP3    H180623   1.027   3.215  17.162 -1.1604  2.2956 -2.5247
19736TIP3    H280624   1.045   3.127  17.041 -2.6214  0.2318 -1.3089
19737TIP3   OH280625   4.632   5.362   0.926  0.5002  0.6732 -0.0805
19737TIP3    H180626   4.709   5.305   0.929 -0.3383 -0.4954  2.4458
19737TIP3    H280627   4.560   5.305   0.951 -0.4936  2.6411  1.8776
19738TIP3   OH280628   0.023   6.574   3.383 -0.3309  0.6270 -0.3703
19738TIP3    H180629  -0.060   6.534   3.356  1.0280 -2.6312 -0.2047
19738TIP3    H280630   0.020   6.571   3.479  0.5345 -0.8885 -0.3708
19739TIP3   OH280631   3.718   0.139  16.789  0.4100 -0.8528 -0.0618
19739TIP3    H180632   3.811   0.156  16.798  0.3405 -0.8285  0.7085
19739TIP3    H280633   3.684   0.215  16.742  0.5518 -0.1523  0.9329
19740TIP3   OH280634   6.700   3.558  14.891 -0.0500  0.0790  0.1500
19740TIP3    H180635   6.766   3.557  14.821 -0.3210 -0.4872 -0.1006
19740TIP3    H280636   6.748   3.588  14.968  0.2627  0.6727 -0.2682
19741TIP3   OH280637   5.337   4.256   0.334 -0.1642 -0.5226  0.1162
19741TIP3    H180638   5.419   4.208   0.334 -0.4642 -1.0667  1.1757
19741TIP3    H280639   5.323   4.279   0.426 -2.8573 -3.3571  0.5669
19742TIP3   OH280640   3.207   6.136  13.370  0.5821  0.0481  0.0111
19742TIP3    H180641   3.123   6.161  13.332  1.4006  1.2109 -1.1169
19742TIP3    H280642   3.226   6.050  13.332  0.2846  0.1539 -0.3762
19743TIP3   OH280643   0.271   2.498   0.588  0.0852  0.0154 -0.8113
19743TIP3    H180644   0.334   2.505   0.660 -0.1765 -0.9033 -0.4826
19743TIP3    H280645   0.206   2.435   0.618 -1.6171  1.7182 -0.7207
19744TIP3   OH280646   1.469   0.469  13.661 -0.3441  0.5669  0.2379
19744TIP3    H180647   1.519   0.416  13.724 -2.4316 -0.6988  0.9528
19744TIP3    H280648   1.473   0.419  13.579 -0.5950  0.3292  0.3645
19745TIP3   OH280649   0.823   2.544   0.447  0.2759  0.5503  0.0107
19745TIP3    H180650   0.742   2.492   0.452 -0.0391  1.1656  2.4904
19745TIP3    H280651   0.868   2.527   0.529  1.5510  2.0180 -0.3346
19746TIP3   OH280652   1.812   2.331   4.664  0.5056 -0.0376  0.4393
19746TIP3    H180653   1.779   2.322   4.753 -0.3999 -0.1328  0.1022
19746TIP3    H280654   1.890   2.276   4.662  1.0940  0.7360  1.4464
19747TIP3   OH280655   3.359   6.669  16.016  0.0233 -0.1485 -0.0404
19747TIP3    H180656   3.354   6.742  15.955  2.4634 -0.7261 -1.0367
19747TIP3    H280657   3.440   6.684  16.065  1.0638 -2.5571 -0.8585
19748TIP3   OH280658   2.927   4.398   6.523  0.1046  0.3554 -0.0142
19748TIP3    H180659   2.954   4.377   6.612  2.5740  1.3093 -0.4747
19748TIP3    H280660   2.895   4.315   6.487  3.2770 -1.1764  0.3615
19749TIP3   OH280661   5.880   1.974  12.773 -0.6625  0.2803  0.4166
19749TIP3    H180662   5.800   1.939  12.812  1.8395 -1.3302  4.8647
19749TIP3    H280663   5.898   2.053  12.824  1.9478 -1.0129  1.7106
19750TIP3   OH280664   3.682   4.645   4.990 -0.1464  0.8308 -0.2937
19750TIP3    H180665   3.705   4.552   4.982 -0.3528  0.7318  0.2386
19750TIP3    H280666   3.638   4.652   5.074 -1.1757  1.2092 -0.8500
19751TIP3   OH280667   2.842   2.263  13.519  0.2389  0.2508  0.1326
19751TIP3    H180668   2.893   2.290  13.443 -0.2993  0.9197 -0.0027
19751TIP3    H280669   2.780   2.199  13.485 -0.1168  0.6786 -0.0280
19752TIP3   OH280670   4.186   5.495   3.313  0.0048 -0.6194  0.1605
19752TIP3    H180671   4.263   5.518   3.260  1.4246  0.1236  2.4018
19752TIP3    H280672   4.186   5.559   3.383 -1.1030 -2.2502  1.7229
19753TIP3   OH280673   0.240   4.992  16.113 -0.3260  0.3235  0.1137
19753TIP3    H180674   0.244   4.917  16.174  1.2854  1.0768  0.9974
19753TIP3    H280675   0.331   5.017  16.100 -0.8256  2.0171 -0.3322
19754TIP3   OH280676   6.117   6.239  12.335 -0.3043 -0.3335  0.4971
19754TIP3    H180677   6.076   6.213  12.252 -1.9805 -0.4070  1.3036
19754TIP3    H280678   6.059   6.308  12.369  0.9686  0.4727  1.0838
19755TIP3   OH280679   5.721   3.790   3.389  0.1568  0.2900 -0.2333
19755TIP3    H180680   5.691   3.772   3.299  0.1444  0.2390 -0.2193
19755TIP3    H280681   5.651   3.842   3.428 -0.9066 -1.5747  0.4732
19756TIP3   OH280682   1.988   0.115  13.959 -0.0949 -0.1606  0.4724
19756TIP3    H180683   2.071   0.082  13.924  0.8179  2.2821  0.1299
19756TIP3    H280684   2.013   0.174  14.030 -1.5893  0.1515  0.7828
19757TIP3   OH280685   2.652   4.894   2.600  0.3837  0.7329  0.0302
19757TIP3    H180686   2.648   4.894   2.695 -0.4692  0.3645  0.0029
19757TIP3    H280687   2.745   4.886   2.580  0.4356 -1.6248  0.8389
19758TIP3   OH280688   3.364   5.151  16.975 -0.2552 -0.7086 -0.5181
19758TIP3    H180689   3.283   5.165  17.025 -0.6197  0.7947 -1.4668
19758TIP3    H280690   3.434   5.174  17.036 -0.6111 -0.6557 -0.1236
19759TIP3   OH280691   6.468   1.866   3.943 -0.4736 -0.6758  0.2823
19759TIP3    H180692   6.492   1.780   3.908 -0.8128  0.1662 -2.2706
19759TIP3    H280693   6.379   1.881   3.910 -0.2582  0.8059  0.3002
19760TIP3   OH280694   2.115   2.452  15.083  0.5464  0.2656  0.1476
19760TIP3    H180695   2.175   2.524  15.101  1.0065 -0.4144  1.4807
19760TIP3    H280696   2.171   2.382  15.048  0.8372 -0.8206  2.5475
19761TIP3   OH280697   3.628   4.195  12.820  0.3014  0.6006  0.2706
19761TIP3    H180698   3.610   4.102  12.811  1.4496  0.5646 -2.5281
19761TIP3    H280699   3.559   4.238  12.770  0.4279  1.1952  0.5894
19762TIP3   OH280700   0.878   1.683  13.819  0.5587 -0.8536 -0.5139
19762TIP3    H180701   0.829   1.637  13.750  0.7212 -4.2332  1.4479
19762TIP3    H280702   0.817   1.750  13.851 -1.2430 -2.2520 -0.8894
19763TIP3   OH280703   4.768   0.253   3.496  0.3590  0.1735 -0.5388
19763TIP3    H180704   4.743   0.273   3.406 -0.4767 -0.3082 -0.4183
19763TIP3    H280705   4.863   0.237   3.491  0.0774 -1.4122 -1.6207
19764TIP3   OH280706   2.617   3.126  16.039  0.3350 -0.1160  0.0018
19764TIP3    H180707   2.543   3.183  16.061  0.1387 -0.3198 -0.1131
19764TIP3    H280708   2.646   3.091  16.124  1.2222  1.0621  0.2017
19765TIP3   OH280709   5.278   6.185  11.746  0.4904 -0.4222 -0.3720
19765TIP3    H180710   5.326   6.143  11.817  1.6416 -0.5334 -1.1907
19765TIP3    H280711   5.325   6.267  11.730  0.0665 -0.2612 -0.8248
19766TIP3   OH280712   1.092   5.308   2.433 -0.6544  0.4086  0.5046
19766TIP3    H180713   1.090   5.213   2.418  0.1354  0.4071  0.3673
19766TIP3    H280714   1.170   5.322   2.487 -0.3069  1.0612 -0.1409
19767TIP3   OH280715   1.687   3.019   1.286  0.3210 -1.0295 -0.1540
19767TIP3    H180716   1.711   3.105   1.320  0.6859 -0.7241 -1.1443
19767TIP3    H280717   1.717   2.957   1.353  0.6358 -0.4239  0.2666
19768TIP3   OH280718   6.768   4.155  14.491  0.3899  0.9630  0.0572
19768TIP3    H180719   6.859   4.129  14.508  0.4897 -0.3270 -2.1692
19768TIP3    H280720   6.768   4.249  14.505  1.9902  0.9516  0.4018
19769TIP3   OH280721   2.442   0.136   1.403 -0.1937 -0.5795 -0.3298
19769TIP3    H180722   2.481   0.109   1.320 -0.2649 -1.2212 -0.1627
19769TIP3    H280723   2.376   0.201   1.378  1.2880  0.8756 -0.5694
19770TIP3   OH280724   5.327   0.858  13.812 -0.8120  1.0564  0.3659
19770TIP3    H180725   5.299   0.886  13.725  0.0313 -1.5208 -0.8391
19770TIP3    H280726   5.247   0.825  13.853 -0.5382 -2.4280 -1.4855
19771TIP3   OH280727   4.975   5.971  14.294  0.2966 -0.9975  0.2674
19771TIP3    H180728   5.050   6.010  14.249 -1.2796 -0.7346 -2.3252
19771TIP3    H280729   4.942   6.040  14.351  0.8279 -0.4042 -0.1289
19772TIP3   OH280730   5.585   4.366   0.544 -0.0995  0.0950  0.1915
19772TIP3    H180731   5.655   4.430   0.552  1.4936 -1.6510  0.7376
19772TIP3    H280732   5.548   4.360   0.633 -0.3946  0.3636  0.0933
19773TIP3   OH280733   0.961   3.699   5.533 -0.0234 -0.0055 -0.6456
19773TIP3    H180734   1.021   3.716   5.605  0.6943 -2.7095 -0.5193
19773TIP3    H280735   0.933   3.786   5.504  0.8198  1.1972  1.8906
19774TIP3   OH280736   1.436   5.981  15.575  0.4671 -0.1951 -0.1731
19774TIP3    H180737   1.428   6.069  15.539  1.0883 -0.0421  0.0590
19774TIP3    H280738   1.355   5.968  15.625  0.5829  0.4281  0.1864
19775TIP3   OH280739   0.803   3.956   3.332  0.1667  0.7560 -0.1438
19775TIP3    H180740   0.745   3.894   3.376 -2.5354  2.4287 -1.1114
19775TIP3    H280741   0.784   4.040   3.374  2.1694  1.3382 -0.3078
19776TIP3   OH280742   3.788   5.500   5.102  0.0339 -0.1706  0.2680
19776TIP3    H180743   3.832   5.454   5.172 -1.8219 -2.6573 -0.0663
19776TIP3    H280744   3.726   5.558   5.146 -1.7192 -2.3288  0.8046
19777TIP3   OH280745   1.043   6.020   3.811 -0.8227 -0.4586 -0.5264
19777TIP3    H180746   0.963   5.989   3.852 -0.1227 -1.4016  0.1672
19777TIP3    H280747   1.106   5.948   3.822  0.9170  1.2280  1.2996
19778TIP3   OH280748   2.635   0.667   3.913 -0.0780 -0.1699  0.2447
19778TIP3    H180749   2.682   0.751   3.915 -0.4896  0.3545 -3.8572
19778TIP3    H280750   2.705   0.601   3.912  0.2539  0.0190  2.8844
19779TIP3   OH280751   1.055   5.666   0.603 -0.2396 -0.4774 -0.3375
19779TIP3    H180752   1.144   5.632   0.595 -0.4248 -0.9356 -0.4734
19779TIP3    H280753   1.039   5.669   0.697 -0.4955 -1.5004 -0.3375
19780TIP3   OH280754   2.287   0.464  15.094  0.0336  0.0757 -0.7877
19780TIP3    H180755   2.290   0.520  15.171 -0.5988 -1.6692  0.5812
19780TIP3    H280756   2.211   0.495  15.044 -1.5753 -0.7853  0.9918
19781TIP3   OH280757   6.622   2.219   2.391  0.1365 -0.1909 -0.0031
19781TIP3    H180758   6.600   2.250   2.303  2.4047 -0.0200 -0.5705
19781TIP3    H280759   6.668   2.292   2.431  2.1926 -1.4167  0.0192
19782TIP3   OH280760   6.653   1.036   0.931 -0.2990 -0.1421  0.4728
19782TIP3    H180761   6.569   1.073   0.958 -0.8163 -2.2105  1.9384
19782TIP3    H280762   6.638   1.005   0.842  0.4382  3.8058 -1.2110
19783TIP3   OH280763   5.240   4.144   4.142 -0.2650  0.1582  0.2912
19783TIP3    H180764   5.186   4.065   4.136 -0.4555  0.2799  0.4066
19783TIP3    H280765   5.220   4.193   4.063  0.3149 -0.1976 -0.0878
19784TIP3   OH280766   1.567   6.390   4.897  0.2698  0.3168 -0.8221
19784TIP3    H180767   1.558   6.482   4.871  0.0939  0.8930  1.1094
19784TIP3    H280768   1.656   6.383   4.932 -0.5232  0.4702  1.4175
19785TIP3   OH280769   6.238   4.532  14.357 -0.2309 -0.3693  0.4021
19785TIP3    H180770   6.257   4.622  14.384 -1.9814 -0.0572  0.7488
19785TIP3    H280771   6.292   4.518  14.280  0.3068  0.8740  0.5319
19786TIP3   OH280772   3.519   0.528   5.864  0.2955 -0.4375 -0.3230
19786TIP3    H180773   3.558   0.581   5.934 -0.1774 -0.3345 -0.1304
19786TIP3    H280774   3.425   0.545   5.871  0.2949  0.1720 -1.4708
19787TIP3   OH280775   3.332   5.178  15.220 -0.0492 -0.2863 -0.0433
19787TIP3    H180776   3.256   5.236  15.212 -0.4054 -0.7294  0.1500
19787TIP3    H280777   3.304   5.095  15.182  0.2939 -0.4949  0.1540
19788TIP3   OH280778   5.075   5.740   2.777  0.3694  0.4181  0.2483
19788TIP3    H180779   5.159   5.699   2.799 -0.3347 -1.7847 -0.9358
19788TIP3    H280780   5.009   5.680   2.812 -0.7089  1.0320 -0.6849
19789TIP3   OH280781   3.647   4.862   3.433  0.2003  0.1314  0.4313
19789TIP3    H180782   3.721   4.820   3.389 -0.1849 -0.1226  0.0107
19789TIP3    H280783   3.652   4.831   3.523 -0.0071 -0.7407  0.1530
19790TIP3   OH280784   3.213   1.534   4.161 -0.1288 -0.3858 -0.3742
19790TIP3    H180785   3.227   1.565   4.250  1.9579 -1.7171 -0.1646
19790TIP3    H280786   3.219   1.438   4.168 -0.8628 -0.5607 -1.7971
19791TIP3   OH280787   3.095   3.790  15.078  0.0782 -0.2405 -0.0512
19791TIP3    H180788   3.138   3.835  15.150 -0.6172 -0.7299  0.6854
19791TIP3    H280789   3.164   3.739  15.036  0.3677 -0.4440  0.6565
19792TIP3   OH280790   5.331   5.821   0.553 -0.7147  0.3675 -0.3826
19792TIP3    H180791   5.253   5.862   0.589 -1.7065 -0.9939 -0.8984
19792TIP3    H280792   5.398   5.832   0.621 -2.4387 -1.9044  1.8739
19793TIP3   OH280793   4.106   6.403  15.073  0.0778 -0.5404 -0.6057
19793TIP3    H180794   4.047   6.387  14.999 -0.2427 -2.9727  0.0968
19793TIP3    H280795   4.194   6.388  15.037  0.2071  1.3449 -1.2047
19794TIP3   OH280796   5.125   5.185   0.620  0.0181  0.3649 -0.1493
19794TIP3    H180797   5.193   5.239   0.579 -0.0550  0.9813  0.5336
19794TIP3    H280798   5.165   5.153   0.701 -1.1479  2.3753  1.2838
19795TIP3   OH280799   2.660   4.601  14.907  0.0330 -0.0347 -0.6001
19795TIP3    H180800   2.738   4.576  14.857  0.7356 -0.9118  0.8860
19795TIP3    H280801   2.587   4.569  14.854  0.7678 -1.1218 -0.9998
19796TIP3   OH280802   5.716   6.005   0.404 -0.4111 -0.8057  0.5111
19796TIP3    H180803   5.779   5.984   0.336  0.4502  1.5128  0.4925
19796TIP3    H280804   5.769   6.019   0.483 -0.9448  0.4537  0.6701
19797TIP3   OH280805   0.441   6.100   5.571 -0.1610 -0.4906 -0.4570
19797TIP3    H180806   0.370   6.037   5.560 -1.1302  0.8390 -2.4074
19797TIP3    H280807   0.506   6.054   5.624 -2.4881 -1.7089  1.5254
19798TIP3   OH280808   1.052   6.691   6.149 -0.3861 -0.1519  0.0900
19798TIP3    H180809   1.074   6.598   6.154  0.7333  0.1424  1.3009
19798TIP3    H280810   1.106   6.732   6.217  0.4181  1.6271 -1.5274
19799TIP3   OH280811   6.692   5.763   3.774 -0.2297  0.0931  0.0637
19799TIP3    H180812   6.649   5.844   3.746 -0.2019 -0.3338 -1.3183
19799TIP3    H280813   6.728   5.783   3.860  1.4125  2.1706 -1.0340
19800TIP3   OH280814   3.415   3.700  14.655 -0.0293 -0.3840  0.2602
19800TIP3    H180815   3.431   3.639  14.727  1.1013 -1.0196 -0.4921
19800TIP3    H280816   3.500   3.739  14.636 -0.5690  0.7698  0.1299
19801TIP3   OH280817   6.099   6.006  12.520  0.5966 -0.6470 -0.4267
19801TIP3    H180818   6.038   5.948  12.474  0.4148 -0.2791 -0.6548
19801TIP3    H280819   6.089   6.091  12.477 -0.3867 -0.0025  0.9871
19802TIP3   OH280820   2.872   5.734   0.986  0.2069  0.3062 -0.2293
19802TIP3    H180821   2.964   5.706   0.989  0.4333  1.1244  0.7211
19802TIP3    H280822   2.874   5.828   1.004 -0.6355  0.7941 -2.3895
19803TIP3   OH280823   6.620   5.483   3.838 -0.2865  0.3127 -0.1463
19803TIP3    H180824   6.648   5.572   3.817 -0.2888  0.4283  0.3472
19803TIP3    H280825   6.701   5.433   3.844 -0.0335  0.9168  2.5873
19804TIP3   OH280826   4.218   3.675   4.725  0.2146 -0.0023  0.1631
19804TIP3    H180827   4.297   3.631   4.695 -0.8385 -2.3186  0.5470
19804TIP3    H280828   4.175   3.612   4.782 -1.1717  1.7561  1.1941
19805TIP3   OH280829   3.070   4.380   4.309  0.5045  1.2843 -0.3305
19805TIP3    H180830   3.057   4.292   4.346 -1.7584  0.9968 -1.6346
19805TIP3    H280831   3.012   4.436   4.361  1.0334  1.7789 -0.2747
19806TIP3   OH280832   4.993   1.814   5.268  0.4959  0.1907 -0.1328
19806TIP3    H180833   5.080   1.784   5.295  1.0122  1.9045  0.1984
19806TIP3    H280834   4.963   1.747   5.206  1.4753 -1.1085  0.7363
19807TIP3   OH280835   4.734   0.038   2.294  0.2518 -0.2306 -0.2039
19807TIP3    H180836   4.749  -0.024   2.222 -1.9578 -0.7224 -0.2992
19807TIP3    H280837   4.678  -0.010   2.356  1.3413  0.5020  1.4321
19808TIP3   OH280838   3.399   5.497  15.390  0.0809 -0.1844 -0.2350
19808TIP3    H180839   3.442   5.495  15.305 -1.3831 -1.7649 -0.9929
19808TIP3    H280840   3.396   5.590  15.413  1.5373  0.1665 -1.3291
19809TIP3   OH280841   5.226   3.759   5.532 -0.3998 -0.3607  0.3069
19809TIP3    H180842   5.321   3.764   5.534 -0.4272  1.7999 -0.4163
19809TIP3    H280843   5.198   3.848   5.509 -2.6137 -0.7907  1.0632
19810TIP3   OH280844   2.922   5.324  14.703 -0.3577  0.1024 -0.4436
19810TIP3    H180845   2.988   5.385  14.735  0.0105 -1.0047  1.0081
19810TIP3    H280846   2.962   5.238  14.711 -1.2353 -0.4332 -1.4852
19811TIP3   OH280847   4.272   4.349   1.229  0.5309  0.1776 -0.4126
19811TIP3    H180848   4.286   4.314   1.141  2.7192 -0.3496  0.0925
19811TIP3    H280849   4.312   4.435   1.227 -1.1124  0.9829 -0.4298
19812TIP3   OH280850   2.247   3.806   5.877 -0.1486 -0.0805 -0.4621
19812TIP3    H180851   2.205   3.851   5.804  0.5923 -0.4498 -1.1297
19812TIP3    H280852   2.268   3.719   5.843 -1.1866 -0.8011  0.6815
19813TIP3   OH280853   1.019   3.388  13.103 -0.0121  0.0938  0.2403
19813TIP3    H180854   0.975   3.312  13.065  0.6092 -1.0263  1.6540
19813TIP3    H280855   0.949   3.441  13.140 -0.3648 -0.3136  0.1621
19814TIP3   OH280856   4.551   5.397  16.898 -0.1191 -0.6347 -0.0755
19814TIP3    H180857   4.492   5.410  16.972  2.4202  0.5661  1.8818
19814TIP3    H280858   4.584   5.308  16.909 -2.8429 -2.1266 -2.3418
19815TIP3   OH280859   4.179   4.803   4.252  0.5903 -0.0723  0.1987
19815TIP3    H180860   4.204   4.748   4.178 -0.5032 -0.9560  0.4770
19815TIP3    H280861   4.087   4.825   4.237 -0.2454 -1.8434  2.2188
19816TIP3   OH280862   1.321   3.700  12.418 -0.0206  0.3913 -0.4378
19816TIP3    H180863   1.228   3.717  12.431 -0.4675 -2.5898  1.4423
19816TIP3    H280864   1.328   3.673  12.326 -1.4303 -1.1195 -0.1564
19817TIP3   OH280865   5.552   5.688   5.002 -0.2856  0.4978 -0.1961
19817TIP3    H180866   5.636   5.659   4.968 -0.0862 -0.3388  0.9551
19817TIP3    H280867   5.508   5.728   4.927 -0.0578 -1.6665 -1.5670
19818TIP3   OH280868   1.300   4.611  13.847  0.6487 -0.1622  0.3378
19818TIP3    H180869   1.320   4.699  13.878  2.0652  0.0776 -1.0995
19818TIP3    H280870   1.384   4.578  13.815 -0.2992 -1.1276 -1.3133
19819TIP3   OH280871   6.023   1.553   4.046 -0.6086 -0.9676 -0.9711
19819TIP3    H180872   6.021   1.484   3.979  0.1171 -2.6583  0.6481
19819TIP3    H280873   6.018   1.506   4.129  2.2906  0.7092  0.3069
19820TIP3   OH280874   5.103   3.127  11.626  0.0145 -0.4014 -0.2488
19820TIP3    H180875   5.117   3.091  11.538  2.1000  1.8131 -0.9228
19820TIP3    H280876   5.068   3.215  11.610 -1.2623 -0.6092  1.2196
19821TIP3   OH280877   4.203   0.815   5.677 -0.9721 -0.3726 -0.5067
19821TIP3    H180878   4.207   0.910   5.666  0.0183 -0.0166  2.0954
19821TIP3    H280879   4.239   0.800   5.765  0.6354 -3.3110 -1.5301
19822TIP3   OH280880   2.499   0.630  13.398  0.4178 -0.3870 -0.0705
19822TIP3    H180881   2.565   0.632  13.330  0.7132  1.7433  0.2361
19822TIP3    H280882   2.416   0.621  13.351  0.4817  2.4599 -0.9092
19823TIP3   OH280883   2.970   5.319  15.457  0.6006  0.1668  0.3529
19823TIP3    H180884   3.018   5.288  15.534  1.0324  0.2310  0.1124
19823TIP3    H280885   3.038   5.336  15.392  0.1741 -0.8881 -0.3965
19824TIP3   OH280886   0.259   2.310   2.333  0.6448 -0.0232 -0.6753
19824TIP3    H180887   0.235   2.218   2.342 -1.0278  0.4675  0.3579
19824TIP3    H280888   0.179   2.358   2.356  2.2625  1.7412  1.6810
19825TIP3   OH280889   4.454   4.103  10.836 -0.3573 -0.2688  0.4843
19825TIP3    H180890   4.512   4.037  10.799 -0.2455 -0.8244  1.5945
19825TIP3    H280891   4.445   4.168  10.767  0.6421 -0.7537 -0.1365
19826TIP3   OH280892   5.419   4.456   1.887 -0.4425  0.4435  0.1437
19826TIP3    H180893   5.433   4.392   1.956 -1.0192  0.9338  0.7224
19826TIP3    H280894   5.349   4.419   1.834  0.8736 -0.5566 -0.9714
19827TIP3   OH280895   3.198   4.631   4.316  0.0579 -0.0078 -0.7968
19827TIP3    H180896   3.183   4.538   4.306 -1.6859  0.2461 -0.8783
19827TIP3    H280897   3.111   4.667   4.337  0.4582  1.7477 -1.9745
19828TIP3   OH280898   0.318   3.152  15.628 -0.2019 -0.3381 -0.1918
19828TIP3    H180899   0.287   3.103  15.552 -0.0728 -0.7025 -0.0097
19828TIP3    H280900   0.365   3.227  15.591  1.4188 -1.4523 -0.5088
19829TIP3   OH280901   4.580   2.753   2.710 -0.5058  0.5605 -0.4412
19829TIP3    H180902   4.499   2.710   2.736 -1.0004  1.8178  0.1559
19829TIP3    H280903   4.645   2.720   2.772 -0.6455 -0.1003 -0.6365
19830TIP3   OH280904   0.567   6.767   4.642 -0.2796  0.4632  0.3918
19830TIP3    H180905   0.619   6.690   4.664 -0.7463  0.4438  1.5349
19830TIP3    H280906   0.588   6.831   4.710  0.3111  1.4658 -0.6977
19831TIP3   OH280907   1.177   6.434  12.224  0.6456 -0.0862 -0.0823
19831TIP3    H180908   1.136   6.464  12.305 -0.7130 -0.0194 -0.7728
19831TIP3    H280909   1.231   6.359  12.251  0.5939  0.2329  0.9506
19832TIP3   OH280910   1.119   5.083  14.786  0.2574 -0.8172  0.4738
19832TIP3    H180911   1.159   5.170  14.791 -0.8065 -0.3229  0.5919
19832TIP3    H280912   1.132   5.046  14.873  0.1501 -0.5168  0.6198
19833TIP3   OH280913   5.327   3.102  14.040  0.3393  0.6580 -0.1730
19833TIP3    H180914   5.307   3.008  14.048 -0.0348  0.7383 -0.1361
19833TIP3    H280915   5.405   3.115  14.094  2.2469 -0.2108 -2.5523
19834TIP3   OH280916   3.779   3.364  15.350  0.1059  0.6144  0.4238
19834TIP3    H180917   3.865   3.371  15.391  0.7887  1.2527 -1.0336
19834TIP3    H280918   3.752   3.454  15.334 -0.1875  0.3942 -0.3923
19835TIP3   OH280919   0.977   3.105  14.604 -0.1211 -0.0718  0.2240
19835TIP3    H180920   0.992   3.118  14.510 -0.5541  0.1008  0.1758
19835TIP3    H280921   0.887   3.072  14.610 -0.0687 -0.1585  0.5737
19836TIP3   OH280922   1.916   0.139   4.802 -0.6815 -0.2132 -0.0394
19836TIP3    H180923   1.984   0.170   4.863 -0.7661 -3.5927  1.9832
19836TIP3    H280924   1.837   0.134   4.855 -0.6304 -3.8182 -0.0872
19837TIP3   OH280925   4.660   5.045  14.368 -0.1260 -0.2258 -0.5951
19837TIP3    H180926   4.706   4.974  14.323 -0.7106 -2.3132  1.8948
19837TIP3    H280927   4.659   5.019  14.460 -1.5499  2.4053  0.2386
19838TIP3   OH280928   2.928   5.806   3.229 -0.4740 -0.1506  0.5847
19838TIP3    H180929   3.013   5.839   3.200  0.0315  0.3835  2.5023
19838TIP3    H280930   2.885   5.882   3.268 -1.4213 -0.6448  0.5308
19839TIP3   OH280931   4.771   1.621   3.114  0.0618  0.2740  0.4668
19839TIP3    H180932   4.854   1.620   3.066 -0.5431  2.3265 -0.7920
19839TIP3    H280933   4.716   1.682   3.064 -2.6832 -1.9772  0.5111
19840TIP3   OH280934   0.854   0.624   2.268  0.4599 -0.2733  0.0693
19840TIP3    H180935   0.784   0.594   2.325  0.7636 -0.6626  0.2443
19840TIP3    H280936   0.810   0.674   2.199  0.1600  1.3717  1.3606
19841TIP3   OH280937   0.313   3.404   0.146 -0.2548 -0.3803 -0.0223
19841TIP3    H180938   0.383   3.441   0.092 -0.0663  0.0645  0.5169
19841TIP3    H280939   0.277   3.334   0.092  1.5507 -1.5915  0.2511
19842TIP3   OH280940   0.661   4.010  14.052 -0.3510  0.0820  0.2635
19842TIP3    H180941   0.731   4.032  14.114  0.0751  0.7677 -0.4382
19842TIP3    H280942   0.707   3.978  13.974 -0.8328  0.2015 -0.0736
19843TIP3   OH280943   2.526   0.894  11.323  0.1053  0.3881 -0.3799
19843TIP3    H180944   2.551   0.982  11.293 -0.7070  0.4478 -0.9307
19843TIP3    H280945   2.432   0.900  11.337  0.0026 -0.4636 -0.6688
19844TIP3   OH280946   1.286   1.897   1.645  0.3193 -0.1591 -0.0871
19844TIP3    H180947   1.336   1.889   1.726  1.8949 -1.2009 -1.1187
19844TIP3    H280948   1.346   1.868   1.576 -1.3351 -0.3609 -1.5165
19845TIP3   OH280949   5.484   0.864  15.924 -0.1990  0.0477  0.8889
19845TIP3    H180950   5.437   0.944  15.898  2.1687  1.8453  1.7680
19845TIP3    H280951   5.435   0.831  16.000  0.5481  2.5872  2.6002
19846TIP3   OH280952   0.882   2.062   4.986  0.0649 -0.1146  0.3857
19846TIP3    H180953   0.939   1.985   4.995  0.8167  0.5528  1.6713
19846TIP3    H280954   0.795   2.026   4.969  0.5843 -1.2157 -0.0094
19847TIP3   OH280955   5.594   0.740  15.462 -0.2335 -0.6120  0.1253
19847TIP3    H180956   5.681   0.699  15.462 -0.6259 -1.5806 -1.6255
19847TIP3    H280957   5.612   0.834  15.454  0.6560 -0.6713  1.2165
19848TIP3   OH280958   3.764   1.764   6.183 -0.5278 -0.3866  0.7945
19848TIP3    H180959   3.833   1.760   6.117 -0.5285 -0.1094  0.7763
19848TIP3    H280960   3.810   1.775   6.266 -0.5326 -0.6154  0.8289
19849TIP3   OH280961   2.250   0.801   5.891  0.0304 -0.6186  0.3066
19849TIP3    H180962   2.305   0.866   5.935  1.2543 -2.2955  1.4027
19849TIP3    H280963   2.176   0.788   5.949  0.0646 -0.5882  0.3572
19850TIP3   OH280964   3.706   6.085   0.086 -0.1738  0.4306 -0.1665
19850TIP3    H180965   3.740   6.084   0.175  0.0277  1.2714 -0.2249
19850TIP3    H280966   3.707   5.994   0.058 -1.1229  0.0294  1.0266
19851TIP3   OH280967   5.300   2.205   0.220  0.1286  0.0056 -0.2361
19851TIP3    H180968   5.395   2.204   0.229  0.0200  0.5543  1.1813
19851TIP3    H280969   5.282   2.277   0.159  0.5359  1.1798  0.9869
19852TIP3   OH280970   4.195   5.276   2.330 -0.1921  0.3066 -0.0140
19852TIP3    H180971   4.273   5.332   2.330 -1.3774  2.0502 -0.7248
19852TIP3    H280972   4.131   5.323   2.383 -1.2406 -0.3728 -0.6249
19853TIP3   OH280973   0.875   3.423  11.665  0.1240  0.2361  0.4723
19853TIP3    H180974   0.806   3.476  11.625  0.9610  0.4360 -0.7398
19853TIP3    H280975   0.841   3.402  11.752 -1.4078  0.4478 -0.0453
19854TIP3   OH280976   2.553   2.011  16.978  0.2605 -0.5736 -0.6177
19854TIP3    H180977   2.555   2.100  16.942  0.5676 -0.8294 -1.2542
19854TIP3    H280978   2.463   1.982  16.965 -0.6657  0.6759  2.2416
19855TIP3   OH280979   6.190   2.481   4.424 -0.2385 -0.2122 -0.3282
19855TIP3    H180980   6.267   2.435   4.455  0.8642  2.9638  2.1769
19855TIP3    H280981   6.116   2.428   4.454  0.9430 -0.7126  1.8543
19856TIP3   OH280982   3.687   3.703   0.402 -0.3977  0.0545  0.3074
19856TIP3    H180983   3.618   3.750   0.354 -1.2709 -0.3385  1.1631
19856TIP3    H280984   3.710   3.762   0.474  0.5107  0.3879 -0.2298
19857TIP3   OH280985   1.867   1.463   1.643  0.2410  0.2745 -0.4722
19857TIP3    H180986   1.958   1.467   1.671  0.2405 -1.4341 -0.1195
19857TIP3    H280987   1.857   1.375   1.605 -1.2901  0.3796 -0.3866
19858TIP3   OH280988   1.007   3.188  16.644  0.6995  0.4261  0.7598
19858TIP3    H180989   1.019   3.229  16.559 -0.6125 -1.0165 -0.1663
19858TIP3    H280990   0.917   3.209  16.669  0.2910 -1.0584  0.6664
19859TIP3   OH280991   2.604   5.554  11.506 -0.3864 -0.8101 -0.3553
19859TIP3    H180992   2.627   5.636  11.464 -0.6189  0.2921  1.5256
19859TIP3    H280993   2.684   5.503  11.506  0.3052  0.2384  0.1618
19860TIP3   OH280994   2.500   2.711   1.308  0.4271  0.1216  0.3304
19860TIP3    H180995   2.594   2.721   1.322  0.4865  0.5021 -0.3142
19860TIP3    H280996   2.488   2.724   1.214 -0.6330  3.1492  0.7777
19861TIP3   OH280997   0.371   1.409  12.844 -0.3222  0.2195  0.2113
19861TIP3    H180998   0.421   1.328  12.849  0.1437  0.3463 -1.6322
19861TIP3    H280999   0.280   1.381  12.851 -0.2490 -0.6669 -1.6929
19862TIP3   OH281000   3.309   0.092  16.287 -0.0367  0.3378 -0.3743
19862TIP3    H181001   3.302   0.008  16.333 -1.0220  0.5262 -0.1621
19862TIP3    H281002   3.402   0.099  16.266  0.7101  0.7159  2.5113
19863TIP3   OH281003   3.951   6.222  11.516  0.1492  0.0622 -0.2091
19863TIP3    H181004   3.896   6.244  11.591  0.1618 -0.3872 -0.0650
19863TIP3    H281005   3.937   6.128  11.502 -0.3160  0.2610 -1.1497
19864TIP3   OH281006   0.549   2.404  11.265 -0.0965 -0.3143  0.8000
19864TIP3    H181007   0.544   2.497  11.289 -1.7473  0.6764 -2.7098
19864TIP3    H281008   0.462   2.369  11.286 -0.7427 -0.0307 -1.1755
19865TIP3   OH281009   3.121   2.935   4.804  0.0858  0.7364 -0.9721
19865TIP3    H181010   3.115   2.857   4.749  2.7784  0.4151 -0.9611
19865TIP3    H281011   3.107   2.903   4.893  0.8312  0.2884 -1.0055
19866TIP3   OH281012   2.207   2.077   0.617  0.9031  0.2664 -0.0714
19866TIP3    H181013   2.293   2.118   0.626  0.6599  1.3759 -2.2673
19866TIP3    H281014   2.180   2.096   0.527  0.4728 -4.2672 -1.1384
19867TIP3   OH281015   0.521   4.807  13.908  0.5837  0.0624  0.0249
19867TIP3    H181016   0.518   4.876  13.974 -0.2823  0.3048 -0.2514
19867TIP3    H281017   0.444   4.753  13.927 -0.2397  0.6809 -1.3328
19868TIP3   OH281018   1.547   1.505   1.021 -0.1790  0.1535 -0.7949
19868TIP3    H181019   1.600   1.582   1.000 -0.6651  0.9937  0.8540
19868TIP3    H281020   1.610   1.434   1.030  1.1938  1.5705  3.4575
19869TIP3   OH281021   5.085   0.776   1.731 -0.0037  0.1127  0.0864
19869TIP3    H181022   5.108   0.691   1.770 -1.2345 -0.5322 -0.5175
19869TIP3    H281023   5.069   0.833   1.806 -0.6370 -0.6282  0.5470
19870TIP3   OH281024   1.813   6.643  15.268 -0.7888  0.8910 -0.4641
19870TIP3    H181025   1.821   6.725  15.316 -0.7365  0.7225 -0.1833
19870TIP3    H281026   1.837   6.575  15.332  2.4418  0.8581 -1.5419
19871TIP3   OH281027   1.538   5.159   0.581  0.2517 -0.2946  0.0571
19871TIP3    H181028   1.622   5.114   0.587  0.7653  0.4389 -1.3763
19871TIP3    H281029   1.479   5.095   0.541  0.9909  0.2821 -2.0273
19872TIP3   OH281030   0.618   4.661  12.753 -0.1695  0.2954  0.3879
19872TIP3    H181031   0.547   4.690  12.695  0.9552  0.2463 -1.0713
19872TIP3    H281032   0.669   4.600  12.700 -0.8877 -2.3175  2.4913
19873TIP3   OH281033   0.537   3.752  12.398 -0.7930  0.2493  0.4520
19873TIP3    H181034   0.488   3.672  12.416  1.1513 -0.8565  1.1732
19873TIP3    H281035   0.572   3.779  12.483 -0.8041  1.4556  0.0964
19874TIP3   OH281036   1.851   5.400  12.031 -0.3978  0.0000 -0.3025
19874TIP3    H181037   1.770   5.352  12.048 -0.3305 -0.3328 -0.8874
19874TIP3    H281038   1.831   5.490  12.054 -0.7124 -0.2052  0.2450
19875TIP3   OH281039   5.969   0.854   0.959  0.0637 -0.1691  0.5223
19875TIP3    H181040   5.895   0.796   0.944  0.7379 -1.2040  1.0330
19875TIP3    H281041   5.986   0.848   1.054  1.0405 -0.2889  0.3593
19876TIP3   OH281042   6.440   1.571  17.224 -0.2830  0.2407  0.1271
19876TIP3    H181043   6.376   1.503  17.246  0.0399  0.0349  0.4437
19876TIP3    H281044   6.430   1.637  17.293 -0.0039  0.1021  0.3023
19877TIP3   OH281045   2.320   0.358   2.309  0.2415  0.7609  0.7370
19877TIP3    H181046   2.351   0.338   2.220 -0.0081 -0.4549  0.8986
19877TIP3    H281047   2.375   0.430   2.338  1.1721  0.3552  0.0474
19878TIP3   OH281048   5.189   2.975   1.419  0.6273 -0.1617  0.3092
19878TIP3    H181049   5.155   2.886   1.428 -1.4543  0.5971  0.4449
19878TIP3    H281050   5.111   3.031   1.417  1.8918  1.7318  0.9789
19879TIP3   OH281051   4.618   0.529   4.490 -0.0952 -0.4419  0.6608
19879TIP3    H181052   4.670   0.517   4.569 -0.1244 -2.4327  0.4139
19879TIP3    H281053   4.528   0.512   4.517 -0.1209 -0.9988  0.2441
19880TIP3   OH281054   1.880   5.581  11.719 -0.1050  0.1993  0.1008
19880TIP3    H181055   1.842   5.543  11.639 -0.3355 -0.2628  0.4175
19880TIP3    H281056   1.877   5.509  11.782  2.6597 -0.3154 -0.2551
19881TIP3   OH281057   4.784   2.752   0.881 -0.4333 -0.1041 -0.0505
19881TIP3    H181058   4.766   2.687   0.948 -0.2990 -1.9505 -1.6931
19881TIP3    H281059   4.719   2.821   0.894 -0.2419 -0.2777  2.0615
19882TIP3   OH281060   4.811   0.433  11.230  0.4748  0.6077 -0.5404
19882TIP3    H181061   4.829   0.339  11.226  0.6987  0.6436 -0.3772
19882TIP3    H281062   4.890   0.473  11.195  0.2942  0.7310 -0.8179
19883TIP3   OH281063   4.393   5.145  14.813 -0.6962  0.2942 -0.1692
19883TIP3    H181064   4.398   5.206  14.887 -0.0007  1.3252 -1.0409
19883TIP3    H281065   4.355   5.197  14.742  2.0563  0.4484 -1.6335
19884TIP3   OH281066   1.873   1.357   4.653  0.2117 -0.7147 -0.1837
19884TIP3    H181067   1.792   1.397   4.684  0.5936 -0.3623  0.3741
19884TIP3    H281068   1.940   1.391   4.712  1.2885  1.4634 -2.4846
19885TIP3   OH281069   5.768   5.697   1.169  0.2310 -0.3234 -0.5743
19885TIP3    H181070   5.787   5.646   1.090 -0.6882  1.3216 -1.9356
19885TIP3    H281071   5.837   5.763   1.172 -1.0778  1.1380 -1.4250
19886TIP3   OH281072   0.004   2.105   3.439  0.5632 -0.5546 -0.1957
19886TIP3    H181073   0.062   2.095   3.514 -0.1920 -0.6520  0.3852
19886TIP3    H281074  -0.054   2.177   3.463 -0.0549 -0.9649 -0.4407
19887TIP3   OH281075   0.226   5.331   3.433  0.0931 -0.2203  0.4846
19887TIP3    H181076   0.191   5.258   3.485  0.7906 -2.1845 -1.6588
19887TIP3    H281077   0.320   5.328   3.448  0.2968 -0.7827 -0.8150
19888TIP3   OH281078   3.447   2.212  16.126 -0.0499 -0.5250 -0.5018
19888TIP3    H181079   3.366   2.261  16.115 -0.7938 -1.2961  1.1265
19888TIP3    H281080   3.495   2.225  16.044 -1.2293  1.0003 -0.9929
19889TIP3   OH281081   0.038   5.260  13.894  0.0635 -0.1377  0.5483
19889TIP3    H181082   0.121   5.284  13.852 -0.2406 -0.7885 -0.4686
19889TIP3    H281083  -0.023   5.329  13.868 -0.0972 -0.4828 -0.0058
19890TIP3   OH281084   1.061   3.512   4.183  0.7385 -0.2439 -0.0388
19890TIP3    H181085   1.015   3.474   4.258  1.1750  0.0574  0.3921
19890TIP3    H281086   1.031   3.602   4.180  0.7094 -0.2607 -0.2377
19891TIP3   OH281087   1.291   5.344  14.488  0.4737  0.4372 -0.1328
19891TIP3    H181088   1.285   5.249  14.484 -0.4486  0.5056 -0.3910
19891TIP3    H281089   1.266   5.366  14.578 -1.1903  0.5609 -0.5995
19892TIP3   OH281090   3.662   0.805   4.673 -0.1629  0.1921  0.0599
19892TIP3    H181091   3.739   0.849   4.710 -0.1142 -0.2128  0.4536
19892TIP3    H281092   3.603   0.876   4.649 -0.0325  0.4796  0.5759
19893TIP3   OH281093   3.049   6.350  14.174 -0.2708  0.5383 -0.7670
19893TIP3    H181094   2.997   6.429  14.189 -2.3259 -0.4005 -2.4076
19893TIP3    H281095   3.101   6.370  14.096 -1.2621  0.1080 -1.5634
19894TIP3   OH281096   4.265   0.766   2.004 -0.2261  0.1089  0.1181
19894TIP3    H181097   4.270   0.861   2.018  1.2199 -0.0839  1.1769
19894TIP3    H281098   4.321   0.729   2.072 -0.4209 -1.4983 -0.5464
19895TIP3   OH281099   0.851   1.029   1.577 -0.1933 -0.3510 -0.3444
19895TIP3    H181100   0.876   1.100   1.518 -0.2655 -0.5808 -0.6505
19895TIP3    H281101   0.934   0.993   1.608 -0.1039  1.0718  1.2969
19896TIP3   OH281102   2.348   4.834   0.090  0.1236 -0.8969  0.1384
19896TIP3    H181103   2.319   4.847  -0.001 -0.1287  0.7297  0.4069
19896TIP3    H281104   2.425   4.778   0.083 -0.4747 -1.6162 -0.9918
19897TIP3   OH281105   3.666   0.731   6.009 -0.0005 -0.2185  0.6637
19897TIP3    H181106   3.732   0.703   5.945 -0.8079  1.6561 -1.0760
19897TIP3    H281107   3.665   0.826   6.003 -1.3816 -0.0804  2.2290
19898TIP3   OH281108   2.239   5.606   2.995  0.0012  0.5975  0.5290
19898TIP3    H181109   2.155   5.644   2.966 -0.8254 -1.6117 -0.1883
19898TIP3    H281110   2.218   5.564   3.078  0.0634 -0.8785 -0.1575
19899TIP3   OH281111   6.409   6.559   6.142 -0.0144  0.2876 -0.4163
19899TIP3    H181112   6.314   6.571   6.134 -0.3781  0.4991  2.7960
19899TIP3    H281113   6.424   6.466   6.124 -0.7957  0.3091 -1.1929
19900TIP3   OH281114   4.695   0.989  15.465  0.1572  0.1230 -0.0840
19900TIP3    H181115   4.728   0.963  15.379  1.6209  1.9331 -0.1374
19900TIP3    H281116   4.771   1.029  15.509 -0.7628 -0.0195  1.7365
19901TIP3   OH281117   5.703   6.060   4.515  0.5091 -0.2807 -0.2961
19901TIP3    H181118   5.714   5.969   4.543  1.4110  0.0313  0.3985
19901TIP3    H281119   5.781   6.079   4.463  1.8576  0.9934  2.0571
19902TIP3   OH281120   2.831   5.307   3.951  0.0884  0.5312  0.0611
19902TIP3    H181121   2.776   5.250   4.005 -0.2109  1.4496  0.7529
19902TIP3    H281122   2.769   5.351   3.892  0.3526 -0.0750 -0.6795
19903TIP3   OH281123   1.490   2.652  16.784 -0.1949  0.1365 -0.4142
19903TIP3    H181124   1.417   2.714  16.790 -1.1571 -1.0071  0.0507
19903TIP3    H281125   1.566   2.707  16.764 -1.3243  1.2502 -1.8925
19904TIP3   OH281126   4.113   1.355   5.961  0.1062  0.2429  0.0914
19904TIP3    H181127   4.173   1.302   6.013  0.5459  1.9394  1.4152
19904TIP3    H281128   4.055   1.291   5.918  1.6513 -1.3392  0.2628
19905TIP3   OH281129   0.431   5.526   1.275 -0.1589  0.1146  0.3200
19905TIP3    H181130   0.508   5.583   1.266  0.7816 -1.1174  0.3947
19905TIP3    H281131   0.395   5.549   1.361 -0.0277  0.8602  0.1888
19906TIP3   OH281132   3.403   1.848   5.705 -0.2019  0.3631  0.4218
19906TIP3    H181133   3.382   1.764   5.664  0.6055  1.0171 -1.4416
19906TIP3    H281134   3.438   1.901   5.633 -0.1303  2.0920  1.6885
19907TIP3   OH281135   1.997   5.283  15.387  0.0864  0.2814 -0.0796
19907TIP3    H181136   2.075   5.233  15.410  0.0123  0.4238  0.4812
19907TIP3    H281137   2.007   5.300  15.293  0.2962 -0.4564 -0.1944
19908TIP3   OH281138   6.263   2.850  11.999 -0.5738 -0.2775 -0.9554
19908TIP3    H181139   6.276   2.779  12.061  0.7851  0.9946  0.2932
19908TIP3    H281140   6.193   2.903  12.037 -1.7077 -0.9991 -1.9708
19909TIP3   OH281141   6.440   2.894   6.607 -0.1194  0.2109 -0.9190
19909TIP3    H181142   6.428   2.813   6.558  0.6087 -0.5308  0.0681
19909TIP3    H281143   6.529   2.887   6.642 -0.9678  0.1725  1.4065
19910TIP3   OH281144   0.882   6.530   1.442  0.0401 -0.4675 -0.1087
19910TIP3    H181145   0.921   6.559   1.359  1.1402  0.6013  0.7580
19910TIP3    H281146   0.937   6.457   1.471  0.0430 -0.4196  0.0070
19911TIP3   OH281147   4.222   3.466  13.483 -0.0811  0.7527  0.4769
19911TIP3    H181148   4.132   3.499  13.475 -0.6682 -0.2872  2.2408
19911TIP3    H281149   4.224   3.389  13.427  0.5734  2.2597 -1.7133
19912TIP3   OH281150   3.075   1.165  10.760 -0.1294 -0.5674  0.2371
19912TIP3    H181151   3.155   1.164  10.814  0.1923  1.3015 -0.1223
19912TIP3    H281152   3.071   1.078  10.721  0.3368 -1.5512  2.2337
19913TIP3   OH281153   3.546   1.084   3.124  0.2100 -0.3718 -0.5775
19913TIP3    H181154   3.590   1.138   3.058 -0.0442  0.1970 -0.2977
19913TIP3    H281155   3.500   1.148   3.179  1.1837 -0.7586  0.7211
19914TIP3   OH281156   0.815   0.445  16.990  0.1796  0.4645 -0.0169
19914TIP3    H181157   0.818   0.508  16.918 -0.8704  0.7409  0.1613
19914TIP3    H281158   0.789   0.362  16.949 -1.1628  0.7860  0.1092
19915TIP3   OH281159   1.118   6.461   5.831 -0.3484 -0.1853  0.2366
19915TIP3    H181160   1.096   6.479   5.922 -0.5547  0.3796  0.0762
19915TIP3    H281161   1.179   6.387   5.836 -0.8695 -0.5921  0.7884
19916TIP3   OH281162   5.886   1.055   0.549 -0.0433 -0.2720 -0.1096
19916TIP3    H181163   5.975   1.024   0.569 -0.2791  0.1014  1.6653
19916TIP3    H281164   5.874   1.131   0.605 -0.6029  1.2352 -2.1856
19917TIP3   OH281165   1.461   0.510  12.802 -0.1961  0.0186  0.1868
19917TIP3    H181166   1.449   0.531  12.895 -1.9373  0.0309  0.0062
19917TIP3    H281167   1.444   0.592  12.756 -0.5878 -0.2623 -0.1863
19918TIP3   OH281168   3.358   2.158  15.269 -0.3742 -0.1919 -0.4754
19918TIP3    H181169   3.378   2.175  15.177  0.4154  0.2654 -0.2256
19918TIP3    H281170   3.322   2.241  15.302 -2.1812 -0.8159 -0.7607
19919TIP3   OH281171   1.918   1.419   0.810  0.5496  0.3363 -0.2906
19919TIP3    H181172   2.006   1.386   0.793  0.7977  1.1160 -0.5828
19919TIP3    H281173   1.906   1.488   0.745 -0.8177 -0.6778 -1.1744
19920TIP3   OH281174   0.031   3.885   0.344 -0.2481  0.2621 -0.5438
19920TIP3    H181175  -0.033   3.843   0.286  1.3935 -1.0439 -1.5035
19920TIP3    H281176   0.046   3.821   0.413 -0.8425  1.0722  0.3659
19921TIP3   OH281177   1.925   2.263   3.610 -0.6228  0.1662  0.0469
19921TIP3    H181178   1.997   2.207   3.582 -1.2751 -0.0891 -1.2006
19921TIP3    H281179   1.848   2.207   3.604 -1.1794  0.9780 -0.4563
19922TIP3   OH281180   6.057   0.072  16.393 -0.4487  0.1625  0.0575
19922TIP3    H181181   6.071   0.162  16.420  0.8088  0.4308 -1.3262
19922TIP3    H281182   6.053   0.022  16.474 -0.3242  1.3471  0.8119
19923TIP3   OH281183   2.515   1.621  13.645  0.1921 -0.6909  0.1833
19923TIP3    H181184   2.450   1.577  13.699  0.5819  0.1430  1.3847
19923TIP3    H281185   2.574   1.552  13.617 -1.0812 -1.4418 -0.7935
19924TIP3   OH281186   5.887   1.103   3.590  0.2404 -0.0530 -0.0643
19924TIP3    H181187   5.930   1.096   3.675  2.4846  0.9467 -1.0391
19924TIP3    H281188   5.855   1.193   3.587  0.3335 -0.0310 -0.3622
19925TIP3   OH281189   6.204   0.499   4.769 -0.1453 -0.0970 -0.1766
19925TIP3    H181190   6.211   0.546   4.852 -1.9715  0.2476 -0.1912
19925TIP3    H281191   6.295   0.481   4.745  0.4483  0.3430  1.5743
19926TIP3   OH281192   6.624   0.351  16.644  0.2939  0.2263 -0.3368
19926TIP3    H181193   6.617   0.293  16.568  0.3803 -0.4185  0.1336
19926TIP3    H281194   6.535   0.385  16.657  0.3543  0.6226 -0.9371
19927TIP3   OH281195   2.442   6.160  17.057 -0.0520  0.1031  0.1874
19927TIP3    H181196   2.407   6.101  16.990  1.3687 -0.3085 -0.2350
19927TIP3    H281197   2.537   6.153  17.048  0.1893  0.1142  2.1915
19928TIP3   OH281198   5.537   4.951  14.368 -0.4818  0.0377 -0.1734
19928TIP3    H181199   5.596   5.015  14.328 -0.1317  0.3294  0.7873
19928TIP3    H281200   5.578   4.929  14.452 -1.0051 -0.8494 -0.1369
19929TIP3   OH281201   3.492   1.549   4.265 -0.1463  0.0428  0.1955
19929TIP3    H181202   3.427   1.508   4.321  1.9615 -2.1025  1.2676
19929TIP3    H281203   3.474   1.514   4.178 -0.4865 -0.4241  0.4516
19930TIP3   OH281204   3.143   3.381  13.252  0.0137  0.1147  0.4678
19930TIP3    H181205   3.218   3.355  13.199  2.6377  1.2875  3.3367
19930TIP3    H281206   3.136   3.476  13.239 -1.2201 -0.0221 -0.0089
19931TIP3   OH281207   4.645   1.133  14.622  0.2448 -0.3186  0.0321
19931TIP3    H181208   4.591   1.119  14.700 -1.9391  1.6694 -0.9806
19931TIP3    H281209   4.734   1.115  14.650 -0.6143 -0.8740  2.6415
19932TIP3   OH281210   0.765   6.273  11.709 -0.1837  0.3095  0.0842
19932TIP3    H181211   0.776   6.181  11.684 -0.3048  0.2256  0.3395
19932TIP3    H281212   0.843   6.292  11.762  0.5887  0.7697 -1.1485
19933TIP3   OH281213   4.850   3.605   2.235  0.1172  0.0931 -0.5356
19933TIP3    H181214   4.760   3.591   2.207 -0.0116  1.4984 -0.9002
19933TIP3    H281215   4.897   3.626   2.154 -0.0413  3.1424  0.0631
19934TIP3   OH281216   4.662   2.529   3.586  0.2889  0.1492 -0.2397
19934TIP3    H181217   4.734   2.486   3.632  1.2680  0.9518 -0.9810
19934TIP3    H281218   4.641   2.471   3.513  0.3119  0.0103 -0.1357
19935TIP3   OH281219   3.499   3.094  16.807 -0.3133 -0.1873 -0.3867
19935TIP3    H181220   3.553   3.102  16.728 -0.9342 -0.3181 -0.8368
19935TIP3    H281221   3.558   3.115  16.879  0.3122 -0.2498 -0.8745
19936TIP3   OH281222   0.263   2.531  15.208  0.1110 -0.1841  0.0712
19936TIP3    H181223   0.356   2.507  15.204  0.4582  1.1141 -0.3461
19936TIP3    H281224   0.258   2.612  15.156 -1.1996 -0.0807  0.3415
19937TIP3   OH281225   5.342   4.741   4.440  0.2359  0.1543 -0.0447
19937TIP3    H181226   5.419   4.743   4.383  1.3419 -1.1434  1.3137
19937TIP3    H281227   5.350   4.820   4.493 -1.7097  2.3130 -2.6554
19938TIP3   OH281228   1.231   5.698  11.550 -0.7191  0.1347 -0.0881
19938TIP3    H181229   1.252   5.619  11.598 -1.4571  1.6452  2.9559
19938TIP3    H281230   1.316   5.730  11.519 -0.1519 -0.6934  0.5615
19939TIP3   OH281231   0.295   5.336  13.802 -0.0172  0.5447 -0.3192
19939TIP3    H181232   0.331   5.418  13.768 -1.7394  2.0253  1.1922
19939TIP3    H281233   0.312   5.272  13.732 -0.2564  2.6071 -2.4102
19940TIP3   OH281234   6.529   1.578   1.574 -0.0145 -0.0859  0.2144
19940TIP3    H181235   6.614   1.555   1.612  0.5798  0.3283 -0.8333
19940TIP3    H281236   6.467   1.563   1.645  0.9611 -0.1371  1.0887
19941TIP3   OH281237   4.651   5.422   5.847  0.7650 -0.2681  0.4260
19941TIP3    H181238   4.646   5.410   5.752 -0.0780 -0.3586  0.4812
19941TIP3    H281239   4.738   5.461   5.862  0.7970 -0.0171 -0.4006
19942TIP3   OH281240   3.890   1.286  17.226 -0.8438  0.2238 -0.1783
19942TIP3    H181241   3.860   1.275  17.316 -0.5431  0.6939 -0.0222
19942TIP3    H281242   3.855   1.209  17.180 -1.0160 -0.0047  0.3292
19943TIP3   OH281243   2.316   3.741  15.522  0.3232  0.1871 -0.0501
19943TIP3    H181244   2.374   3.706  15.590 -0.6967 -0.6078  0.4259
19943TIP3    H281245   2.229   3.708  15.545  0.0242 -0.4881 -1.9964
19944TIP3   OH281246   6.667   3.980  10.754 -0.4289  0.2246 -0.1897
19944TIP3    H181247   6.636   4.064  10.720  0.3975  0.7965  0.4335
19944TIP3    H281248   6.701   4.001  10.841 -0.6181 -0.8431  0.1468
19945TIP3   OH281249   5.027   1.685   0.875 -0.3032 -0.3152 -0.0679
19945TIP3    H181250   5.038   1.770   0.833  1.6703 -0.8642 -0.7521
19945TIP3    H281251   5.056   1.622   0.809 -3.5267 -1.7452 -0.3408
19946TIP3   OH281252   5.261   4.524  13.071 -0.5466  0.6002 -1.0340
19946TIP3    H181253   5.275   4.430  13.087  1.5695  0.5766 -2.5158
19946TIP3    H281254   5.275   4.565  13.157  0.8753 -0.2713 -0.8065
19947TIP3   OH281255   3.686   4.232   3.598 -0.0107 -0.1598  0.6853
19947TIP3    H181256   3.764   4.179   3.613  0.5493  0.1840 -0.9194
19947TIP3    H281257   3.671   4.228   3.504 -1.4908  0.4178  0.8602
19948TIP3   OH281258   3.237   6.170  12.698  0.4960 -0.3047  0.0732
19948TIP3    H181259   3.170   6.102  12.686  0.4363 -0.2325 -0.0037
19948TIP3    H281260   3.317   6.121  12.716  0.2371 -0.3675  1.1158
19949TIP3   OH281261   0.964   5.668  14.497  0.0161 -0.1757  0.4963
19949TIP3    H181262   0.910   5.737  14.459  1.4233  0.4277 -0.4798
19949TIP3    H281263   1.043   5.667  14.444  0.3518 -2.0554  0.9526
19950TIP3   OH281264   5.575   2.202  13.595  0.0261  0.3782  0.2789
19950TIP3    H181265   5.514   2.151  13.542 -0.2833  0.9168  0.1087
19950TIP3    H281266   5.661   2.169  13.571 -0.0489  1.1864 -1.1961
19951TIP3   OH281267   4.955   0.060  13.211  0.3653  0.2108 -0.0901
19951TIP3    H181268   4.978   0.148  13.239  0.0926 -0.3478  2.0092
19951TIP3    H281269   4.868   0.044  13.249 -0.1626 -0.5181 -1.5162
19952TIP3   OH281270   2.359   4.467  12.291 -0.2929  0.1857  0.3239
19952TIP3    H181271   2.433   4.447  12.348 -0.1594  2.0161  0.8674
19952TIP3    H281272   2.383   4.550  12.249 -0.1579 -1.3160 -2.8381
19953TIP3   OH281273   3.022   0.126  14.117 -0.2309 -0.4613 -0.8387
19953TIP3    H181274   3.021   0.169  14.032 -0.4810 -0.5246 -0.8690
19953TIP3    H281275   2.957   0.174  14.169 -1.6448 -1.7429 -1.3435
19954TIP3   OH281276   4.335   4.942   4.420  0.0582 -0.0455 -0.9653
19954TIP3    H181277   4.292   5.019   4.457  0.4814 -0.4195  0.3718
19954TIP3    H281278   4.265   4.893   4.378 -0.9793 -0.8137  1.4441
19955TIP3   OH281279   3.938   3.247   3.041  0.5640  0.0372 -0.2943
19955TIP3    H181280   4.004   3.238   3.111 -1.1493 -0.2598  1.3550
19955TIP3    H281281   3.914   3.339   3.042 -0.0383 -0.1207  0.0669
19956TIP3   OH281282   0.687   2.751  12.916  0.2859  0.1524 -0.1800
19956TIP3    H181283   0.640   2.676  12.881 -0.5110 -0.3856  1.8839
19956TIP3    H281284   0.623   2.822  12.916  0.5253  0.3678 -0.5757
19957TIP3   OH281285   4.818   3.924   1.362 -0.0526 -0.4200  0.2832
19957TIP3    H181286   4.838   3.944   1.454 -0.1347  0.1350  0.1872
19957TIP3    H281287   4.723   3.918   1.358  0.0021 -1.6487  0.4622
19958TIP3   OH281288   5.763   1.115   5.947  0.5837  0.4782  0.3072
19958TIP3    H181289   5.759   1.191   6.005  0.2941  1.4909 -0.9893
19958TIP3    H281290   5.852   1.082   5.955 -0.0048 -0.7549  2.9247
19959LIG      O81291   5.442   5.601  13.088 -0.1673 -0.5329 -0.0653
19959LIG      N81292   5.227   5.932  12.952  0.1234 -0.8253  0.5207
19959LIG     C181293   5.257   5.466  13.083 -0.5247 -0.3244  0.4285
19959LIG     C281294   5.322   5.578  13.014  0.0081  0.0710  0.8572
19959LIG     C381295   5.321   5.330  13.063  0.0704 -0.3920 -0.0993
19959LIG     C481296   5.229   5.489  13.235  0.1518 -0.2324 -0.7750
19959LIG     C581297   5.236   5.700  13.012  1.1237  0.0881  0.0309
19959LIG     C681298   5.245   5.214  13.133  0.3039  0.1340  0.7104
19959LIG     C781299   5.150   5.370  13.297 -0.0598 -0.2489  0.1594
19959LIG     C881300   5.235   5.238  13.282  0.1943 -0.5566 -0.2776
19959LIG     C981301   5.305   5.812  12.930  0.2221 -0.9050 -0.0802
19959LIG    C1081302   5.358   5.526  12.861 -0.1429 -0.0736 -0.5933
19959LIG    C1181303   5.288   6.059  12.911 -0.2704  0.5495 -0.7017
19959LIG    C1281304   5.082   5.935  12.908  0.1636  0.0663 -0.5473
19959LIG    C1381305   5.301   6.066  12.756  0.1485 -0.1285 -0.0043
19959LIG    C1481306   5.082   5.952  12.752 -0.5475  0.6739 -0.3935
19959LIG    C1581307   5.155   6.074  12.706  0.9589  1.4497  0.7860
19959LIG    C1681308   5.252   5.502  12.762 -0.1846 -0.0210 -0.1794
19959LIG    C1781309   5.491   5.487  12.820 -0.0694  0.1022  0.0965
19959LIG    C1881310   5.280   5.450  12.631 -0.5980  0.2504  0.2178
19959LIG    C1981311   5.508   5.426  12.693 -0.2351 -0.5857  0.0630
19959LIG    C2081312   5.407   5.400  12.605 -0.1822  0.1258 -0.4283
19959LIG     H181313   5.158   5.463  13.033  0.4856 -0.1482 -1.7107
19959LIG     H281314   5.427   5.337  13.093  0.0542 -1.5438  0.2645
19959LIG     H381315   5.316   5.307  12.954 -0.8979 -0.1884 -0.1074
19959LIG     H481316   5.160   5.575  13.246  1.0778  0.2039  2.4941
19959LIG     H581317   5.320   5.497  13.298 -0.3420 -2.5289  0.3250
19959LIG     H681318   5.222   5.737  13.116  2.9144 -0.1388  0.3895
19959LIG     H781319   5.139   5.667  12.969 -0.0322 -0.3776  2.7673
19959LIG     H881320   5.297   5.116  13.118  2.3959  1.3765 -0.7419
19959LIG     H981321   5.144   5.220  13.087  0.8562  1.0560 -0.4303
19959LIG    H1081322   5.052   5.353  13.248  0.2135  0.4837 -0.6730
19959LIG    H1181323   5.133   5.389  13.405 -2.3411  1.1214 -0.3928
19959LIG    H1281324   5.335   5.242  13.330 -0.5911 -1.0464  1.4563
19959LIG    H1381325   5.174   5.159  13.332  1.9891 -0.4851  2.1978
19959LIG    H1481326   5.402   5.834  12.980 -0.7514  1.6180  0.8623
19959LIG    H1581327   5.322   5.795  12.821 -2.5957  0.0865 -0.7786
19959LIG    H1681328   5.386   6.057  12.965  0.0324 -0.7627 -1.2564
19959LIG    H1781329   5.236   6.148  12.953  1.7621  2.6903 -2.4352
19959LIG    H1881330   5.032   6.028  12.942 -1.3839 -0.3578 -1.5676
19959LIG    H1981331   5.026   5.845  12.942  1.2790 -0.4443 -0.0266
19959LIG    H2081332   5.418   5.642  13.172  1.6719 -0.3067  0.3946
19959LIG    H2181333   5.371   5.985  12.725 -0.5778 -0.4545 -0.8329
19959LIG    H2281334   5.360   6.157  12.728  2.4059 -0.5937  2.7854
19959LIG    H2381335   4.979   5.955  12.712 -0.7332  1.6467  0.1032
19959LIG    H2481336   5.106   5.849  12.719  2.1433  1.1660 -0.2037
19959LIG    H2581337   5.145   6.081  12.595 -0.9607 -2.0805  0.5666
19959LIG    H2681338   5.109   6.162  12.754 -0.5983  0.5100  1.0921
19959LIG    H2781339   5.148   5.532  12.765 -1.1294 -2.7587 -1.7020
19959LIG    H2881340   5.581   5.481  12.880  0.5618  0.2755 -0.8067
19959LIG    H2981341   5.201   5.435  12.559  0.9476  0.6930 -1.6754
19959LIG    H3081342   5.608   5.386  12.685  0.0956  0.4527 -1.3541
19959LIG    H3181343   5.427   5.347  12.513 -2.9734  2.2478 -2.4321
   6.77241   6.77241  17.30002
