* GENERATED BY CHARMM-GUI (HTTP://WWW.CHARMM-GUI.ORG) V3.7 ON OCT, 22. 2024. JOB
* GENERATES ION CONFORMATION USING MONTE-CARLO SIMULATION
*  DATE:    10/22/24      9:55:12      CREATED BY USER: apache
*
        54  EXT
         1         1  POT       POT           -22.8331231675      -10.0649619205       36.9849266888  IONS      1               1.0000000000
         2         2  POT       POT            25.8783241000        6.8666658800       34.8859831000  IONS      2               1.0000000000
         3         3  POT       POT           -34.2192144000       32.7071572000      -34.3385622000  IONS      3               1.0000000000
         4         4  POT       POT            20.4791916000       -2.4540245100       26.6197511000  IONS      4               1.0000000000
         5         5  POT       POT             2.9458502200        9.7520208100      -35.5650195000  IONS      5               1.0000000000
         6         6  POT       POT           -13.8185487000       32.7229666000      -27.9336970000  IONS      6               1.0000000000
         7         7  POT       POT            21.4604605000      -16.9401119000       33.7104559000  IONS      7               1.0000000000
         8         8  POT       POT            20.8745876943       -6.3625127609       21.1462229017  IONS      8               1.0000000000
         9         9  POT       POT           -32.2190346000       26.1870151000       27.7946953000  IONS      9               1.0000000000
        10        10  POT       POT            32.8421835000        4.3247854000      -29.7169596000  IONS      10              1.0000000000
        11        11  POT       POT             7.2921759800       14.1210500000       28.2445676000  IONS      11              1.0000000000
        12        12  POT       POT            21.6501313000      -29.7221389000      -38.0524875000  IONS      12              1.0000000000
        13        13  POT       POT            22.7614063000        6.1928066700       41.8131889000  IONS      13              1.0000000000
        14        14  POT       POT           -35.3175358000      -29.2200822000       39.3090111000  IONS      14              1.0000000000
        15        15  POT       POT             7.3118020100      -24.7660910000       37.8967773000  IONS      15              1.0000000000
        16        16  POT       POT            -4.4086479505       36.3409778995      -25.9948647019  IONS      16              1.0000000000
        17        17  POT       POT             6.4132941800      -35.3310664000       39.2611143000  IONS      17              1.0000000000
        18        18  POT       POT           -31.9528260839        8.0559726739      -27.7185023102  IONS      18              1.0000000000
        19        19  POT       POT            35.4733751000       21.5144639000       26.5682121000  IONS      19              1.0000000000
        20        20  POT       POT           -26.6843904269       20.6333664867      -24.3318923002  IONS      20              1.0000000000
        21        21  POT       POT            19.1715383000        7.8114822000       36.7412622000  IONS      21              1.0000000000
        22        22  POT       POT           -28.4861599034      -19.6076975909      -27.4336695026  IONS      22              1.0000000000
        23        23  POT       POT           -26.3751144000       35.3145543000      -31.0757381000  IONS      23              1.0000000000
        24        24  POT       POT           -14.3501893000      -31.1504198000      -37.9732332000  IONS      24              1.0000000000
        25        25  POT       POT            21.4748513000      -35.8457167000       40.0791147000  IONS      25              1.0000000000
        26        26  POT       POT           -26.0120882000      -25.3756324000      -33.4255534000  IONS      26              1.0000000000
        27        27  POT       POT           -23.0274986000       17.0322664000       38.9063421000  IONS      27              1.0000000000
        28        28  POT       POT           -26.1165608000       11.0930341000       42.1583992000  IONS      28              1.0000000000
        29        29  POT       POT            25.0952076063       25.0048235065       34.7922318958  IONS      29              1.0000000000
        30        30  POT       POT            10.4672268000        8.4324516400      -32.0367921000  IONS      30              1.0000000000
        31        31  POT       POT             5.5529444269      -29.8993941996       26.5637178188  IONS      31              1.0000000000
        32        32  POT       POT           -32.2115215935       33.1660028963       35.3038659741  IONS      32              1.0000000000
        33        33  POT       POT           -31.0059014000        5.4016377600       33.1664097000  IONS      33              1.0000000000
        34        34  POT       POT           -36.2655996000       -8.4604683800      -29.6172940000  IONS      34              1.0000000000
        35        35  POT       POT           -20.5735953000        3.4750779600       23.3859760000  IONS      35              1.0000000000
        36        36  POT       POT            30.3309673000       34.7376018000       30.1199528000  IONS      36              1.0000000000
        37        37  POT       POT            20.7171418000      -10.0358104000       41.0921827000  IONS      37              1.0000000000
        38        38  CLA       CLA            -1.0213112200       -1.1523523200      -31.9045073000  IONS      38             -1.0000000000
        39        39  CLA       CLA            -4.4267999900      -17.6317945000       40.4887024000  IONS      39             -1.0000000000
        40        40  CLA       CLA           -12.7070096000       29.8352273000       30.7620747000  IONS      40             -1.0000000000
        41        41  CLA       CLA            28.5887448000      -24.4721868000       30.7726123000  IONS      41             -1.0000000000
        42        42  CLA       CLA             0.0457248354       -2.6175926361      -26.1982028749  IONS      42             -1.0000000000
        43        43  CLA       CLA            -9.8130913300       17.4281836000      -36.8335803000  IONS      43             -1.0000000000
        44        44  CLA       CLA           -25.6821054000      -29.7678446000      -24.6844332000  IONS      44             -1.0000000000
        45        45  CLA       CLA            18.2598516000       19.2416347000       33.6136328000  IONS      45             -1.0000000000
        46        46  CLA       CLA            30.2281433980        6.5517302768      -36.0006338157  IONS      46             -1.0000000000
        47        47  CLA       CLA           -29.9542026000      -35.4523397000       41.5732822000  IONS      47             -1.0000000000
        48        48  CLA       CLA            13.0418755000      -22.0834869000       32.1753935000  IONS      48             -1.0000000000
        49        49  CLA       CLA            32.4368801000      -30.4146500000       37.0067980000  IONS      49             -1.0000000000
        50        50  CLA       CLA            24.0925938000        8.7411947300      -24.7514786000  IONS      50             -1.0000000000
        51        51  CLA       CLA           -22.5465772000       30.3649451000      -25.9564361000  IONS      51             -1.0000000000
        52        52  CLA       CLA            17.2956791000       -3.5140989700      -35.5987724000  IONS      52             -1.0000000000
        53        53  CLA       CLA           -20.5453022000      -18.9073276000       31.2044827000  IONS      53             -1.0000000000
        54        54  CLA       CLA           -20.9936037000      -28.5422796000       32.6020130000  IONS      54             -1.0000000000
